 Entering Gaussian System, Link 0=g09
 Initial command:
 /usr/local/Cluster-Apps/gaussian/g09/l1.exe "/rds/user/am2145/hpc-work/scratch/36810453/Gau-21841.inp" -scrdir="/rds/user/am2145/hpc-work/scratch/36810453/"
 Entering Link 1 = /usr/local/Cluster-Apps/gaussian/g09/l1.exe PID=     21842.
  
 Copyright (c) 1988,1990,1992,1993,1995,1998,2003,2009,2013,
            Gaussian, Inc.  All Rights Reserved.
  
 This is part of the Gaussian(R) 09 program.  It is based on
 the Gaussian(R) 03 system (copyright 2003, Gaussian, Inc.),
 the Gaussian(R) 98 system (copyright 1998, Gaussian, Inc.),
 the Gaussian(R) 94 system (copyright 1995, Gaussian, Inc.),
 the Gaussian 92(TM) system (copyright 1992, Gaussian, Inc.),
 the Gaussian 90(TM) system (copyright 1990, Gaussian, Inc.),
 the Gaussian 88(TM) system (copyright 1988, Gaussian, Inc.),
 the Gaussian 86(TM) system (copyright 1986, Carnegie Mellon
 University), and the Gaussian 82(TM) system (copyright 1983,
 Carnegie Mellon University). Gaussian is a federally registered
 trademark of Gaussian, Inc.
  
 This software contains proprietary and confidential information,
 including trade secrets, belonging to Gaussian, Inc.
  
 This software is provided under written license and may be
 used, copied, transmitted, or stored only in accord with that
 written license.
  
 The following legend is applicable only to US Government
 contracts under FAR:
  
                    RESTRICTED RIGHTS LEGEND
  
 Use, reproduction and disclosure by the US Government is
 subject to restrictions as set forth in subparagraphs (a)
 and (c) of the Commercial Computer Software - Restricted
 Rights clause in FAR 52.227-19.
  
 Gaussian, Inc.
 340 Quinnipiac St., Bldg. 40, Wallingford CT 06492
  
  
 ---------------------------------------------------------------
 Warning -- This program may not be used in any manner that
 competes with the business of Gaussian, Inc. or will provide
 assistance to any competitor of Gaussian, Inc.  The licensee
 of this program is prohibited from giving any competitor of
 Gaussian, Inc. access to this program.  By using this program,
 the user acknowledges that Gaussian, Inc. is engaged in the
 business of creating and licensing software in the field of
 computational chemistry and represents and warrants to the
 licensee that it is not a competitor of Gaussian, Inc. and that
 it will not use this program in any manner prohibited above.
 ---------------------------------------------------------------
  

 Cite this work as:
 Gaussian 09, Revision D.01,
 M. J. Frisch, G. W. Trucks, H. B. Schlegel, G. E. Scuseria, 
 M. A. Robb, J. R. Cheeseman, G. Scalmani, V. Barone, B. Mennucci, 
 G. A. Petersson, H. Nakatsuji, M. Caricato, X. Li, H. P. Hratchian, 
 A. F. Izmaylov, J. Bloino, G. Zheng, J. L. Sonnenberg, M. Hada, 
 M. Ehara, K. Toyota, R. Fukuda, J. Hasegawa, M. Ishida, T. Nakajima, 
 Y. Honda, O. Kitao, H. Nakai, T. Vreven, J. A. Montgomery, Jr., 
 J. E. Peralta, F. Ogliaro, M. Bearpark, J. J. Heyd, E. Brothers, 
 K. N. Kudin, V. N. Staroverov, T. Keith, R. Kobayashi, J. Normand, 
 K. Raghavachari, A. Rendell, J. C. Burant, S. S. Iyengar, J. Tomasi, 
 M. Cossi, N. Rega, J. M. Millam, M. Klene, J. E. Knox, J. B. Cross, 
 V. Bakken, C. Adamo, J. Jaramillo, R. Gomperts, R. E. Stratmann, 
 O. Yazyev, A. J. Austin, R. Cammi, C. Pomelli, J. W. Ochterski, 
 R. L. Martin, K. Morokuma, V. G. Zakrzewski, G. A. Voth, 
 P. Salvador, J. J. Dannenberg, S. Dapprich, A. D. Daniels, 
 O. Farkas, J. B. Foresman, J. V. Ortiz, J. Cioslowski, 
 and D. J. Fox, Gaussian, Inc., Wallingford CT, 2013.
 
 ******************************************
 Gaussian 09:  ES64L-G09RevD.01 24-Apr-2013
                25-Mar-2021 
 ******************************************
 %NProcShared=20
 Will use up to   20 processors via shared memory.
 %mem=32GB
 %Chk=ethane_scan_rigid.chk
 ----------------------
 #n B3LYP/6-31G(d) Scan
 ----------------------
 1/38=1,60=1/1,8;
 2/12=2,17=6,18=5,29=3,40=1/2;
 3/5=1,6=6,7=1,11=2,16=1,25=1,30=1,74=-5/1,2,3;
 4//1;
 5/5=2,38=5/2;
 6/7=2,8=2,9=2,10=2,18=1,28=1/1;
 1/60=1/8(1);
 99/9=1/99;
 2/29=3/2;
 3/5=1,6=6,7=1,11=2,16=1,25=1,30=1,74=-5/1,2,3;
 4/5=5,16=3,69=1/1;
 5/5=2,38=5/2;
 1/60=1/8(-4);
 99/9=1/99;
 -----------------
 ethane_scan_rigid
 -----------------
 Symbolic Z-matrix:
 Charge =  0 Multiplicity = 1
 C
 C                    1    B1
 H                    2    B2       1    A2
 H                    2    B3       1    A3       3    D3       0
 H                    2    B4       1    A4       3    D4       0
 H                    1    B5       2    A5       3    D5       0
 H                    1    B6       2    A6       3    D6       0
 H                    1    B7       2    A7       3    D7       0
       Variables:
  B1                    1.53074Scan 3     0.1    
  B2                    1.09355                  
  A2                  111.35109                  
  B3                    1.09355                  
  A3                  111.35108                  
  D3                  240.00014                  
  B4                    1.09355                  
  A4                  111.35104                  
  D4                  120.00003                  
  B5                    1.09355                  
  A5                  111.35104                  
  D5                   59.99997                  
  B6                    1.09355                  
  A6                  111.35108                  
  D6                  299.99986                  
  B7                    1.09355                  
  A7                  111.35109                  
  D7                  180.                       
 
 Scan the potential surface.
 Variable   Value     No. Steps Step-Size
 -------- ----------- --------- ---------
     1       1.530740       3      0.1000
 A total of      4 points will be computed.
 ---------------------------------------------------------------------------------------------------
                            Z-MATRIX (ANGSTROMS AND DEGREES)
   CD    Cent   Atom    N1       Length/X        N2       Alpha/Y        N3        Beta/Z          J
 ---------------------------------------------------------------------------------------------------
      1      1  C 
      2      2  C        1   1.530740(     1)
      3      3  H        2   1.093550(     2)      1  111.351(     8)
      4      4  H        2   1.093550(     3)      1  111.351(     9)      3  240.000(    14)      0
      5      5  H        2   1.093550(     4)      1  111.351(    10)      3  120.000(    15)      0
      6      6  H        1   1.093550(     5)      2  111.351(    11)      3   60.000(    16)      0
      7      7  H        1   1.093550(     6)      2  111.351(    12)      3  300.000(    17)      0
      8      8  H        1   1.093550(     7)      2  111.351(    13)      3  180.000(    18)      0
 ---------------------------------------------------------------------------------------------------
                         Z-Matrix orientation:                         
 ---------------------------------------------------------------------
 Center     Atomic      Atomic             Coordinates (Angstroms)
 Number     Number       Type             X           Y           Z
 ---------------------------------------------------------------------
      1          6           0        0.000000    0.000000    0.000000
      2          6           0        0.000000    0.000000    1.530740
      3          1           0        1.018496    0.000000    1.928882
      4          1           0       -0.509246   -0.882045    1.928882
      5          1           0       -0.509249    0.882044    1.928881
      6          1           0        0.509249   -0.882044   -0.398141
      7          1           0        0.509246    0.882045   -0.398142
      8          1           0       -1.018496    0.000000   -0.398142
 ---------------------------------------------------------------------
                    Distance matrix (angstroms):
                    1          2          3          4          5
     1  C    0.000000
     2  C    1.530740   0.000000
     3  H    2.181266   1.093550   0.000000
     4  H    2.181265   1.093550   1.764086   0.000000
     5  H    2.181265   1.093550   1.764088   1.764089   0.000000
     6  H    1.093550   2.181265   2.540151   2.540151   3.092632
     7  H    1.093550   2.181265   2.540153   3.092633   2.540151
     8  H    1.093550   2.181266   3.092633   2.540153   2.540151
                    6          7          8
     6  H    0.000000
     7  H    1.764089   0.000000
     8  H    1.764088   1.764086   0.000000
 This structure is nearly, but not quite of a higher symmetry.
 Consider Symm=Loose if the higher symmetry is desired.
 Stoichiometry    C2H6
 Framework group  CI[X(C2H6)]
 Deg. of freedom     9
 Full point group                 CI      NOp   2
 Largest Abelian subgroup         CI      NOp   2
 Largest concise Abelian subgroup CI      NOp   2
                         Standard orientation:                         
 ---------------------------------------------------------------------
 Center     Atomic      Atomic             Coordinates (Angstroms)
 Number     Number       Type             X           Y           Z
 ---------------------------------------------------------------------
      1          6           0        0.000000    0.000000   -0.765370
      2          6           0        0.000000    0.000000    0.765370
      3          1           0        1.018496    0.000000    1.163512
      4          1           0       -0.509246   -0.882045    1.163512
      5          1           0       -0.509249    0.882044    1.163511
      6          1           0        0.509249   -0.882044   -1.163511
      7          1           0        0.509246    0.882045   -1.163512
      8          1           0       -1.018496    0.000000   -1.163512
 ---------------------------------------------------------------------
 Rotational constants (GHZ):     80.5678452     19.9113508     19.9113424
 Standard basis: 6-31G(d) (6D, 7F)
 There are    21 symmetry adapted cartesian basis functions of AG  symmetry.
 There are    21 symmetry adapted cartesian basis functions of AU  symmetry.
 There are    21 symmetry adapted basis functions of AG  symmetry.
 There are    21 symmetry adapted basis functions of AU  symmetry.
    42 basis functions,    80 primitive gaussians,    42 cartesian basis functions
     9 alpha electrons        9 beta electrons
       nuclear repulsion energy        42.1626319031 Hartrees.
 NAtoms=    8 NActive=    8 NUniq=    4 SFac= 4.00D+00 NAtFMM=   60 NAOKFM=F Big=F
 Integral buffers will be    131072 words long.
 Raffenetti 2 integral format.
 Two-electron integral symmetry is turned on.
 One-electron integrals computed using PRISM.
 NBasis=    42 RedAO= T EigKep=  5.98D-03  NBF=    21    21
 NBsUse=    42 1.00D-06 EigRej= -1.00D+00 NBFU=    21    21
 ExpMin= 1.61D-01 ExpMax= 3.05D+03 ExpMxC= 4.57D+02 IAcc=1 IRadAn=         1 AccDes= 0.00D+00
 Harris functional with IExCor=  402 and IRadAn=       1 diagonalized for initial guess.
 HarFok:  IExCor=  402 AccDes= 0.00D+00 IRadAn=         1 IDoV= 1 UseB2=F ITyADJ=14
 ICtDFT=  3500011 ScaDFX=  1.000000  1.000000  1.000000  1.000000
 FoFCou: FMM=F IPFlag=           0 FMFlag=      100000 FMFlg1=           0
         NFxFlg=           0 DoJE=T BraDBF=F KetDBF=T FulRan=T
         wScrn=  0.000000 ICntrl=     500 IOpCl=  0 I1Cent=   200000004 NGrid=           0
         NMat0=    1 NMatS0=      1 NMatT0=    0 NMatD0=    1 NMtDS0=    0 NMtDT0=    0
 Petite list used in FoFCou.
 Initial guess orbital symmetries:
       Occupied  (AG) (AU) (AG) (AU) (AU) (AU) (AG) (AG) (AG)
       Virtual   (AG) (AU) (AU) (AU) (AG) (AG) (AU) (AG) (AU) (AU)
                 (AU) (AG) (AG) (AU) (AU) (AG) (AG) (AG) (AU) (AG)
                 (AU) (AU) (AU) (AG) (AG) (AG) (AU) (AU) (AG) (AG)
                 (AU) (AG) (AU)
 The electronic state of the initial guess is 1-AG.
 Keep R1 ints in memory in symmetry-blocked form, NReq=1296204.
 Requested convergence on RMS density matrix=1.00D-08 within 128 cycles.
 Requested convergence on MAX density matrix=1.00D-06.
 Requested convergence on             energy=1.00D-06.
 No special actions if energy rises.
 Integral accuracy reduced to 1.0D-05 until final iterations.
 Initial convergence to 1.0D-05 achieved.  Increase integral accuracy.
 SCF Done:  E(RB3LYP) =  -79.8303924591     A.U. after    9 cycles
            NFock=  9  Conv=0.54D-08     -V/T= 2.0106

 **********************************************************************

            Population analysis using the SCF density.

 **********************************************************************

 Orbital symmetries:
       Occupied  (AG) (AU) (AG) (AU) (AU) (AU) (AG) (AG) (AG)
       Virtual   (AG) (AU) (AU) (AU) (AG) (AG) (AU) (AG) (AU) (AU)
                 (AG) (AG) (AU) (AU) (AU) (AG) (AG) (AG) (AU) (AG)
                 (AU) (AU) (AU) (AG) (AG) (AG) (AU) (AU) (AG) (AG)
                 (AU) (AG) (AU)
 The electronic state is 1-AG.
 Alpha  occ. eigenvalues --  -10.17147 -10.17126  -0.74781  -0.61277  -0.43047
 Alpha  occ. eigenvalues --   -0.43047  -0.36278  -0.34049  -0.34049
 Alpha virt. eigenvalues --    0.10530   0.15668   0.16472   0.16472   0.19081
 Alpha virt. eigenvalues --    0.19081   0.24268   0.51310   0.54303   0.54303
 Alpha virt. eigenvalues --    0.63613   0.63613   0.66884   0.88486   0.88486
 Alpha virt. eigenvalues --    0.90980   0.92140   0.92140   0.98241   1.06681
 Alpha virt. eigenvalues --    1.44007   1.52618   1.52618   1.93305   1.98148
 Alpha virt. eigenvalues --    1.98149   2.27425   2.27425   2.33579   2.33579
 Alpha virt. eigenvalues --    2.58751   4.14662   4.36703
          Condensed to atoms (all electrons):
               1          2          3          4          5          6
     1  C    5.011120   0.376658  -0.034525  -0.034523  -0.034523   0.383220
     2  C    0.376658   5.011120   0.383220   0.383220   0.383220  -0.034523
     3  H   -0.034525   0.383220   0.574283  -0.032493  -0.032492  -0.003639
     4  H   -0.034523   0.383220  -0.032493   0.574279  -0.032491  -0.003639
     5  H   -0.034523   0.383220  -0.032492  -0.032491   0.574279   0.004663
     6  H    0.383220  -0.034523  -0.003639  -0.003639   0.004663   0.574279
     7  H    0.383220  -0.034523  -0.003639   0.004663  -0.003639  -0.032491
     8  H    0.383220  -0.034525   0.004663  -0.003639  -0.003639  -0.032492
               7          8
     1  C    0.383220   0.383220
     2  C   -0.034523  -0.034525
     3  H   -0.003639   0.004663
     4  H    0.004663  -0.003639
     5  H   -0.003639  -0.003639
     6  H   -0.032491  -0.032492
     7  H    0.574279  -0.032493
     8  H   -0.032493   0.574283
 Mulliken charges:
               1
     1  C   -0.433868
     2  C   -0.433868
     3  H    0.144622
     4  H    0.144623
     5  H    0.144623
     6  H    0.144623
     7  H    0.144623
     8  H    0.144622
 Sum of Mulliken charges =   0.00000
 Mulliken charges with hydrogens summed into heavy atoms:
               1
     1  C    0.000000
     2  C    0.000000
 Electronic spatial extent (au):  <R**2>=            109.5103
 Charge=              0.0000 electrons
 Dipole moment (field-independent basis, Debye):
    X=              0.0000    Y=              0.0000    Z=              0.0000  Tot=              0.0000
 Quadrupole moment (field-independent basis, Debye-Ang):
   XX=            -14.7037   YY=            -14.7037   ZZ=            -15.2140
   XY=              0.0000   XZ=              0.0000   YZ=              0.0000
 Traceless Quadrupole moment (field-independent basis, Debye-Ang):
   XX=              0.1701   YY=              0.1701   ZZ=             -0.3402
   XY=              0.0000   XZ=              0.0000   YZ=              0.0000
 Octapole moment (field-independent basis, Debye-Ang**2):
  XXX=              0.0000  YYY=              0.0000  ZZZ=              0.0000  XYY=              0.0000
  XXY=              0.0000  XXZ=              0.0000  XZZ=              0.0000  YZZ=              0.0000
  YYZ=              0.0000  XYZ=              0.0000
 Hexadecapole moment (field-independent basis, Debye-Ang**3):
 XXXX=            -28.5520 YYYY=            -28.5519 ZZZZ=            -92.5425 XXXY=              0.0000
 XXXZ=              1.1863 YYYX=              0.0000 YYYZ=              0.0000 ZZZX=              0.0000
 ZZZY=              0.0000 XXYY=             -9.5173 XXZZ=            -19.1216 YYZZ=            -19.1216
 XXYZ=              0.0000 YYXZ=             -1.1864 ZZXY=              0.0000
 N-N= 4.216263190306D+01 E-N=-2.681459236893D+02  KE= 7.899473660313D+01
 Symmetry AG   KE= 4.101164285061D+01
 Symmetry AU   KE= 3.798309375252D+01
 Variable Step   Value    
 -------- ---- -----------
     1       1    3.081652
 ---------------------------------------------------------------------------------------------------
                            Z-MATRIX (ANGSTROMS AND DEGREES)
   CD    Cent   Atom    N1       Length/X        N2       Alpha/Y        N3        Beta/Z          J
 ---------------------------------------------------------------------------------------------------
      1      1  C 
      2      2  C        1   1.630740(     1)
      3      3  H        2   1.093550(     2)      1  111.351(     8)
      4      4  H        2   1.093550(     3)      1  111.351(     9)      3  240.000(    14)      0
      5      5  H        2   1.093550(     4)      1  111.351(    10)      3  120.000(    15)      0
      6      6  H        1   1.093550(     5)      2  111.351(    11)      3   60.000(    16)      0
      7      7  H        1   1.093550(     6)      2  111.351(    12)      3  300.000(    17)      0
      8      8  H        1   1.093550(     7)      2  111.351(    13)      3  180.000(    18)      0
 ---------------------------------------------------------------------------------------------------
                         Z-Matrix orientation:                         
 ---------------------------------------------------------------------
 Center     Atomic      Atomic             Coordinates (Angstroms)
 Number     Number       Type             X           Y           Z
 ---------------------------------------------------------------------
      1          6           0        0.000000    0.000000    0.000000
      2          6           0        0.000000    0.000000    1.630740
      3          1           0        1.018496    0.000000    2.028882
      4          1           0       -0.509246   -0.882045    2.028882
      5          1           0       -0.509249    0.882044    2.028881
      6          1           0        0.509249   -0.882044   -0.398141
      7          1           0        0.509246    0.882045   -0.398142
      8          1           0       -1.018496    0.000000   -0.398142
 ---------------------------------------------------------------------
                    Distance matrix (angstroms):
                    1          2          3          4          5
     1  C    0.000000
     2  C    1.630740   0.000000
     3  H    2.270175   1.093550   0.000000
     4  H    2.270175   1.093550   1.764086   0.000000
     5  H    2.270175   1.093550   1.764088   1.764089   0.000000
     6  H    1.093550   2.270175   2.632066   2.632066   3.168561
     7  H    1.093550   2.270175   2.632068   3.168561   2.632066
     8  H    1.093550   2.270175   3.168561   2.632068   2.632066
                    6          7          8
     6  H    0.000000
     7  H    1.764089   0.000000
     8  H    1.764088   1.764086   0.000000
 Stoichiometry    C2H6
 Framework group  CI[X(C2H6)]
 Deg. of freedom     9
 Full point group                 CI      NOp   2
 Largest Abelian subgroup         CI      NOp   2
 Largest concise Abelian subgroup CI      NOp   2
                         Standard orientation:                         
 ---------------------------------------------------------------------
 Center     Atomic      Atomic             Coordinates (Angstroms)
 Number     Number       Type             X           Y           Z
 ---------------------------------------------------------------------
      1          6           0        0.000000    0.000000   -0.815370
      2          6           0        0.000000    0.000000    0.815370
      3          1           0        1.018496    0.000000    1.213512
      4          1           0       -0.509246   -0.882045    1.213512
      5          1           0       -0.509249    0.882044    1.213511
      6          1           0        0.509249   -0.882044   -1.213511
      7          1           0        0.509246    0.882045   -1.213512
      8          1           0       -1.018496    0.000000   -1.213512
 ---------------------------------------------------------------------
 Rotational constants (GHZ):     80.5678452     18.0511665     18.0511597
 Standard basis: 6-31G(d) (6D, 7F)
 There are    21 symmetry adapted cartesian basis functions of AG  symmetry.
 There are    21 symmetry adapted cartesian basis functions of AU  symmetry.
 There are    21 symmetry adapted basis functions of AG  symmetry.
 There are    21 symmetry adapted basis functions of AU  symmetry.
    42 basis functions,    80 primitive gaussians,    42 cartesian basis functions
     9 alpha electrons        9 beta electrons
       nuclear repulsion energy        41.0014714779 Hartrees.
 NAtoms=    8 NActive=    8 NUniq=    4 SFac= 4.00D+00 NAtFMM=   60 NAOKFM=F Big=F
 Integral buffers will be    131072 words long.
 Raffenetti 2 integral format.
 Two-electron integral symmetry is turned on.
 One-electron integrals computed using PRISM.
 NBasis=    42 RedAO= T EigKep=  7.23D-03  NBF=    21    21
 NBsUse=    42 1.00D-06 EigRej= -1.00D+00 NBFU=    21    21
 Initial guess from the checkpoint file:  "ethane_scan_rigid.chk"
 B after Tr=     0.000000    0.000000    0.000000
         Rot=    1.000000    0.000000    0.000000    0.000000 Ang=   0.00 deg.
 Initial guess orbital symmetries:
       Occupied  (AG) (AU) (AG) (AU) (AU) (AU) (AG) (AG) (AG)
       Virtual   (AG) (AG) (AG) (AG) (AG) (AG) (AG) (AG) (AG) (AG)
                 (AG) (AG) (AG) (AG) (AG) (AG) (AU) (AU) (AU) (AU)
                 (AU) (AU) (AU) (AU) (AU) (AU) (AU) (AU) (AU) (AU)
                 (AU) (AU) (AU)
 ExpMin= 1.61D-01 ExpMax= 3.05D+03 ExpMxC= 4.57D+02 IAcc=1 IRadAn=         1 AccDes= 0.00D+00
 Harris functional with IExCor=  402 and IRadAn=       1 diagonalized for initial guess.
 HarFok:  IExCor=  402 AccDes= 0.00D+00 IRadAn=         1 IDoV= 1 UseB2=F ITyADJ=14
 ICtDFT=  3500011 ScaDFX=  1.000000  1.000000  1.000000  1.000000
 FoFCou: FMM=F IPFlag=           0 FMFlag=      100000 FMFlg1=           0
         NFxFlg=           0 DoJE=T BraDBF=F KetDBF=T FulRan=T
         wScrn=  0.000000 ICntrl=     500 IOpCl=  0 I1Cent=   200000004 NGrid=           0
         NMat0=    1 NMatS0=      1 NMatT0=    0 NMatD0=    1 NMtDS0=    0 NMtDT0=    0
 Petite list used in FoFCou.
 Keep R1 ints in memory in symmetry-blocked form, NReq=1296204.
 Requested convergence on RMS density matrix=1.00D-08 within 128 cycles.
 Requested convergence on MAX density matrix=1.00D-06.
 Requested convergence on             energy=1.00D-06.
 No special actions if energy rises.
 Integral accuracy reduced to 1.0D-05 until final iterations.
 Initial convergence to 1.0D-05 achieved.  Increase integral accuracy.
 SCF Done:  E(RB3LYP) =  -79.8259953607     A.U. after    9 cycles
            NFock=  9  Conv=0.69D-08     -V/T= 2.0123
 Variable Step   Value    
 -------- ---- -----------
     1       2    3.270625
 ---------------------------------------------------------------------------------------------------
                            Z-MATRIX (ANGSTROMS AND DEGREES)
   CD    Cent   Atom    N1       Length/X        N2       Alpha/Y        N3        Beta/Z          J
 ---------------------------------------------------------------------------------------------------
      1      1  C 
      2      2  C        1   1.730740(     1)
      3      3  H        2   1.093550(     2)      1  111.351(     8)
      4      4  H        2   1.093550(     3)      1  111.351(     9)      3  240.000(    14)      0
      5      5  H        2   1.093550(     4)      1  111.351(    10)      3  120.000(    15)      0
      6      6  H        1   1.093550(     5)      2  111.351(    11)      3   60.000(    16)      0
      7      7  H        1   1.093550(     6)      2  111.351(    12)      3  300.000(    17)      0
      8      8  H        1   1.093550(     7)      2  111.351(    13)      3  180.000(    18)      0
 ---------------------------------------------------------------------------------------------------
                         Z-Matrix orientation:                         
 ---------------------------------------------------------------------
 Center     Atomic      Atomic             Coordinates (Angstroms)
 Number     Number       Type             X           Y           Z
 ---------------------------------------------------------------------
      1          6           0        0.000000    0.000000    0.000000
      2          6           0        0.000000    0.000000    1.730740
      3          1           0        1.018496    0.000000    2.128882
      4          1           0       -0.509246   -0.882045    2.128882
      5          1           0       -0.509249    0.882044    2.128881
      6          1           0        0.509249   -0.882044   -0.398141
      7          1           0        0.509246    0.882045   -0.398142
      8          1           0       -1.018496    0.000000   -0.398142
 ---------------------------------------------------------------------
                    Distance matrix (angstroms):
                    1          2          3          4          5
     1  C    0.000000
     2  C    1.730740   0.000000
     3  H    2.359973   1.093550   0.000000
     4  H    2.359973   1.093550   1.764086   0.000000
     5  H    2.359972   1.093550   1.764088   1.764089   0.000000
     6  H    1.093550   2.359972   2.724551   2.724550   3.245794
     7  H    1.093550   2.359973   2.724552   3.245795   2.724550
     8  H    1.093550   2.359973   3.245795   2.724552   2.724551
                    6          7          8
     6  H    0.000000
     7  H    1.764089   0.000000
     8  H    1.764088   1.764086   0.000000
 Stoichiometry    C2H6
 Framework group  CI[X(C2H6)]
 Deg. of freedom     9
 Full point group                 CI      NOp   2
 Largest Abelian subgroup         CI      NOp   2
 Largest concise Abelian subgroup CI      NOp   2
                         Standard orientation:                         
 ---------------------------------------------------------------------
 Center     Atomic      Atomic             Coordinates (Angstroms)
 Number     Number       Type             X           Y           Z
 ---------------------------------------------------------------------
      1          6           0        0.000000    0.000000   -0.865370
      2          6           0        0.000000    0.000000    0.865370
      3          1           0        1.018496    0.000000    1.263512
      4          1           0       -0.509246   -0.882045    1.263512
      5          1           0       -0.509249    0.882044    1.263511
      6          1           0        0.509249   -0.882044   -1.263511
      7          1           0        0.509246    0.882045   -1.263512
      8          1           0       -1.018496    0.000000   -1.263512
 ---------------------------------------------------------------------
 Rotational constants (GHZ):     80.5678452     16.4282313     16.4282257
 Standard basis: 6-31G(d) (6D, 7F)
 There are    21 symmetry adapted cartesian basis functions of AG  symmetry.
 There are    21 symmetry adapted cartesian basis functions of AU  symmetry.
 There are    21 symmetry adapted basis functions of AG  symmetry.
 There are    21 symmetry adapted basis functions of AU  symmetry.
    42 basis functions,    80 primitive gaussians,    42 cartesian basis functions
     9 alpha electrons        9 beta electrons
       nuclear repulsion energy        39.9543253769 Hartrees.
 NAtoms=    8 NActive=    8 NUniq=    4 SFac= 4.00D+00 NAtFMM=   60 NAOKFM=F Big=F
 Integral buffers will be    131072 words long.
 Raffenetti 2 integral format.
 Two-electron integral symmetry is turned on.
 One-electron integrals computed using PRISM.
 NBasis=    42 RedAO= T EigKep=  8.43D-03  NBF=    21    21
 NBsUse=    42 1.00D-06 EigRej= -1.00D+00 NBFU=    21    21
 Initial guess from the checkpoint file:  "ethane_scan_rigid.chk"
 B after Tr=     0.000000    0.000000    0.000000
         Rot=    1.000000    0.000000    0.000000    0.000000 Ang=   0.00 deg.
 Initial guess orbital symmetries:
       Occupied  (AG) (AU) (AG) (AU) (AU) (AU) (AG) (AG) (AG)
       Virtual   (AG) (AG) (AG) (AG) (AG) (AG) (AG) (AG) (AG) (AG)
                 (AG) (AG) (AG) (AG) (AG) (AG) (AU) (AU) (AU) (AU)
                 (AU) (AU) (AU) (AU) (AU) (AU) (AU) (AU) (AU) (AU)
                 (AU) (AU) (AU)
 ExpMin= 1.61D-01 ExpMax= 3.05D+03 ExpMxC= 4.57D+02 IAcc=1 IRadAn=         1 AccDes= 0.00D+00
 Harris functional with IExCor=  402 and IRadAn=       1 diagonalized for initial guess.
 HarFok:  IExCor=  402 AccDes= 0.00D+00 IRadAn=         1 IDoV= 1 UseB2=F ITyADJ=14
 ICtDFT=  3500011 ScaDFX=  1.000000  1.000000  1.000000  1.000000
 FoFCou: FMM=F IPFlag=           0 FMFlag=      100000 FMFlg1=           0
         NFxFlg=           0 DoJE=T BraDBF=F KetDBF=T FulRan=T
         wScrn=  0.000000 ICntrl=     500 IOpCl=  0 I1Cent=   200000004 NGrid=           0
         NMat0=    1 NMatS0=      1 NMatT0=    0 NMatD0=    1 NMtDS0=    0 NMtDT0=    0
 Petite list used in FoFCou.
 Keep R1 ints in memory in symmetry-blocked form, NReq=1296204.
 Requested convergence on RMS density matrix=1.00D-08 within 128 cycles.
 Requested convergence on MAX density matrix=1.00D-06.
 Requested convergence on             energy=1.00D-06.
 No special actions if energy rises.
 Integral accuracy reduced to 1.0D-05 until final iterations.
 Initial convergence to 1.0D-05 achieved.  Increase integral accuracy.
 SCF Done:  E(RB3LYP) =  -79.8153197697     A.U. after    9 cycles
            NFock=  9  Conv=0.88D-08     -V/T= 2.0135
 Variable Step   Value    
 -------- ---- -----------
     1       3    3.459597
 ---------------------------------------------------------------------------------------------------
                            Z-MATRIX (ANGSTROMS AND DEGREES)
   CD    Cent   Atom    N1       Length/X        N2       Alpha/Y        N3        Beta/Z          J
 ---------------------------------------------------------------------------------------------------
      1      1  C 
      2      2  C        1   1.830740(     1)
      3      3  H        2   1.093550(     2)      1  111.351(     8)
      4      4  H        2   1.093550(     3)      1  111.351(     9)      3  240.000(    14)      0
      5      5  H        2   1.093550(     4)      1  111.351(    10)      3  120.000(    15)      0
      6      6  H        1   1.093550(     5)      2  111.351(    11)      3   60.000(    16)      0
      7      7  H        1   1.093550(     6)      2  111.351(    12)      3  300.000(    17)      0
      8      8  H        1   1.093550(     7)      2  111.351(    13)      3  180.000(    18)      0
 ---------------------------------------------------------------------------------------------------
                         Z-Matrix orientation:                         
 ---------------------------------------------------------------------
 Center     Atomic      Atomic             Coordinates (Angstroms)
 Number     Number       Type             X           Y           Z
 ---------------------------------------------------------------------
      1          6           0        0.000000    0.000000    0.000000
      2          6           0        0.000000    0.000000    1.830740
      3          1           0        1.018496    0.000000    2.228882
      4          1           0       -0.509246   -0.882045    2.228882
      5          1           0       -0.509249    0.882044    2.228881
      6          1           0        0.509249   -0.882044   -0.398141
      7          1           0        0.509246    0.882045   -0.398142
      8          1           0       -1.018496    0.000000   -0.398142
 ---------------------------------------------------------------------
                    Distance matrix (angstroms):
                    1          2          3          4          5
     1  C    0.000000
     2  C    1.830740   0.000000
     3  H    2.450561   1.093550   0.000000
     4  H    2.450561   1.093550   1.764086   0.000000
     5  H    2.450560   1.093550   1.764088   1.764089   0.000000
     6  H    1.093550   2.450560   2.817549   2.817548   3.324242
     7  H    1.093550   2.450561   2.817550   3.324243   2.817548
     8  H    1.093550   2.450561   3.324243   2.817550   2.817549
                    6          7          8
     6  H    0.000000
     7  H    1.764089   0.000000
     8  H    1.764088   1.764086   0.000000
 Stoichiometry    C2H6
 Framework group  CI[X(C2H6)]
 Deg. of freedom     9
 Full point group                 CI      NOp   2
 Largest Abelian subgroup         CI      NOp   2
 Largest concise Abelian subgroup CI      NOp   2
                         Standard orientation:                         
 ---------------------------------------------------------------------
 Center     Atomic      Atomic             Coordinates (Angstroms)
 Number     Number       Type             X           Y           Z
 ---------------------------------------------------------------------
      1          6           0        0.000000    0.000000   -0.915370
      2          6           0        0.000000    0.000000    0.915370
      3          1           0        1.018496    0.000000    1.313512
      4          1           0       -0.509246   -0.882045    1.313512
      5          1           0       -0.509249    0.882044    1.313511
      6          1           0        0.509249   -0.882044   -1.313511
      7          1           0        0.509246    0.882045   -1.313512
      8          1           0       -1.018496    0.000000   -1.313512
 ---------------------------------------------------------------------
 Rotational constants (GHZ):     80.5678452     15.0058132     15.0058085
 Standard basis: 6-31G(d) (6D, 7F)
 There are    21 symmetry adapted cartesian basis functions of AG  symmetry.
 There are    21 symmetry adapted cartesian basis functions of AU  symmetry.
 There are    21 symmetry adapted basis functions of AG  symmetry.
 There are    21 symmetry adapted basis functions of AU  symmetry.
    42 basis functions,    80 primitive gaussians,    42 cartesian basis functions
     9 alpha electrons        9 beta electrons
       nuclear repulsion energy        39.0046805870 Hartrees.
 NAtoms=    8 NActive=    8 NUniq=    4 SFac= 4.00D+00 NAtFMM=   60 NAOKFM=F Big=F
 Integral buffers will be    131072 words long.
 Raffenetti 2 integral format.
 Two-electron integral symmetry is turned on.
 One-electron integrals computed using PRISM.
 NBasis=    42 RedAO= T EigKep=  9.52D-03  NBF=    21    21
 NBsUse=    42 1.00D-06 EigRej= -1.00D+00 NBFU=    21    21
 Initial guess from the checkpoint file:  "ethane_scan_rigid.chk"
 B after Tr=     0.000000    0.000000    0.000000
         Rot=    1.000000    0.000000    0.000000    0.000000 Ang=   0.00 deg.
 Initial guess orbital symmetries:
       Occupied  (AG) (AU) (AG) (AU) (AU) (AU) (AG) (AG) (AG)
       Virtual   (AG) (AG) (AG) (AG) (AG) (AG) (AG) (AG) (AG) (AG)
                 (AG) (AG) (AG) (AG) (AG) (AG) (AU) (AU) (AU) (AU)
                 (AU) (AU) (AU) (AU) (AU) (AU) (AU) (AU) (AU) (AU)
                 (AU) (AU) (AU)
 ExpMin= 1.61D-01 ExpMax= 3.05D+03 ExpMxC= 4.57D+02 IAcc=1 IRadAn=         1 AccDes= 0.00D+00
 Harris functional with IExCor=  402 and IRadAn=       1 diagonalized for initial guess.
 HarFok:  IExCor=  402 AccDes= 0.00D+00 IRadAn=         1 IDoV= 1 UseB2=F ITyADJ=14
 ICtDFT=  3500011 ScaDFX=  1.000000  1.000000  1.000000  1.000000
 FoFCou: FMM=F IPFlag=           0 FMFlag=      100000 FMFlg1=           0
         NFxFlg=           0 DoJE=T BraDBF=F KetDBF=T FulRan=T
         wScrn=  0.000000 ICntrl=     500 IOpCl=  0 I1Cent=   200000004 NGrid=           0
         NMat0=    1 NMatS0=      1 NMatT0=    0 NMatD0=    1 NMtDS0=    0 NMtDT0=    0
 Petite list used in FoFCou.
 Keep R1 ints in memory in symmetry-blocked form, NReq=1296204.
 Requested convergence on RMS density matrix=1.00D-08 within 128 cycles.
 Requested convergence on MAX density matrix=1.00D-06.
 Requested convergence on             energy=1.00D-06.
 No special actions if energy rises.
 Integral accuracy reduced to 1.0D-05 until final iterations.
 Initial convergence to 1.0D-05 achieved.  Increase integral accuracy.
 SCF Done:  E(RB3LYP) =  -79.8011213802     A.U. after   10 cycles
            NFock= 10  Conv=0.88D-09     -V/T= 2.0142
 Scan completed.

 Summary of the potential surface scan:
   N      B1          SCF    
 ----  ---------  -----------
    1     1.5307    -79.83039
    2     1.6307    -79.82600
    3     1.7307    -79.81532
    4     1.8307    -79.80112
 ----  ---------  -----------
  
 1\1\GINC-CPU-G-18\Scan\RB3LYP\6-31G(d)\C2H6\AM2145\25-Mar-2021\1\\#n B
 3LYP/6-31G(d) Scan\\ethane_scan_rigid\\0,1\C\C,1,B1\H,2,B2,1,A2\H,2,B3
 ,1,A3,3,D3,0\H,2,B4,1,A4,3,D4,0\H,1,B5,2,A5,3,D5,0\H,1,B6,2,A6,3,D6,0\
 H,1,B7,2,A7,3,D7,0\\B1=1.53074,s,3,0.1\B2=1.09355\A2=111.35109\B3=1.09
 355\A3=111.35108\D3=240.00014\B4=1.09355\A4=111.35104\D4=120.00003\B5=
 1.09355\A5=111.35104\D5=59.99997\B6=1.09355\A6=111.35108\D6=299.99986\
 B7=1.09355\A7=111.35109\D7=180.\\Version=ES64L-G09RevD.01\HF=-79.83039
 25,-79.8259954,-79.8153198,-79.8011214\RMSD=5.385e-09,6.945e-09,8.799e
 -09,8.761e-10\PG=CI [X(C2H6)]\\@


 Time has a wonderful way of weeding out the trivial.
                                -- Richard Ben Sapir
 Job cpu time:       0 days  0 hours  7 minutes 45.7 seconds.
 File lengths (MBytes):  RWF=      5 Int=      0 D2E=      0 Chk=      1 Scr=      1
 Normal termination of Gaussian 09 at Thu Mar 25 19:05:15 2021.
