 Entering Gaussian System, Link 0=g03
 Input=Geometry-21.gau
 Output=Geometry-21.log
 Initial command:
 /opt//g03/l1.exe /scratch/Gau-19359.inp -scrdir=/scratch/
 Entering Link 1 = /opt//g03/l1.exe PID=     19378.
  
 Copyright (c) 1988,1990,1992,1993,1995,1998,2003,2004,2007, Gaussian, Inc.
                  All Rights Reserved.
  
 This is the Gaussian(R) 03 program.  It is based on the
 the Gaussian(R) 98 system (copyright 1998, Gaussian, Inc.),
 the Gaussian(R) 94 system (copyright 1995, Gaussian, Inc.),
 the Gaussian 92(TM) system (copyright 1992, Gaussian, Inc.),
 the Gaussian 90(TM) system (copyright 1990, Gaussian, Inc.),
 the Gaussian 88(TM) system (copyright 1988, Gaussian, Inc.),
 the Gaussian 86(TM) system (copyright 1986, Carnegie Mellon
 University), and the Gaussian 82(TM) system (copyright 1983,
 Carnegie Mellon University). Gaussian is a federally registered
 trademark of Gaussian, Inc.
  
 This software contains proprietary and confidential information,
 including trade secrets, belonging to Gaussian, Inc.
  
 This software is provided under written license and may be
 used, copied, transmitted, or stored only in accord with that
 written license.
  
 The following legend is applicable only to US Government
 contracts under FAR:
  
                    RESTRICTED RIGHTS LEGEND
  
 Use, reproduction and disclosure by the US Government is
 subject to restrictions as set forth in subparagraphs (a)
 and (c) of the Commercial Computer Software - Restricted
 Rights clause in FAR 52.227-19.
  
 Gaussian, Inc.
 340 Quinnipiac St., Bldg. 40, Wallingford CT 06492
  
  
 ---------------------------------------------------------------
 Warning -- This program may not be used in any manner that
 competes with the business of Gaussian, Inc. or will provide
 assistance to any competitor of Gaussian, Inc.  The licensee
 of this program is prohibited from giving any competitor of
 Gaussian, Inc. access to this program.  By using this program,
 the user acknowledges that Gaussian, Inc. is engaged in the
 business of creating and licensing software in the field of
 computational chemistry and represents and warrants to the
 licensee that it is not a competitor of Gaussian, Inc. and that
 it will not use this program in any manner prohibited above.
 ---------------------------------------------------------------
  

 Cite this work as:
 Gaussian 03, Revision E.01,
 M. J. Frisch, G. W. Trucks, H. B. Schlegel, G. E. Scuseria, 
 M. A. Robb, J. R. Cheeseman, J. A. Montgomery, Jr., T. Vreven, 
 K. N. Kudin, J. C. Burant, J. M. Millam, S. S. Iyengar, J. Tomasi, 
 V. Barone, B. Mennucci, M. Cossi, G. Scalmani, N. Rega, 
 G. A. Petersson, H. Nakatsuji, M. Hada, M. Ehara, K. Toyota, 
 R. Fukuda, J. Hasegawa, M. Ishida, T. Nakajima, Y. Honda, O. Kitao, 
 H. Nakai, M. Klene, X. Li, J. E. Knox, H. P. Hratchian, J. B. Cross, 
 V. Bakken, C. Adamo, J. Jaramillo, R. Gomperts, R. E. Stratmann, 
 O. Yazyev, A. J. Austin, R. Cammi, C. Pomelli, J. W. Ochterski, 
 P. Y. Ayala, K. Morokuma, G. A. Voth, P. Salvador, J. J. Dannenberg, 
 V. G. Zakrzewski, S. Dapprich, A. D. Daniels, M. C. Strain, 
 O. Farkas, D. K. Malick, A. D. Rabuck, K. Raghavachari, 
 J. B. Foresman, J. V. Ortiz, Q. Cui, A. G. Baboul, S. Clifford, 
 J. Cioslowski, B. B. Stefanov, G. Liu, A. Liashenko, P. Piskorz, 
 I. Komaromi, R. L. Martin, D. J. Fox, T. Keith, M. A. Al-Laham, 
 C. Y. Peng, A. Nanayakkara, M. Challacombe, P. M. W. Gill, 
 B. Johnson, W. Chen, M. W. Wong, C. Gonzalez, and J. A. Pople, 
 Gaussian, Inc., Wallingford CT, 2004.
 
 ******************************************
 Gaussian 03:  AM64L-G03RevE.01 11-Sep-2007
                26-Mar-2009 
 ******************************************
 %NProcShared=2
 Will use up to    2 processors via shared memory.
 ----------------------------------------------------------------------
 #p uB971/6-311+G(d,p) opt=(Tight, NewEstmFC, MaxCyc = 200) freq #GFInp
 ut Population=Regular #Integral(Grid=UltraFine)
 ----------------------------------------------------------------------
 1/6=200,7=10,10=7,14=-1,18=20,26=3,38=1/1,3;
 2/9=110,17=6,18=5,40=1/2;
 3/5=4,6=6,7=111,11=2,16=1,24=10,25=1,30=1,74=-20,75=5/1,2,3;
 4/7=2/1;
 5/5=2,38=5/2;
 6/28=1/1;
 7/29=1/1,2,3,16;
 1/6=200,10=7,14=-1,18=20/3(3);
 2/9=110/2;
 6/19=2,28=1/1;
 99//99;
 2/9=110/2;
 3/5=4,6=6,7=111,11=2,16=1,25=1,30=1,74=-20,75=5/1,2,3;
 4/5=5,7=2,16=3/1;
 5/5=2,38=5/2;
 7//1,2,3,16;
 1/6=200,14=-1,18=20/3(-5);
 2/9=110/2;
 6/19=2,28=1/1;
 99/9=1/99;
 Leave Link    1 at Thu Mar 26 18:14:19 2009, MaxMem=          0 cpu:       0.2
 (Enter /opt//g03/l101.exe)
 ---------------------------
 #NewComb uB971/6-311+G(d,p)
 ---------------------------
 Symbolic Z-matrix:
 Charge =  0 Multiplicity = 1
 Si                    0.        0.        0. 
 O                     0.        0.        1.51637 
 O                     0.        0.       -1.51637 
 
                    Isotopes and Nuclear Properties:
 (Nuclear quadrupole moments (NQMom) in fm**2, nuclear magnetic moments (NMagM)
  in nuclear magnetons)

  Atom         1           2           3
 IAtWgt=          28          16          16
 AtmWgt=  27.9769284  15.9949146  15.9949146
 NucSpn=           0           0           0
 AtZEff=   0.0000000   0.0000000   0.0000000
 NQMom=    0.0000000   0.0000000   0.0000000
 NMagM=    0.0000000   0.0000000   0.0000000
 Leave Link  101 at Thu Mar 26 18:14:19 2009, MaxMem=    6291456 cpu:       0.1
 (Enter /opt//g03/l103.exe)

 GradGradGradGradGradGradGradGradGradGradGradGradGradGradGradGradGradGrad
 Berny optimization.
 Initialization pass.
                           ----------------------------
                           !    Initial Parameters    !
                           ! (Angstroms and Degrees)  !
 --------------------------                            --------------------------
 ! Name  Definition              Value          Derivative Info.                !
 --------------------------------------------------------------------------------
 ! R1    R(1,2)                  1.5164         estimate D2E/DX2                !
 ! R2    R(1,3)                  1.5164         estimate D2E/DX2                !
 ! A1    L(2,1,3,-1,-1)        180.0            estimate D2E/DX2                !
 ! A2    L(2,1,3,-2,-2)        180.0            estimate D2E/DX2                !
 --------------------------------------------------------------------------------
 Trust Radius=3.00D-01 FncErr=1.00D-07 GrdErr=1.00D-06
 Number of steps in this run= 100 maximum allowed number of steps= 100.
 GradGradGradGradGradGradGradGradGradGradGradGradGradGradGradGradGradGrad

 Leave Link  103 at Thu Mar 26 18:14:19 2009, MaxMem=    6291456 cpu:       0.0
 (Enter /opt//g03/l202.exe)
                          Input orientation:                          
 ---------------------------------------------------------------------
 Center     Atomic     Atomic              Coordinates (Angstroms)
 Number     Number      Type              X           Y           Z
 ---------------------------------------------------------------------
    1         14             0        0.000000    0.000000    0.000000
    2          8             0        0.000000    0.000000    1.516370
    3          8             0        0.000000    0.000000   -1.516370
 ---------------------------------------------------------------------
                    Distance matrix (angstroms):
                    1          2          3
     1  Si   0.000000
     2  O    1.516370   0.000000
     3  O    1.516370   3.032740   0.000000
 Stoichiometry    O2Si
 Framework group  D*H[O(Si),C*(O.O)]
 Deg. of freedom     1
 Full point group                 D*H
 Largest Abelian subgroup         D2H     NOp   8
 Largest concise Abelian subgroup C2      NOp   2
                         Standard orientation:                         
 ---------------------------------------------------------------------
 Center     Atomic     Atomic              Coordinates (Angstroms)
 Number     Number      Type              X           Y           Z
 ---------------------------------------------------------------------
    1         14             0        0.000000    0.000000    0.000000
    2          8             0        0.000000    0.000000    1.516370
    3          8             0        0.000000    0.000000   -1.516370
 ---------------------------------------------------------------------
 Rotational constants (GHZ):      0.0000000      6.8706038      6.8706038
 Leave Link  202 at Thu Mar 26 18:14:19 2009, MaxMem=    6291456 cpu:       0.1
 (Enter /opt//g03/l301.exe)
 Standard basis: 6-311+G(d,p) (5D, 7F)
 AO basis set in the form of general basis input:
      1 0
 S   6 1.00       0.000000000000
      0.6937923000D+05  0.7570004081D-03
      0.1035494000D+05  0.5932003198D-02
      0.2333879600D+04  0.3108801676D-01
      0.6571429500D+03  0.1249670674D+00
      0.2143011300D+03  0.3868972086D+00
      0.7762916800D+02  0.5548882991D+00
 S   3 1.00       0.000000000000
      0.7762916800D+02  0.1778809451D+00
      0.3063080700D+02  0.6277648062D+00
      0.1280129500D+02  0.2476229236D+00
 S   1 1.00       0.000000000000
      0.3926866000D+01  0.1000000000D+01
 S   1 1.00       0.000000000000
      0.1452343000D+01  0.1000000000D+01
 S   1 1.00       0.000000000000
      0.2562340000D+00  0.1000000000D+01
 S   1 1.00       0.000000000000
      0.9427900000D-01  0.1000000000D+01
 P   4 1.00       0.000000000000
      0.3354831900D+03  0.8865998148D-02
      0.7890036600D+02  0.6829898573D-01
      0.2498815000D+02  0.2909579392D+00
      0.9219711000D+01  0.7321168470D+00
 P   2 1.00       0.000000000000
      0.3621140000D+01  0.6198794404D+00
      0.1451310000D+01  0.4391483120D+00
 P   1 1.00       0.000000000000
      0.5049770000D+00  0.1000000000D+01
 P   1 1.00       0.000000000000
      0.1863170000D+00  0.1000000000D+01
 P   1 1.00       0.000000000000
      0.6543200000D-01  0.1000000000D+01
 SP   1 1.00       0.000000000000
      0.3310000000D-01  0.1000000000D+01  0.1000000000D+01
 D   1 1.00       0.000000000000
      0.4500000000D+00  0.1000000000D+01
 ****
      2 0
 S   6 1.00       0.000000000000
      0.8588500000D+04  0.1895150083D-02
      0.1297230000D+04  0.1438590063D-01
      0.2992960000D+03  0.7073200310D-01
      0.8737710000D+02  0.2400010105D+00
      0.2567890000D+02  0.5947970261D+00
      0.3740040000D+01  0.2808020123D+00
 SP   3 1.00       0.000000000000
      0.4211750000D+02  0.1138890124D+00  0.3651139738D-01
      0.9628370000D+01  0.9208111006D+00  0.2371529830D+00
      0.2853320000D+01 -0.3274470358D-02  0.8197019412D+00
 SP   1 1.00       0.000000000000
      0.9056610000D+00  0.1000000000D+01  0.1000000000D+01
 SP   1 1.00       0.000000000000
      0.2556110000D+00  0.1000000000D+01  0.1000000000D+01
 SP   1 1.00       0.000000000000
      0.8450000000D-01  0.1000000000D+01  0.1000000000D+01
 D   1 1.00       0.000000000000
      0.1292000000D+01  0.1000000000D+01
 ****
      3 0
 S   6 1.00       0.000000000000
      0.8588500000D+04  0.1895150083D-02
      0.1297230000D+04  0.1438590063D-01
      0.2992960000D+03  0.7073200310D-01
      0.8737710000D+02  0.2400010105D+00
      0.2567890000D+02  0.5947970261D+00
      0.3740040000D+01  0.2808020123D+00
 SP   3 1.00       0.000000000000
      0.4211750000D+02  0.1138890124D+00  0.3651139738D-01
      0.9628370000D+01  0.9208111006D+00  0.2371529830D+00
      0.2853320000D+01 -0.3274470358D-02  0.8197019412D+00
 SP   1 1.00       0.000000000000
      0.9056610000D+00  0.1000000000D+01  0.1000000000D+01
 SP   1 1.00       0.000000000000
      0.2556110000D+00  0.1000000000D+01  0.1000000000D+01
 SP   1 1.00       0.000000000000
      0.8450000000D-01  0.1000000000D+01  0.1000000000D+01
 D   1 1.00       0.000000000000
      0.1292000000D+01  0.1000000000D+01
 ****

 There are    20 symmetry adapted basis functions of AG  symmetry.
 There are     2 symmetry adapted basis functions of B1G symmetry.
 There are     6 symmetry adapted basis functions of B2G symmetry.
 There are     6 symmetry adapted basis functions of B3G symmetry.
 There are     1 symmetry adapted basis functions of AU  symmetry.
 There are    17 symmetry adapted basis functions of B1U symmetry.
 There are    11 symmetry adapted basis functions of B2U symmetry.
 There are    11 symmetry adapted basis functions of B3U symmetry.
 Integral buffers will be    131072 words long.
 Raffenetti 2 integral format.
 Two-electron integral symmetry is turned on.
    74 basis functions,   122 primitive gaussians,    77 cartesian basis functions
    15 alpha electrons       15 beta electrons
       nuclear repulsion energy        89.3379355466 Hartrees.
 IExCor=1614 DFT=T Ex=B97-1+HF Corr=B97-1 ExCW=0 ScaHFX=  0.210000
 ScaDFX=  1.000000  1.000000  1.000000  1.000000
 IRadAn=      5 IRanWt=     -1 IRanGd=            0 ICorTp=0
 NAtoms=    3 NActive=    3 NUniq=    2 SFac= 1.69D+00 NAtFMM=   80 NAOKFM=F Big=F
 Leave Link  301 at Thu Mar 26 18:14:19 2009, MaxMem=    6291456 cpu:       0.0
 (Enter /opt//g03/l302.exe)
 NPDir=0 NMtPBC=     1 NCelOv=     1 NCel=       1 NClECP=     1 NCelD=      1
         NCelK=      1 NCelE2=     1 NClLst=     1 CellRange=     0.0.
 One-electron integrals computed using PRISM.
 One-electron integral symmetry used in STVInt
 NBasis=    74 RedAO= T  NBF=    20     2     6     6     1    17    11    11
 NBsUse=    74 1.00D-06 NBFU=    20     2     6     6     1    17    11    11
 Precomputing XC quadrature grid using
 IXCGrd= 2 IRadAn=           5 IRanWt=          -1 IRanGd=           0.
 NRdTot=     251 NPtTot=       67120 NUsed=       68890 NTot=       68922
 NSgBfM=    77    77    77    77.
 Leave Link  302 at Thu Mar 26 18:14:19 2009, MaxMem=    6291456 cpu:       0.2
 (Enter /opt//g03/l303.exe)
 DipDrv:  MaxL=1.
 Leave Link  303 at Thu Mar 26 18:14:20 2009, MaxMem=    6291456 cpu:       0.0
 (Enter /opt//g03/l401.exe)
 Harris functional with IExCor= 1614 diagonalized for initial guess.
 ExpMin= 3.31D-02 ExpMax= 6.94D+04 ExpMxC= 2.33D+03 IAcc=3 IRadAn=         5 AccDes= 0.00D+00
 HarFok:  IExCor=1614 AccDes= 0.00D+00 IRadAn=         5 IDoV=1
 ScaDFX=  1.000000  1.000000  1.000000  1.000000
 Harris En= -432.311925120193    
 Initial guess orbital symmetries:
 Alpha Orbitals:
       Occupied  (SGG) (SGU) (SGG) (SGG) (SGU) (PIU) (PIU) (SGG)
                 (SGU) (SGG) (SGU) (PIU) (PIU) (PIG) (PIG)
       Virtual   (SGG) (PIU) (PIU) (SGU) (SGG) (PIU) (PIU) (SGG)
                 (SGU) (PIG) (PIG) (SGU) (PIU) (PIU) (PIU) (PIU)
                 (SGG) (SGU) (SGG) (DLTG) (DLTG) (SGU) (PIG) (PIG)
                 (SGG) (PIG) (PIG) (SGU) (PIU) (PIU) (PIU) (PIU)
                 (SGU) (SGG) (SGG) (SGU) (DLTU) (DLTU) (DLTG) (DLTG)
                 (PIU) (PIU) (PIG) (PIG) (SGU) (SGG) (PIG) (PIG)
                 (PIU) (PIU) (SGU) (SGG) (SGG) (PIU) (PIU) (SGU)
                 (SGG) (SGU) (SGG)
 Beta  Orbitals:
       Occupied  (SGG) (SGU) (SGG) (SGG) (SGU) (PIU) (PIU) (SGG)
                 (SGU) (SGG) (SGU) (PIU) (PIU) (PIG) (PIG)
       Virtual   (SGG) (PIU) (PIU) (SGU) (SGG) (PIU) (PIU) (SGG)
                 (SGU) (PIG) (PIG) (SGU) (PIU) (PIU) (PIU) (PIU)
                 (SGG) (SGU) (SGG) (DLTG) (DLTG) (SGU) (PIG) (PIG)
                 (SGG) (PIG) (PIG) (SGU) (PIU) (PIU) (PIU) (PIU)
                 (SGU) (SGG) (SGG) (SGU) (DLTU) (DLTU) (DLTG) (DLTG)
                 (PIU) (PIU) (PIG) (PIG) (SGU) (SGG) (PIG) (PIG)
                 (PIU) (PIU) (SGU) (SGG) (SGG) (PIU) (PIU) (SGU)
                 (SGG) (SGU) (SGG)
 The electronic state of the initial guess is 1-SGG.
 <S**2> of initial guess= 0.0000
 Leave Link  401 at Thu Mar 26 18:14:20 2009, MaxMem=    6291456 cpu:       0.2
 (Enter /opt//g03/l502.exe)
 UHF open shell SCF:
 Requested convergence on RMS density matrix=1.00D-08 within 128 cycles.
 Requested convergence on MAX density matrix=1.00D-06.
 Requested convergence on             energy=1.00D-06.
 No special actions if energy rises.
 Using DIIS extrapolation, IDIIS=  1040.
 Integral symmetry usage will be decided dynamically.
        68889 words used for storage of precomputed grid.
 IEnd=    107911 IEndB=    107911 NGot=   6291456 MDV=   6206192
 LenX=   6206192
 Fock matrices will be formed incrementally for  20 cycles.

 Cycle   1  Pass 1  IDiag  1:
 Petite list used in FoFDir.
 MinBra= 0 MaxBra= 2 Meth= 1.
 IRaf=       0 NMat=   1 IRICut=       1 DoRegI=T DoRafI=F ISym2E= 1 JSym2E=1.
 E= -439.817950659235    
 DIIS: error= 1.48D-01 at cycle   1 NSaved=   1.
 NSaved= 1 IEnMin= 1 EnMin= -439.817950659235     IErMin= 1 ErrMin= 1.48D-01
 ErrMax= 1.48D-01 EMaxC= 1.00D-01 BMatC= 3.12D+00 BMatP= 3.12D+00
 IDIUse=3 WtCom= 0.00D+00 WtEn= 1.00D+00
 Coeff-Com:  0.100D+01
 Coeff-En:   0.100D+01
 Coeff:      0.100D+01
 Gap=     0.167 Goal=   None    Shift=    0.000
 Gap=     0.167 Goal=   None    Shift=    0.000
 GapD=    0.167 DampG=1.000 DampE=0.250 DampFc=0.2500 IDamp=-1.
 Damping current iteration by 2.50D-01
 RMSDP=8.93D-03 MaxDP=2.65D-01              OVMax= 2.02D-01

 Cycle   2  Pass 1  IDiag  1:
 RMSU=  2.23D-03    CP:  1.00D+00
 E= -439.849771074792     Delta-E=       -0.031820415557 Rises=F Damp=T
 DIIS: error= 9.75D-02 at cycle   2 NSaved=   2.
 NSaved= 2 IEnMin= 2 EnMin= -439.849771074792     IErMin= 2 ErrMin= 9.75D-02
 ErrMax= 9.75D-02 EMaxC= 1.00D-01 BMatC= 1.45D+00 BMatP= 3.12D+00
 IDIUse=3 WtCom= 2.48D-02 WtEn= 9.75D-01
 Coeff-Com: -0.166D+01 0.266D+01
 Coeff-En:   0.000D+00 0.100D+01
 Coeff:     -0.411D-01 0.104D+01
 Gap=     0.209 Goal=   None    Shift=    0.000
 Gap=     0.209 Goal=   None    Shift=    0.000
 RMSDP=3.70D-03 MaxDP=8.70D-02 DE=-3.18D-02 OVMax= 1.11D-01

 Cycle   3  Pass 1  IDiag  1:
 RMSU=  1.94D-03    CP:  9.98D-01  2.41D+00
 E= -439.912240598529     Delta-E=       -0.062469523738 Rises=F Damp=F
 DIIS: error= 2.54D-02 at cycle   3 NSaved=   3.
 NSaved= 3 IEnMin= 3 EnMin= -439.912240598529     IErMin= 3 ErrMin= 2.54D-02
 ErrMax= 2.54D-02 EMaxC= 1.00D-01 BMatC= 1.14D-01 BMatP= 1.45D+00
 IDIUse=3 WtCom= 7.46D-01 WtEn= 2.54D-01
 Coeff-Com:  0.357D+00-0.310D+00 0.953D+00
 Coeff-En:   0.000D+00 0.000D+00 0.100D+01
 Coeff:      0.266D+00-0.231D+00 0.965D+00
 Gap=     0.219 Goal=   None    Shift=    0.000
 Gap=     0.219 Goal=   None    Shift=    0.000
 RMSDP=1.45D-03 MaxDP=4.96D-02 DE=-6.25D-02 OVMax= 2.02D-02

 Cycle   4  Pass 1  IDiag  1:
 RMSU=  7.59D-04    CP:  9.97D-01  1.93D+00  6.93D-01
 E= -439.918404103995     Delta-E=       -0.006163505466 Rises=F Damp=F
 DIIS: error= 5.77D-03 at cycle   4 NSaved=   4.
 NSaved= 4 IEnMin= 4 EnMin= -439.918404103995     IErMin= 4 ErrMin= 5.77D-03
 ErrMax= 5.77D-03 EMaxC= 1.00D-01 BMatC= 8.66D-03 BMatP= 1.14D-01
 IDIUse=3 WtCom= 9.42D-01 WtEn= 5.77D-02
 Coeff-Com:  0.152D+00-0.194D+00 0.304D+00 0.738D+00
 Coeff-En:   0.000D+00 0.000D+00 0.000D+00 0.100D+01
 Coeff:      0.143D+00-0.183D+00 0.287D+00 0.753D+00
 Gap=     0.219 Goal=   None    Shift=    0.000
 Gap=     0.219 Goal=   None    Shift=    0.000
 RMSDP=3.60D-04 MaxDP=9.70D-03 DE=-6.16D-03 OVMax= 5.75D-03

 Cycle   5  Pass 1  IDiag  1:
 RMSU=  1.07D-04    CP:  9.98D-01  2.01D+00  7.93D-01  7.15D-01
 E= -439.919114670445     Delta-E=       -0.000710566450 Rises=F Damp=F
 DIIS: error= 5.74D-04 at cycle   5 NSaved=   5.
 NSaved= 5 IEnMin= 5 EnMin= -439.919114670445     IErMin= 5 ErrMin= 5.74D-04
 ErrMax= 5.74D-04 EMaxC= 1.00D-01 BMatC= 6.55D-05 BMatP= 8.66D-03
 IDIUse=3 WtCom= 9.94D-01 WtEn= 5.74D-03
 Coeff-Com:  0.400D-01-0.516D-01 0.803D-01 0.237D+00 0.694D+00
 Coeff-En:   0.000D+00 0.000D+00 0.000D+00 0.000D+00 0.100D+01
 Coeff:      0.398D-01-0.513D-01 0.798D-01 0.236D+00 0.696D+00
 Gap=     0.219 Goal=   None    Shift=    0.000
 Gap=     0.219 Goal=   None    Shift=    0.000
 RMSDP=6.91D-05 MaxDP=1.77D-03 DE=-7.11D-04 OVMax= 7.28D-04

 Cycle   6  Pass 1  IDiag  1:
 RMSU=  2.01D-05    CP:  9.98D-01  1.99D+00  7.94D-01  7.54D-01  6.43D-01
 E= -439.919125840393     Delta-E=       -0.000011169948 Rises=F Damp=F
 DIIS: error= 2.29D-05 at cycle   6 NSaved=   6.
 NSaved= 6 IEnMin= 6 EnMin= -439.919125840393     IErMin= 6 ErrMin= 2.29D-05
 ErrMax= 2.29D-05 EMaxC= 1.00D-01 BMatC= 1.72D-07 BMatP= 6.55D-05
 IDIUse=1 WtCom= 1.00D+00 WtEn= 0.00D+00
 Coeff-Com: -0.148D-03 0.172D-03 0.140D-03 0.516D-02 0.658D-01 0.929D+00
 Coeff:     -0.148D-03 0.172D-03 0.140D-03 0.516D-02 0.658D-01 0.929D+00
 Gap=     0.219 Goal=   None    Shift=    0.000
 Gap=     0.219 Goal=   None    Shift=    0.000
 RMSDP=4.99D-06 MaxDP=1.04D-04 DE=-1.12D-05 OVMax= 1.31D-04

 Cycle   7  Pass 1  IDiag  1:
 RMSU=  1.45D-06    CP:  9.98D-01  1.99D+00  7.93D-01  7.55D-01  6.62D-01
                    CP:  1.05D+00
 E= -439.919125881512     Delta-E=       -0.000000041119 Rises=F Damp=F
 DIIS: error= 8.21D-06 at cycle   7 NSaved=   7.
 NSaved= 7 IEnMin= 7 EnMin= -439.919125881512     IErMin= 7 ErrMin= 8.21D-06
 ErrMax= 8.21D-06 EMaxC= 1.00D-01 BMatC= 1.01D-08 BMatP= 1.72D-07
 IDIUse=1 WtCom= 1.00D+00 WtEn= 0.00D+00
 Coeff-Com:  0.102D-03-0.146D-03-0.404D-03-0.203D-02-0.945D-02-0.313D-01
 Coeff-Com:  0.104D+01
 Coeff:      0.102D-03-0.146D-03-0.404D-03-0.203D-02-0.945D-02-0.313D-01
 Coeff:      0.104D+01
 Gap=     0.219 Goal=   None    Shift=    0.000
 Gap=     0.219 Goal=   None    Shift=    0.000
 RMSDP=8.28D-07 MaxDP=1.84D-05 DE=-4.11D-08 OVMax= 1.91D-05

 Cycle   8  Pass 1  IDiag  1:
 RMSU=  1.42D-07    CP:  9.98D-01  1.99D+00  7.93D-01  7.55D-01  6.61D-01
                    CP:  1.07D+00  1.08D+00
 E= -439.919125883788     Delta-E=       -0.000000002276 Rises=F Damp=F
 DIIS: error= 3.54D-07 at cycle   8 NSaved=   8.
 NSaved= 8 IEnMin= 8 EnMin= -439.919125883788     IErMin= 8 ErrMin= 3.54D-07
 ErrMax= 3.54D-07 EMaxC= 1.00D-01 BMatC= 2.90D-11 BMatP= 1.01D-08
 IDIUse=1 WtCom= 1.00D+00 WtEn= 0.00D+00
 Coeff-Com:  0.118D-04-0.146D-04 0.342D-04 0.449D-04-0.740D-03-0.100D-01
 Coeff-Com:  0.183D-01 0.992D+00
 Coeff:      0.118D-04-0.146D-04 0.342D-04 0.449D-04-0.740D-03-0.100D-01
 Coeff:      0.183D-01 0.992D+00
 Gap=     0.219 Goal=   None    Shift=    0.000
 Gap=     0.219 Goal=   None    Shift=    0.000
 RMSDP=4.75D-08 MaxDP=1.35D-06 DE=-2.28D-09 OVMax= 2.14D-06

 Cycle   9  Pass 1  IDiag  1:
 RMSU=  1.43D-08    CP:  9.98D-01  1.99D+00  7.93D-01  7.55D-01  6.61D-01
                    CP:  1.08D+00  1.10D+00  1.08D+00
 E= -439.919125883797     Delta-E=       -0.000000000009 Rises=F Damp=F
 DIIS: error= 3.76D-08 at cycle   9 NSaved=   9.
 NSaved= 9 IEnMin= 9 EnMin= -439.919125883797     IErMin= 9 ErrMin= 3.76D-08
 ErrMax= 3.76D-08 EMaxC= 1.00D-01 BMatC= 3.03D-13 BMatP= 2.90D-11
 IDIUse=1 WtCom= 1.00D+00 WtEn= 0.00D+00
 Coeff-Com: -0.979D-06 0.136D-05 0.199D-05 0.120D-04 0.123D-04-0.867D-04
 Coeff-Com: -0.101D-01 0.196D-01 0.990D+00
 Coeff:     -0.979D-06 0.136D-05 0.199D-05 0.120D-04 0.123D-04-0.867D-04
 Coeff:     -0.101D-01 0.196D-01 0.990D+00
 Gap=     0.219 Goal=   None    Shift=    0.000
 Gap=     0.219 Goal=   None    Shift=    0.000
 RMSDP=5.15D-09 MaxDP=7.69D-08 DE=-9.21D-12 OVMax= 1.56D-07

 SCF Done:  E(UB97-1+HF-B97-1) =  -439.919125884     A.U. after    9 cycles
             Convg  =    0.5153D-08             -V/T =  2.0018
             S**2   =   0.0000
 KE= 4.391418268181D+02 PE=-1.224868057715D+03 EE= 2.564691694667D+02
 Annihilation of the first spin contaminant:
 S**2 before annihilation     0.0000,   after     0.0000
 Leave Link  502 at Thu Mar 26 18:14:22 2009, MaxMem=    6291456 cpu:       5.1
 (Enter /opt//g03/l601.exe)
 Copying SCF densities to generalized density rwf, ISCF=1 IROHF=0.

 **********************************************************************

            Population analysis using the SCF density.

 **********************************************************************

 Orbital symmetries:
 Alpha Orbitals:
       Occupied  (SGG) (SGU) (SGG) (SGG) (PIU) (PIU) (SGU) (SGG)
                 (SGU) (SGG) (SGU) (PIU) (PIU) (PIG) (PIG)
       Virtual   (SGG) (PIU) (PIU) (SGU) (SGG) (PIU) (PIU) (SGU)
                 (SGG) (PIG) (PIG) (SGU) (PIU) (PIU) (PIU) (PIU)
                 (SGG) (SGU) (DLTG) (DLTG) (SGG) (SGU) (PIG) (PIG)
                 (SGG) (PIG) (PIG) (SGU) (PIU) (PIU) (PIU) (PIU)
                 (SGU) (SGG) (SGG) (SGU) (DLTU) (DLTU) (DLTG) (DLTG)
                 (PIU) (PIU) (PIG) (PIG) (SGU) (SGG) (PIG) (PIG)
                 (PIU) (PIU) (SGU) (SGG) (SGG) (PIU) (PIU) (SGU)
                 (SGG) (SGU) (SGG)
 Beta  Orbitals:
       Occupied  (SGG) (SGU) (SGG) (SGG) (PIU) (PIU) (SGU) (SGG)
                 (SGU) (SGG) (SGU) (PIU) (PIU) (PIG) (PIG)
       Virtual   (SGG) (PIU) (PIU) (SGU) (SGG) (PIU) (PIU) (SGU)
                 (SGG) (PIG) (PIG) (SGU) (PIU) (PIU) (PIU) (PIU)
                 (SGG) (SGU) (DLTG) (DLTG) (SGG) (SGU) (PIG) (PIG)
                 (SGG) (PIG) (PIG) (SGU) (PIU) (PIU) (PIU) (PIU)
                 (SGU) (SGG) (SGG) (SGU) (DLTU) (DLTU) (DLTG) (DLTG)
                 (PIU) (PIU) (PIG) (PIG) (SGU) (SGG) (PIG) (PIG)
                 (PIU) (PIU) (SGU) (SGG) (SGG) (PIU) (PIU) (SGU)
                 (SGG) (SGU) (SGG)
 The electronic state is 1-SGG.
 Alpha  occ. eigenvalues --  -66.20923 -19.17822 -19.17820  -5.38341  -3.73152
 Alpha  occ. eigenvalues --   -3.73152  -3.72475  -1.01403  -0.98960  -0.48178
 Alpha  occ. eigenvalues --   -0.40858  -0.39620  -0.39620  -0.35763  -0.35763
 Alpha virt. eigenvalues --   -0.13828  -0.03806  -0.03806   0.04460   0.05288
 Alpha virt. eigenvalues --    0.05584   0.05584   0.17581   0.17604   0.18784
 Alpha virt. eigenvalues --    0.18784   0.25631   0.25866   0.25866   0.28016
 Alpha virt. eigenvalues --    0.28016   0.30795   0.44898   0.52607   0.52607
 Alpha virt. eigenvalues --    0.52756   0.62321   0.64048   0.64048   0.93919
 Alpha virt. eigenvalues --    1.05655   1.05655   1.07395   1.10001   1.10001
 Alpha virt. eigenvalues --    1.17451   1.17451   1.29445   1.32171   1.41399
 Alpha virt. eigenvalues --    1.78923   2.78121   2.78121   2.79814   2.79814
 Alpha virt. eigenvalues --    2.80604   2.80604   3.05302   3.05302   3.39264
 Alpha virt. eigenvalues --    3.51865   4.92447   4.92447   4.99727   4.99727
 Alpha virt. eigenvalues --    5.07737   5.10721   6.05785  11.23833  11.23833
 Alpha virt. eigenvalues --   11.77173  49.82624  49.96192 141.24472
  Beta  occ. eigenvalues --  -66.20923 -19.17822 -19.17820  -5.38341  -3.73152
  Beta  occ. eigenvalues --   -3.73152  -3.72475  -1.01403  -0.98960  -0.48178
  Beta  occ. eigenvalues --   -0.40858  -0.39620  -0.39620  -0.35763  -0.35763
  Beta virt. eigenvalues --   -0.13828  -0.03806  -0.03806   0.04460   0.05288
  Beta virt. eigenvalues --    0.05584   0.05584   0.17581   0.17604   0.18784
  Beta virt. eigenvalues --    0.18784   0.25631   0.25866   0.25866   0.28016
  Beta virt. eigenvalues --    0.28016   0.30795   0.44898   0.52607   0.52607
  Beta virt. eigenvalues --    0.52756   0.62321   0.64048   0.64048   0.93919
  Beta virt. eigenvalues --    1.05655   1.05655   1.07395   1.10001   1.10001
  Beta virt. eigenvalues --    1.17451   1.17451   1.29445   1.32171   1.41399
  Beta virt. eigenvalues --    1.78923   2.78121   2.78121   2.79814   2.79814
  Beta virt. eigenvalues --    2.80604   2.80604   3.05302   3.05302   3.39264
  Beta virt. eigenvalues --    3.51865   4.92447   4.92447   4.99727   4.99727
  Beta virt. eigenvalues --    5.07737   5.10721   6.05785  11.23833  11.23833
  Beta virt. eigenvalues --   11.77173  49.82624  49.96192 141.24472
     Alpha Molecular Orbital Coefficients
                          11        12        13        14        15
                       (SGU)--O  (PIU)--O  (PIU)--O  (PIG)--O  (PIG)--O
     EIGENVALUES --    -0.40858  -0.39620  -0.39620  -0.35763  -0.35763
   1 1   Si 1S          0.00000   0.00000   0.00000   0.00000   0.00000
   2        2S          0.00000   0.00000   0.00000   0.00000   0.00000
   3        3S          0.00000   0.00000   0.00000   0.00000   0.00000
   4        4S          0.00000   0.00000   0.00000   0.00000   0.00000
   5        5S          0.00000   0.00000   0.00000   0.00000   0.00000
   6        6S          0.00000   0.00000   0.00000   0.00000   0.00000
   7        7PX         0.00000  -0.05892   0.00000   0.00000   0.00000
   8        7PY         0.00000   0.00000  -0.05892   0.00000   0.00000
   9        7PZ         0.07055   0.00000   0.00000   0.00000   0.00000
  10        8PX         0.00000  -0.10506   0.00000   0.00000   0.00000
  11        8PY         0.00000   0.00000  -0.10506   0.00000   0.00000
  12        8PZ         0.12619   0.00000   0.00000   0.00000   0.00000
  13        9PX         0.00000   0.13703   0.00000   0.00000   0.00000
  14        9PY         0.00000   0.00000   0.13703   0.00000   0.00000
  15        9PZ        -0.19746   0.00000   0.00000   0.00000   0.00000
  16       10PX         0.00000   0.25721   0.00000   0.00000   0.00000
  17       10PY         0.00000   0.00000   0.25721   0.00000   0.00000
  18       10PZ        -0.15541   0.00000   0.00000   0.00000   0.00000
  19       11PX         0.00000   0.06923   0.00000   0.00000   0.00000
  20       11PY         0.00000   0.00000   0.06923   0.00000   0.00000
  21       11PZ        -0.12629   0.00000   0.00000   0.00000   0.00000
  22       12S          0.00000   0.00000   0.00000   0.00000   0.00000
  23       12PX         0.00000   0.01227   0.00000   0.00000   0.00000
  24       12PY         0.00000   0.00000   0.01227   0.00000   0.00000
  25       12PZ         0.02968   0.00000   0.00000   0.00000   0.00000
  26       13D 0        0.00000   0.00000   0.00000   0.00000   0.00000
  27       13D+1        0.00000   0.00000   0.00000   0.13903   0.00000
  28       13D-1        0.00000   0.00000   0.00000   0.00000   0.13903
  29       13D+2        0.00000   0.00000   0.00000   0.00000   0.00000
  30       13D-2        0.00000   0.00000   0.00000   0.00000   0.00000
  31 2   O  1S         -0.02537   0.00000   0.00000   0.00000   0.00000
  32        2S         -0.04139   0.00000   0.00000   0.00000   0.00000
  33        2PX         0.00000   0.17507   0.00000   0.20316   0.00000
  34        2PY         0.00000   0.00000   0.17507   0.00000   0.20316
  35        2PZ         0.19354   0.00000   0.00000   0.00000   0.00000
  36        3S          0.12704   0.00000   0.00000   0.00000   0.00000
  37        3PX         0.00000   0.26036   0.00000   0.30026   0.00000
  38        3PY         0.00000   0.00000   0.26036   0.00000   0.30026
  39        3PZ         0.29199   0.00000   0.00000   0.00000   0.00000
  40        4S          0.15463   0.00000   0.00000   0.00000   0.00000
  41        4PX         0.00000   0.23512   0.00000   0.27611   0.00000
  42        4PY         0.00000   0.00000   0.23512   0.00000   0.27611
  43        4PZ         0.21285   0.00000   0.00000   0.00000   0.00000
  44        5S          0.15458   0.00000   0.00000   0.00000   0.00000
  45        5PX         0.00000   0.00624   0.00000   0.06719   0.00000
  46        5PY         0.00000   0.00000   0.00624   0.00000   0.06719
  47        5PZ        -0.01222   0.00000   0.00000   0.00000   0.00000
  48        6D 0       -0.01537   0.00000   0.00000   0.00000   0.00000
  49        6D+1        0.00000  -0.01772   0.00000  -0.01464   0.00000
  50        6D-1        0.00000   0.00000  -0.01772   0.00000  -0.01464
  51        6D+2        0.00000   0.00000   0.00000   0.00000   0.00000
  52        6D-2        0.00000   0.00000   0.00000   0.00000   0.00000
  53 3   O  1S          0.02537   0.00000   0.00000   0.00000   0.00000
  54        2S          0.04139   0.00000   0.00000   0.00000   0.00000
  55        2PX         0.00000   0.17507   0.00000  -0.20316   0.00000
  56        2PY         0.00000   0.00000   0.17507   0.00000  -0.20316
  57        2PZ         0.19354   0.00000   0.00000   0.00000   0.00000
  58        3S         -0.12704   0.00000   0.00000   0.00000   0.00000
  59        3PX         0.00000   0.26036   0.00000  -0.30026   0.00000
  60        3PY         0.00000   0.00000   0.26036   0.00000  -0.30026
  61        3PZ         0.29199   0.00000   0.00000   0.00000   0.00000
  62        4S         -0.15463   0.00000   0.00000   0.00000   0.00000
  63        4PX         0.00000   0.23512   0.00000  -0.27611   0.00000
  64        4PY         0.00000   0.00000   0.23512   0.00000  -0.27611
  65        4PZ         0.21285   0.00000   0.00000   0.00000   0.00000
  66        5S         -0.15458   0.00000   0.00000   0.00000   0.00000
  67        5PX         0.00000   0.00624   0.00000  -0.06719   0.00000
  68        5PY         0.00000   0.00000   0.00624   0.00000  -0.06719
  69        5PZ        -0.01222   0.00000   0.00000   0.00000   0.00000
  70        6D 0        0.01537   0.00000   0.00000   0.00000   0.00000
  71        6D+1        0.00000   0.01772   0.00000  -0.01464   0.00000
  72        6D-1        0.00000   0.00000   0.01772   0.00000  -0.01464
  73        6D+2        0.00000   0.00000   0.00000   0.00000   0.00000
  74        6D-2        0.00000   0.00000   0.00000   0.00000   0.00000
                          16        17        18        19        20
                       (SGG)--V  (PIU)--V  (PIU)--V  (SGU)--V  (SGG)--V
     EIGENVALUES --    -0.13828  -0.03806  -0.03806   0.04460   0.05288
   1 1   Si 1S          0.01419   0.00000   0.00000   0.00000  -0.01219
   2        2S          0.03929   0.00000   0.00000   0.00000  -0.03381
   3        3S         -0.09284   0.00000   0.00000   0.00000   0.08028
   4        4S         -0.14700   0.00000   0.00000   0.00000   0.13499
   5        5S          0.14993   0.00000   0.00000   0.00000  -0.18917
   6        6S          1.22323   0.00000   0.00000   0.00000  -1.09627
   7        7PX         0.00000  -0.07549   0.00000   0.00000   0.00000
   8        7PY         0.00000   0.00000  -0.07549   0.00000   0.00000
   9        7PZ         0.00000   0.00000   0.00000   0.00764   0.00000
  10        8PX         0.00000  -0.13068   0.00000   0.00000   0.00000
  11        8PY         0.00000   0.00000  -0.13068   0.00000   0.00000
  12        8PZ         0.00000   0.00000   0.00000   0.01401   0.00000
  13        9PX         0.00000   0.16742   0.00000   0.00000   0.00000
  14        9PY         0.00000   0.00000   0.16742   0.00000   0.00000
  15        9PZ         0.00000   0.00000   0.00000  -0.02000   0.00000
  16       10PX         0.00000   0.52866   0.00000   0.00000   0.00000
  17       10PY         0.00000   0.00000   0.52866   0.00000   0.00000
  18       10PZ         0.00000   0.00000   0.00000  -0.06052   0.00000
  19       11PX         0.00000   0.56363   0.00000   0.00000   0.00000
  20       11PY         0.00000   0.00000   0.56363   0.00000   0.00000
  21       11PZ         0.00000   0.00000   0.00000   3.27470   0.00000
  22       12S          0.37689   0.00000   0.00000   0.00000   2.06527
  23       12PX         0.00000   0.17854   0.00000   0.00000   0.00000
  24       12PY         0.00000   0.00000   0.17854   0.00000   0.00000
  25       12PZ         0.00000   0.00000   0.00000  -2.25938   0.00000
  26       13D 0       -0.21794   0.00000   0.00000   0.00000   0.08557
  27       13D+1        0.00000   0.00000   0.00000   0.00000   0.00000
  28       13D-1        0.00000   0.00000   0.00000   0.00000   0.00000
  29       13D+2        0.00000   0.00000   0.00000   0.00000   0.00000
  30       13D-2        0.00000   0.00000   0.00000   0.00000   0.00000
  31 2   O  1S          0.02011   0.00000   0.00000  -0.01571  -0.00203
  32        2S          0.03308   0.00000   0.00000  -0.02574  -0.00238
  33        2PX         0.00000  -0.13659   0.00000   0.00000   0.00000
  34        2PY         0.00000   0.00000  -0.13659   0.00000   0.00000
  35        2PZ         0.13366   0.00000   0.00000   0.01377  -0.07445
  36        3S         -0.11043   0.00000   0.00000   0.07551  -0.01202
  37        3PX         0.00000  -0.20195   0.00000   0.00000   0.00000
  38        3PY         0.00000   0.00000  -0.20195   0.00000   0.00000
  39        3PZ         0.18498   0.00000   0.00000   0.02117  -0.10425
  40        4S         -0.17601   0.00000   0.00000   0.30743   0.20215
  41        4PX         0.00000  -0.24958   0.00000   0.00000   0.00000
  42        4PY         0.00000   0.00000  -0.24958   0.00000   0.00000
  43        4PZ         0.19070   0.00000   0.00000  -0.03336  -0.15955
  44        5S         -0.31069   0.00000   0.00000  -2.22994  -0.53087
  45        5PX         0.00000  -0.18063   0.00000   0.00000   0.00000
  46        5PY         0.00000   0.00000  -0.18063   0.00000   0.00000
  47        5PZ         0.12927   0.00000   0.00000   0.90365   0.06514
  48        6D 0       -0.00205   0.00000   0.00000   0.00210  -0.00104
  49        6D+1        0.00000  -0.00116   0.00000   0.00000   0.00000
  50        6D-1        0.00000   0.00000  -0.00116   0.00000   0.00000
  51        6D+2        0.00000   0.00000   0.00000   0.00000   0.00000
  52        6D-2        0.00000   0.00000   0.00000   0.00000   0.00000
  53 3   O  1S          0.02011   0.00000   0.00000   0.01571  -0.00203
  54        2S          0.03308   0.00000   0.00000   0.02574  -0.00238
  55        2PX         0.00000  -0.13659   0.00000   0.00000   0.00000
  56        2PY         0.00000   0.00000  -0.13659   0.00000   0.00000
  57        2PZ        -0.13366   0.00000   0.00000   0.01377   0.07445
  58        3S         -0.11043   0.00000   0.00000  -0.07551  -0.01202
  59        3PX         0.00000  -0.20195   0.00000   0.00000   0.00000
  60        3PY         0.00000   0.00000  -0.20195   0.00000   0.00000
  61        3PZ        -0.18498   0.00000   0.00000   0.02117   0.10425
  62        4S         -0.17601   0.00000   0.00000  -0.30743   0.20215
  63        4PX         0.00000  -0.24958   0.00000   0.00000   0.00000
  64        4PY         0.00000   0.00000  -0.24958   0.00000   0.00000
  65        4PZ        -0.19070   0.00000   0.00000  -0.03336   0.15955
  66        5S         -0.31069   0.00000   0.00000   2.22994  -0.53087
  67        5PX         0.00000  -0.18063   0.00000   0.00000   0.00000
  68        5PY         0.00000   0.00000  -0.18063   0.00000   0.00000
  69        5PZ        -0.12927   0.00000   0.00000   0.90365  -0.06514
  70        6D 0       -0.00205   0.00000   0.00000  -0.00210  -0.00104
  71        6D+1        0.00000   0.00116   0.00000   0.00000   0.00000
  72        6D-1        0.00000   0.00000   0.00116   0.00000   0.00000
  73        6D+2        0.00000   0.00000   0.00000   0.00000   0.00000
  74        6D-2        0.00000   0.00000   0.00000   0.00000   0.00000
     Beta Molecular Orbital Coefficients.
                          11        12        13        14        15
                       (SGU)--O  (PIU)--O  (PIU)--O  (PIG)--O  (PIG)--O
     EIGENVALUES --    -0.40858  -0.39620  -0.39620  -0.35763  -0.35763
   1 1   Si 1S          0.00000   0.00000   0.00000   0.00000   0.00000
   2        2S          0.00000   0.00000   0.00000   0.00000   0.00000
   3        3S          0.00000   0.00000   0.00000   0.00000   0.00000
   4        4S          0.00000   0.00000   0.00000   0.00000   0.00000
   5        5S          0.00000   0.00000   0.00000   0.00000   0.00000
   6        6S          0.00000   0.00000   0.00000   0.00000   0.00000
   7        7PX         0.00000  -0.05892   0.00000   0.00000   0.00000
   8        7PY         0.00000   0.00000  -0.05892   0.00000   0.00000
   9        7PZ         0.07055   0.00000   0.00000   0.00000   0.00000
  10        8PX         0.00000  -0.10506   0.00000   0.00000   0.00000
  11        8PY         0.00000   0.00000  -0.10506   0.00000   0.00000
  12        8PZ         0.12619   0.00000   0.00000   0.00000   0.00000
  13        9PX         0.00000   0.13703   0.00000   0.00000   0.00000
  14        9PY         0.00000   0.00000   0.13703   0.00000   0.00000
  15        9PZ        -0.19746   0.00000   0.00000   0.00000   0.00000
  16       10PX         0.00000   0.25721   0.00000   0.00000   0.00000
  17       10PY         0.00000   0.00000   0.25721   0.00000   0.00000
  18       10PZ        -0.15541   0.00000   0.00000   0.00000   0.00000
  19       11PX         0.00000   0.06923   0.00000   0.00000   0.00000
  20       11PY         0.00000   0.00000   0.06923   0.00000   0.00000
  21       11PZ        -0.12629   0.00000   0.00000   0.00000   0.00000
  22       12S          0.00000   0.00000   0.00000   0.00000   0.00000
  23       12PX         0.00000   0.01227   0.00000   0.00000   0.00000
  24       12PY         0.00000   0.00000   0.01227   0.00000   0.00000
  25       12PZ         0.02968   0.00000   0.00000   0.00000   0.00000
  26       13D 0        0.00000   0.00000   0.00000   0.00000   0.00000
  27       13D+1        0.00000   0.00000   0.00000   0.13903   0.00000
  28       13D-1        0.00000   0.00000   0.00000   0.00000   0.13903
  29       13D+2        0.00000   0.00000   0.00000   0.00000   0.00000
  30       13D-2        0.00000   0.00000   0.00000   0.00000   0.00000
  31 2   O  1S         -0.02537   0.00000   0.00000   0.00000   0.00000
  32        2S         -0.04139   0.00000   0.00000   0.00000   0.00000
  33        2PX         0.00000   0.17507   0.00000   0.20316   0.00000
  34        2PY         0.00000   0.00000   0.17507   0.00000   0.20316
  35        2PZ         0.19354   0.00000   0.00000   0.00000   0.00000
  36        3S          0.12704   0.00000   0.00000   0.00000   0.00000
  37        3PX         0.00000   0.26036   0.00000   0.30026   0.00000
  38        3PY         0.00000   0.00000   0.26036   0.00000   0.30026
  39        3PZ         0.29199   0.00000   0.00000   0.00000   0.00000
  40        4S          0.15463   0.00000   0.00000   0.00000   0.00000
  41        4PX         0.00000   0.23512   0.00000   0.27611   0.00000
  42        4PY         0.00000   0.00000   0.23512   0.00000   0.27611
  43        4PZ         0.21285   0.00000   0.00000   0.00000   0.00000
  44        5S          0.15458   0.00000   0.00000   0.00000   0.00000
  45        5PX         0.00000   0.00624   0.00000   0.06719   0.00000
  46        5PY         0.00000   0.00000   0.00624   0.00000   0.06719
  47        5PZ        -0.01222   0.00000   0.00000   0.00000   0.00000
  48        6D 0       -0.01537   0.00000   0.00000   0.00000   0.00000
  49        6D+1        0.00000  -0.01772   0.00000  -0.01464   0.00000
  50        6D-1        0.00000   0.00000  -0.01772   0.00000  -0.01464
  51        6D+2        0.00000   0.00000   0.00000   0.00000   0.00000
  52        6D-2        0.00000   0.00000   0.00000   0.00000   0.00000
  53 3   O  1S          0.02537   0.00000   0.00000   0.00000   0.00000
  54        2S          0.04139   0.00000   0.00000   0.00000   0.00000
  55        2PX         0.00000   0.17507   0.00000  -0.20316   0.00000
  56        2PY         0.00000   0.00000   0.17507   0.00000  -0.20316
  57        2PZ         0.19354   0.00000   0.00000   0.00000   0.00000
  58        3S         -0.12704   0.00000   0.00000   0.00000   0.00000
  59        3PX         0.00000   0.26036   0.00000  -0.30026   0.00000
  60        3PY         0.00000   0.00000   0.26036   0.00000  -0.30026
  61        3PZ         0.29199   0.00000   0.00000   0.00000   0.00000
  62        4S         -0.15463   0.00000   0.00000   0.00000   0.00000
  63        4PX         0.00000   0.23512   0.00000  -0.27611   0.00000
  64        4PY         0.00000   0.00000   0.23512   0.00000  -0.27611
  65        4PZ         0.21285   0.00000   0.00000   0.00000   0.00000
  66        5S         -0.15458   0.00000   0.00000   0.00000   0.00000
  67        5PX         0.00000   0.00624   0.00000  -0.06719   0.00000
  68        5PY         0.00000   0.00000   0.00624   0.00000  -0.06719
  69        5PZ        -0.01222   0.00000   0.00000   0.00000   0.00000
  70        6D 0        0.01537   0.00000   0.00000   0.00000   0.00000
  71        6D+1        0.00000   0.01772   0.00000  -0.01464   0.00000
  72        6D-1        0.00000   0.00000   0.01772   0.00000  -0.01464
  73        6D+2        0.00000   0.00000   0.00000   0.00000   0.00000
  74        6D-2        0.00000   0.00000   0.00000   0.00000   0.00000
                          16        17        18        19        20
                       (SGG)--V  (PIU)--V  (PIU)--V  (SGU)--V  (SGG)--V
     EIGENVALUES --    -0.13828  -0.03806  -0.03806   0.04460   0.05288
   1 1   Si 1S          0.01419   0.00000   0.00000   0.00000  -0.01219
   2        2S          0.03929   0.00000   0.00000   0.00000  -0.03381
   3        3S         -0.09284   0.00000   0.00000   0.00000   0.08028
   4        4S         -0.14700   0.00000   0.00000   0.00000   0.13499
   5        5S          0.14993   0.00000   0.00000   0.00000  -0.18917
   6        6S          1.22323   0.00000   0.00000   0.00000  -1.09627
   7        7PX         0.00000  -0.07549   0.00000   0.00000   0.00000
   8        7PY         0.00000   0.00000  -0.07549   0.00000   0.00000
   9        7PZ         0.00000   0.00000   0.00000   0.00764   0.00000
  10        8PX         0.00000  -0.13068   0.00000   0.00000   0.00000
  11        8PY         0.00000   0.00000  -0.13068   0.00000   0.00000
  12        8PZ         0.00000   0.00000   0.00000   0.01401   0.00000
  13        9PX         0.00000   0.16742   0.00000   0.00000   0.00000
  14        9PY         0.00000   0.00000   0.16742   0.00000   0.00000
  15        9PZ         0.00000   0.00000   0.00000  -0.02000   0.00000
  16       10PX         0.00000   0.52866   0.00000   0.00000   0.00000
  17       10PY         0.00000   0.00000   0.52866   0.00000   0.00000
  18       10PZ         0.00000   0.00000   0.00000  -0.06052   0.00000
  19       11PX         0.00000   0.56363   0.00000   0.00000   0.00000
  20       11PY         0.00000   0.00000   0.56363   0.00000   0.00000
  21       11PZ         0.00000   0.00000   0.00000   3.27470   0.00000
  22       12S          0.37689   0.00000   0.00000   0.00000   2.06527
  23       12PX         0.00000   0.17854   0.00000   0.00000   0.00000
  24       12PY         0.00000   0.00000   0.17854   0.00000   0.00000
  25       12PZ         0.00000   0.00000   0.00000  -2.25938   0.00000
  26       13D 0       -0.21794   0.00000   0.00000   0.00000   0.08557
  27       13D+1        0.00000   0.00000   0.00000   0.00000   0.00000
  28       13D-1        0.00000   0.00000   0.00000   0.00000   0.00000
  29       13D+2        0.00000   0.00000   0.00000   0.00000   0.00000
  30       13D-2        0.00000   0.00000   0.00000   0.00000   0.00000
  31 2   O  1S          0.02011   0.00000   0.00000  -0.01571  -0.00203
  32        2S          0.03308   0.00000   0.00000  -0.02574  -0.00238
  33        2PX         0.00000  -0.13659   0.00000   0.00000   0.00000
  34        2PY         0.00000   0.00000  -0.13659   0.00000   0.00000
  35        2PZ         0.13366   0.00000   0.00000   0.01377  -0.07445
  36        3S         -0.11043   0.00000   0.00000   0.07551  -0.01202
  37        3PX         0.00000  -0.20195   0.00000   0.00000   0.00000
  38        3PY         0.00000   0.00000  -0.20195   0.00000   0.00000
  39        3PZ         0.18498   0.00000   0.00000   0.02117  -0.10425
  40        4S         -0.17601   0.00000   0.00000   0.30743   0.20215
  41        4PX         0.00000  -0.24958   0.00000   0.00000   0.00000
  42        4PY         0.00000   0.00000  -0.24958   0.00000   0.00000
  43        4PZ         0.19070   0.00000   0.00000  -0.03336  -0.15955
  44        5S         -0.31069   0.00000   0.00000  -2.22994  -0.53087
  45        5PX         0.00000  -0.18063   0.00000   0.00000   0.00000
  46        5PY         0.00000   0.00000  -0.18063   0.00000   0.00000
  47        5PZ         0.12927   0.00000   0.00000   0.90365   0.06514
  48        6D 0       -0.00205   0.00000   0.00000   0.00210  -0.00104
  49        6D+1        0.00000  -0.00116   0.00000   0.00000   0.00000
  50        6D-1        0.00000   0.00000  -0.00116   0.00000   0.00000
  51        6D+2        0.00000   0.00000   0.00000   0.00000   0.00000
  52        6D-2        0.00000   0.00000   0.00000   0.00000   0.00000
  53 3   O  1S          0.02011   0.00000   0.00000   0.01571  -0.00203
  54        2S          0.03308   0.00000   0.00000   0.02574  -0.00238
  55        2PX         0.00000  -0.13659   0.00000   0.00000   0.00000
  56        2PY         0.00000   0.00000  -0.13659   0.00000   0.00000
  57        2PZ        -0.13366   0.00000   0.00000   0.01377   0.07445
  58        3S         -0.11043   0.00000   0.00000  -0.07551  -0.01202
  59        3PX         0.00000  -0.20195   0.00000   0.00000   0.00000
  60        3PY         0.00000   0.00000  -0.20195   0.00000   0.00000
  61        3PZ        -0.18498   0.00000   0.00000   0.02117   0.10425
  62        4S         -0.17601   0.00000   0.00000  -0.30743   0.20215
  63        4PX         0.00000  -0.24958   0.00000   0.00000   0.00000
  64        4PY         0.00000   0.00000  -0.24958   0.00000   0.00000
  65        4PZ        -0.19070   0.00000   0.00000  -0.03336   0.15955
  66        5S         -0.31069   0.00000   0.00000   2.22994  -0.53087
  67        5PX         0.00000  -0.18063   0.00000   0.00000   0.00000
  68        5PY         0.00000   0.00000  -0.18063   0.00000   0.00000
  69        5PZ        -0.12927   0.00000   0.00000   0.90365  -0.06514
  70        6D 0       -0.00205   0.00000   0.00000  -0.00210  -0.00104
  71        6D+1        0.00000   0.00116   0.00000   0.00000   0.00000
  72        6D-1        0.00000   0.00000   0.00116   0.00000   0.00000
  73        6D+2        0.00000   0.00000   0.00000   0.00000   0.00000
  74        6D-2        0.00000   0.00000   0.00000   0.00000   0.00000
     ALPHA DENSITY MATRIX.
                           1         2         3         4         5
   1 1   Si 1S          0.18907
   2        2S          0.30792   0.51654
   3        3S         -0.06194  -0.16795   0.31947
   4        4S         -0.07703  -0.19929   0.35743   0.41251
   5        5S          0.00989   0.02659  -0.06456  -0.13579   0.34392
   6        6S          0.01378   0.03870  -0.08363  -0.12207   0.16750
   7        7PX         0.00000   0.00000   0.00000   0.00000   0.00000
   8        7PY         0.00000   0.00000   0.00000   0.00000   0.00000
   9        7PZ         0.00000   0.00000   0.00000   0.00000   0.00000
  10        8PX         0.00000   0.00000   0.00000   0.00000   0.00000
  11        8PY         0.00000   0.00000   0.00000   0.00000   0.00000
  12        8PZ         0.00000   0.00000   0.00000   0.00000   0.00000
  13        9PX         0.00000   0.00000   0.00000   0.00000   0.00000
  14        9PY         0.00000   0.00000   0.00000   0.00000   0.00000
  15        9PZ         0.00000   0.00000   0.00000   0.00000   0.00000
  16       10PX         0.00000   0.00000   0.00000   0.00000   0.00000
  17       10PY         0.00000   0.00000   0.00000   0.00000   0.00000
  18       10PZ         0.00000   0.00000   0.00000   0.00000   0.00000
  19       11PX         0.00000   0.00000   0.00000   0.00000   0.00000
  20       11PY         0.00000   0.00000   0.00000   0.00000   0.00000
  21       11PZ         0.00000   0.00000   0.00000   0.00000   0.00000
  22       12S         -0.00022  -0.00059   0.00100   0.00075   0.00146
  23       12PX         0.00000   0.00000   0.00000   0.00000   0.00000
  24       12PY         0.00000   0.00000   0.00000   0.00000   0.00000
  25       12PZ         0.00000   0.00000   0.00000   0.00000   0.00000
  26       13D 0        0.00246   0.00652  -0.01426  -0.02585   0.05334
  27       13D+1        0.00000   0.00000   0.00000   0.00000   0.00000
  28       13D-1        0.00000   0.00000   0.00000   0.00000   0.00000
  29       13D+2        0.00000   0.00000   0.00000   0.00000   0.00000
  30       13D-2        0.00000   0.00000   0.00000   0.00000   0.00000
  31 2   O  1S         -0.00030  -0.00080   0.00158   0.00247  -0.00182
  32        2S         -0.00046  -0.00122   0.00242   0.00376  -0.00284
  33        2PX         0.00000   0.00000   0.00000   0.00000   0.00000
  34        2PY         0.00000   0.00000   0.00000   0.00000   0.00000
  35        2PZ        -0.00415  -0.01133   0.02545   0.04442  -0.08879
  36        3S          0.00118   0.00311  -0.00591  -0.00908   0.00608
  37        3PX         0.00000   0.00000   0.00000   0.00000   0.00000
  38        3PY         0.00000   0.00000   0.00000   0.00000   0.00000
  39        3PZ        -0.00583  -0.01606   0.03649   0.06362  -0.12702
  40        4S         -0.00167  -0.00437   0.01061   0.02241  -0.06355
  41        4PX         0.00000   0.00000   0.00000   0.00000   0.00000
  42        4PY         0.00000   0.00000   0.00000   0.00000   0.00000
  43        4PZ        -0.00361  -0.01000   0.02248   0.03759  -0.07014
  44        5S         -0.00405  -0.01152   0.02510   0.03575  -0.04547
  45        5PX         0.00000   0.00000   0.00000   0.00000   0.00000
  46        5PY         0.00000   0.00000   0.00000   0.00000   0.00000
  47        5PZ         0.00100   0.00295  -0.00615  -0.00660  -0.00030
  48        6D 0        0.00021   0.00065  -0.00171  -0.00304   0.00619
  49        6D+1        0.00000   0.00000   0.00000   0.00000   0.00000
  50        6D-1        0.00000   0.00000   0.00000   0.00000   0.00000
  51        6D+2        0.00000   0.00000   0.00000   0.00000   0.00000
  52        6D-2        0.00000   0.00000   0.00000   0.00000   0.00000
  53 3   O  1S         -0.00030  -0.00080   0.00158   0.00247  -0.00182
  54        2S         -0.00046  -0.00122   0.00242   0.00376  -0.00284
  55        2PX         0.00000   0.00000   0.00000   0.00000   0.00000
  56        2PY         0.00000   0.00000   0.00000   0.00000   0.00000
  57        2PZ         0.00415   0.01133  -0.02545  -0.04442   0.08879
  58        3S          0.00118   0.00311  -0.00591  -0.00908   0.00608
  59        3PX         0.00000   0.00000   0.00000   0.00000   0.00000
  60        3PY         0.00000   0.00000   0.00000   0.00000   0.00000
  61        3PZ         0.00583   0.01606  -0.03649  -0.06362   0.12702
  62        4S         -0.00167  -0.00437   0.01061   0.02241  -0.06355
  63        4PX         0.00000   0.00000   0.00000   0.00000   0.00000
  64        4PY         0.00000   0.00000   0.00000   0.00000   0.00000
  65        4PZ         0.00361   0.01000  -0.02248  -0.03759   0.07014
  66        5S         -0.00405  -0.01152   0.02510   0.03575  -0.04547
  67        5PX         0.00000   0.00000   0.00000   0.00000   0.00000
  68        5PY         0.00000   0.00000   0.00000   0.00000   0.00000
  69        5PZ        -0.00100  -0.00295   0.00615   0.00660   0.00030
  70        6D 0        0.00021   0.00065  -0.00171  -0.00304   0.00619
  71        6D+1        0.00000   0.00000   0.00000   0.00000   0.00000
  72        6D-1        0.00000   0.00000   0.00000   0.00000   0.00000
  73        6D+2        0.00000   0.00000   0.00000   0.00000   0.00000
  74        6D-2        0.00000   0.00000   0.00000   0.00000   0.00000
                           6         7         8         9        10
   6        6S          0.10125
   7        7PX         0.00000   0.16550
   8        7PY         0.00000   0.00000   0.16550
   9        7PZ         0.00000   0.00000   0.00000   0.17052
  10        8PX         0.00000   0.28421   0.00000   0.00000   0.48806
  11        8PY         0.00000   0.00000   0.28421   0.00000   0.00000
  12        8PZ         0.00000   0.00000   0.00000   0.29220   0.00000
  13        9PX         0.00000   0.01547   0.00000   0.00000   0.02600
  14        9PY         0.00000   0.00000   0.01547   0.00000   0.00000
  15        9PZ         0.00000   0.00000   0.00000   0.00378   0.00000
  16       10PX         0.00000  -0.01898   0.00000   0.00000  -0.03358
  17       10PY         0.00000   0.00000  -0.01898   0.00000   0.00000
  18       10PZ         0.00000   0.00000   0.00000  -0.01853   0.00000
  19       11PX         0.00000  -0.00180   0.00000   0.00000  -0.00337
  20       11PY         0.00000   0.00000  -0.00180   0.00000   0.00000
  21       11PZ         0.00000   0.00000   0.00000  -0.02861   0.00000
  22       12S         -0.00078   0.00000   0.00000   0.00000   0.00000
  23       12PX         0.00000  -0.00162   0.00000   0.00000  -0.00283
  24       12PY         0.00000   0.00000  -0.00162   0.00000   0.00000
  25       12PZ         0.00000   0.00000   0.00000   0.00472   0.00000
  26       13D 0        0.02081   0.00000   0.00000   0.00000   0.00000
  27       13D+1        0.00000   0.00000   0.00000   0.00000   0.00000
  28       13D-1        0.00000   0.00000   0.00000   0.00000   0.00000
  29       13D+2        0.00000   0.00000   0.00000   0.00000   0.00000
  30       13D-2        0.00000   0.00000   0.00000   0.00000   0.00000
  31 2   O  1S          0.00577   0.00000   0.00000   0.00268   0.00000
  32        2S          0.01128   0.00000   0.00000   0.00432   0.00000
  33        2PX         0.00000  -0.01023   0.00000   0.00000  -0.01825
  34        2PY         0.00000   0.00000  -0.01023   0.00000   0.00000
  35        2PZ        -0.04827   0.00000   0.00000   0.01511   0.00000
  36        3S         -0.04077   0.00000   0.00000  -0.01232   0.00000
  37        3PX         0.00000  -0.01520   0.00000   0.00000  -0.02711
  38        3PY         0.00000   0.00000  -0.01520   0.00000   0.00000
  39        3PZ        -0.06915   0.00000   0.00000   0.02323   0.00000
  40        4S         -0.06746   0.00000   0.00000  -0.00862   0.00000
  41        4PX         0.00000  -0.01367   0.00000   0.00000  -0.02438
  42        4PY         0.00000   0.00000  -0.01367   0.00000   0.00000
  43        4PZ        -0.04035   0.00000   0.00000   0.01734   0.00000
  44        5S         -0.02705   0.00000   0.00000   0.03200   0.00000
  45        5PX         0.00000  -0.00055   0.00000   0.00000  -0.00098
  46        5PY         0.00000   0.00000  -0.00055   0.00000   0.00000
  47        5PZ         0.00033   0.00000   0.00000  -0.00737   0.00000
  48        6D 0        0.00308   0.00000   0.00000  -0.00109   0.00000
  49        6D+1        0.00000   0.00094   0.00000   0.00000   0.00168
  50        6D-1        0.00000   0.00000   0.00094   0.00000   0.00000
  51        6D+2        0.00000   0.00000   0.00000   0.00000   0.00000
  52        6D-2        0.00000   0.00000   0.00000   0.00000   0.00000
  53 3   O  1S          0.00577   0.00000   0.00000  -0.00268   0.00000
  54        2S          0.01128   0.00000   0.00000  -0.00432   0.00000
  55        2PX         0.00000  -0.01023   0.00000   0.00000  -0.01825
  56        2PY         0.00000   0.00000  -0.01023   0.00000   0.00000
  57        2PZ         0.04827   0.00000   0.00000   0.01511   0.00000
  58        3S         -0.04077   0.00000   0.00000   0.01232   0.00000
  59        3PX         0.00000  -0.01520   0.00000   0.00000  -0.02711
  60        3PY         0.00000   0.00000  -0.01520   0.00000   0.00000
  61        3PZ         0.06915   0.00000   0.00000   0.02323   0.00000
  62        4S         -0.06746   0.00000   0.00000   0.00862   0.00000
  63        4PX         0.00000  -0.01367   0.00000   0.00000  -0.02438
  64        4PY         0.00000   0.00000  -0.01367   0.00000   0.00000
  65        4PZ         0.04035   0.00000   0.00000   0.01734   0.00000
  66        5S         -0.02705   0.00000   0.00000  -0.03200   0.00000
  67        5PX         0.00000  -0.00055   0.00000   0.00000  -0.00098
  68        5PY         0.00000   0.00000  -0.00055   0.00000   0.00000
  69        5PZ        -0.00033   0.00000   0.00000  -0.00737   0.00000
  70        6D 0        0.00308   0.00000   0.00000   0.00109   0.00000
  71        6D+1        0.00000  -0.00094   0.00000   0.00000  -0.00168
  72        6D-1        0.00000   0.00000  -0.00094   0.00000   0.00000
  73        6D+2        0.00000   0.00000   0.00000   0.00000   0.00000
  74        6D-2        0.00000   0.00000   0.00000   0.00000   0.00000
                          11        12        13        14        15
  11        8PY         0.48806
  12        8PZ         0.00000   0.50074
  13        9PX         0.00000   0.00000   0.02220
  14        9PY         0.02600   0.00000   0.00000   0.02220
  15        9PZ         0.00000   0.00482   0.00000   0.00000   0.05752
  16       10PX         0.00000   0.00000   0.03469   0.00000   0.00000
  17       10PY        -0.03358   0.00000   0.00000   0.03469   0.00000
  18       10PZ         0.00000  -0.03264   0.00000   0.00000   0.03240
  19       11PX         0.00000   0.00000   0.00982   0.00000   0.00000
  20       11PY        -0.00337   0.00000   0.00000   0.00982   0.00000
  21       11PZ         0.00000  -0.05073   0.00000   0.00000   0.05488
  22       12S          0.00000   0.00000   0.00000   0.00000   0.00000
  23       12PX         0.00000   0.00000   0.00155   0.00000   0.00000
  24       12PY        -0.00283   0.00000   0.00000   0.00155   0.00000
  25       12PZ         0.00000   0.00838   0.00000   0.00000  -0.00991
  26       13D 0        0.00000   0.00000   0.00000   0.00000   0.00000
  27       13D+1        0.00000   0.00000   0.00000   0.00000   0.00000
  28       13D-1        0.00000   0.00000   0.00000   0.00000   0.00000
  29       13D+2        0.00000   0.00000   0.00000   0.00000   0.00000
  30       13D-2        0.00000   0.00000   0.00000   0.00000   0.00000
  31 2   O  1S          0.00000   0.00482   0.00000   0.00000  -0.00525
  32        2S          0.00000   0.00777   0.00000   0.00000  -0.00848
  33        2PX         0.00000   0.00000   0.02400   0.00000   0.00000
  34        2PY        -0.01825   0.00000   0.00000   0.02400   0.00000
  35        2PZ         0.00000   0.02707   0.00000   0.00000  -0.04266
  36        3S          0.00000  -0.02211   0.00000   0.00000   0.02332
  37        3PX         0.00000   0.00000   0.03570   0.00000   0.00000
  38        3PY        -0.02711   0.00000   0.00000   0.03570   0.00000
  39        3PZ         0.00000   0.04162   0.00000   0.00000  -0.06569
  40        4S          0.00000  -0.01547   0.00000   0.00000   0.01345
  41        4PX         0.00000   0.00000   0.03224   0.00000   0.00000
  42        4PY        -0.02438   0.00000   0.00000   0.03224   0.00000
  43        4PZ         0.00000   0.03105   0.00000   0.00000  -0.04834
  44        5S          0.00000   0.05667   0.00000   0.00000  -0.05981
  45        5PX         0.00000   0.00000   0.00083   0.00000   0.00000
  46        5PY        -0.00098   0.00000   0.00000   0.00083   0.00000
  47        5PZ         0.00000  -0.01300   0.00000   0.00000   0.01095
  48        6D 0        0.00000  -0.00199   0.00000   0.00000   0.00435
  49        6D+1        0.00000   0.00000  -0.00244   0.00000   0.00000
  50        6D-1        0.00168   0.00000   0.00000  -0.00244   0.00000
  51        6D+2        0.00000   0.00000   0.00000   0.00000   0.00000
  52        6D-2        0.00000   0.00000   0.00000   0.00000   0.00000
  53 3   O  1S          0.00000  -0.00482   0.00000   0.00000   0.00525
  54        2S          0.00000  -0.00777   0.00000   0.00000   0.00848
  55        2PX         0.00000   0.00000   0.02400   0.00000   0.00000
  56        2PY        -0.01825   0.00000   0.00000   0.02400   0.00000
  57        2PZ         0.00000   0.02707   0.00000   0.00000  -0.04266
  58        3S          0.00000   0.02211   0.00000   0.00000  -0.02332
  59        3PX         0.00000   0.00000   0.03570   0.00000   0.00000
  60        3PY        -0.02711   0.00000   0.00000   0.03570   0.00000
  61        3PZ         0.00000   0.04162   0.00000   0.00000  -0.06569
  62        4S          0.00000   0.01547   0.00000   0.00000  -0.01345
  63        4PX         0.00000   0.00000   0.03224   0.00000   0.00000
  64        4PY        -0.02438   0.00000   0.00000   0.03224   0.00000
  65        4PZ         0.00000   0.03105   0.00000   0.00000  -0.04834
  66        5S          0.00000  -0.05667   0.00000   0.00000   0.05981
  67        5PX         0.00000   0.00000   0.00083   0.00000   0.00000
  68        5PY        -0.00098   0.00000   0.00000   0.00083   0.00000
  69        5PZ         0.00000  -0.01300   0.00000   0.00000   0.01095
  70        6D 0        0.00000   0.00199   0.00000   0.00000  -0.00435
  71        6D+1        0.00000   0.00000   0.00244   0.00000   0.00000
  72        6D-1       -0.00168   0.00000   0.00000   0.00244   0.00000
  73        6D+2        0.00000   0.00000   0.00000   0.00000   0.00000
  74        6D-2        0.00000   0.00000   0.00000   0.00000   0.00000
                          16        17        18        19        20
  16       10PX         0.06625
  17       10PY         0.00000   0.06625
  18       10PZ         0.00000   0.00000   0.02488
  19       11PX         0.01775   0.00000   0.00000   0.00482
  20       11PY         0.00000   0.01775   0.00000   0.00000   0.00482
  21       11PZ         0.00000   0.00000   0.02533   0.00000   0.00000
  22       12S          0.00000   0.00000   0.00000   0.00000   0.00000
  23       12PX         0.00318   0.00000   0.00000   0.00084   0.00000
  24       12PY         0.00000   0.00318   0.00000   0.00000   0.00084
  25       12PZ         0.00000   0.00000  -0.00538   0.00000   0.00000
  26       13D 0        0.00000   0.00000   0.00000   0.00000   0.00000
  27       13D+1        0.00000   0.00000   0.00000   0.00000   0.00000
  28       13D-1        0.00000   0.00000   0.00000   0.00000   0.00000
  29       13D+2        0.00000   0.00000   0.00000   0.00000   0.00000
  30       13D-2        0.00000   0.00000   0.00000   0.00000   0.00000
  31 2   O  1S          0.00000   0.00000   0.00308   0.00000   0.00000
  32        2S          0.00000   0.00000   0.00429   0.00000   0.00000
  33        2PX         0.04503   0.00000   0.00000   0.01212   0.00000
  34        2PY         0.00000   0.04503   0.00000   0.00000   0.01212
  35        2PZ         0.00000   0.00000  -0.03084   0.00000   0.00000
  36        3S          0.00000   0.00000  -0.01108   0.00000   0.00000
  37        3PX         0.06696   0.00000   0.00000   0.01803   0.00000
  38        3PY         0.00000   0.06696   0.00000   0.00000   0.01803
  39        3PZ         0.00000   0.00000  -0.04676   0.00000   0.00000
  40        4S          0.00000   0.00000  -0.01619   0.00000   0.00000
  41        4PX         0.06047   0.00000   0.00000   0.01628   0.00000
  42        4PY         0.00000   0.06047   0.00000   0.00000   0.01628
  43        4PZ         0.00000   0.00000  -0.03417   0.00000   0.00000
  44        5S          0.00000   0.00000  -0.02971   0.00000   0.00000
  45        5PX         0.00161   0.00000   0.00000   0.00043   0.00000
  46        5PY         0.00000   0.00161   0.00000   0.00000   0.00043
  47        5PZ         0.00000   0.00000   0.00358   0.00000   0.00000
  48        6D 0        0.00000   0.00000   0.00259   0.00000   0.00000
  49        6D+1       -0.00456   0.00000   0.00000  -0.00123   0.00000
  50        6D-1        0.00000  -0.00456   0.00000   0.00000  -0.00123
  51        6D+2        0.00000   0.00000   0.00000   0.00000   0.00000
  52        6D-2        0.00000   0.00000   0.00000   0.00000   0.00000
  53 3   O  1S          0.00000   0.00000  -0.00308   0.00000   0.00000
  54        2S          0.00000   0.00000  -0.00429   0.00000   0.00000
  55        2PX         0.04503   0.00000   0.00000   0.01212   0.00000
  56        2PY         0.00000   0.04503   0.00000   0.00000   0.01212
  57        2PZ         0.00000   0.00000  -0.03084   0.00000   0.00000
  58        3S          0.00000   0.00000   0.01108   0.00000   0.00000
  59        3PX         0.06696   0.00000   0.00000   0.01803   0.00000
  60        3PY         0.00000   0.06696   0.00000   0.00000   0.01803
  61        3PZ         0.00000   0.00000  -0.04676   0.00000   0.00000
  62        4S          0.00000   0.00000   0.01619   0.00000   0.00000
  63        4PX         0.06047   0.00000   0.00000   0.01628   0.00000
  64        4PY         0.00000   0.06047   0.00000   0.00000   0.01628
  65        4PZ         0.00000   0.00000  -0.03417   0.00000   0.00000
  66        5S          0.00000   0.00000   0.02971   0.00000   0.00000
  67        5PX         0.00161   0.00000   0.00000   0.00043   0.00000
  68        5PY         0.00000   0.00161   0.00000   0.00000   0.00043
  69        5PZ         0.00000   0.00000   0.00358   0.00000   0.00000
  70        6D 0        0.00000   0.00000  -0.00259   0.00000   0.00000
  71        6D+1        0.00456   0.00000   0.00000   0.00123   0.00000
  72        6D-1        0.00000   0.00456   0.00000   0.00000   0.00123
  73        6D+2        0.00000   0.00000   0.00000   0.00000   0.00000
  74        6D-2        0.00000   0.00000   0.00000   0.00000   0.00000
                          21        22        23        24        25
  21       11PZ         0.08046
  22       12S          0.00000   0.00017
  23       12PX         0.00000   0.00000   0.00016
  24       12PY         0.00000   0.00000   0.00000   0.00016
  25       12PZ        -0.01245   0.00000   0.00000   0.00000   0.00205
  26       13D 0        0.00000   0.00091   0.00000   0.00000   0.00000
  27       13D+1        0.00000   0.00000   0.00000   0.00000   0.00000
  28       13D-1        0.00000   0.00000   0.00000   0.00000   0.00000
  29       13D+2        0.00000   0.00000   0.00000   0.00000   0.00000
  30       13D-2        0.00000   0.00000   0.00000   0.00000   0.00000
  31 2   O  1S         -0.02619  -0.00179   0.00000   0.00000   0.00306
  32        2S         -0.03616  -0.00238   0.00000   0.00000   0.00423
  33        2PX         0.00000   0.00000   0.00215   0.00000   0.00000
  34        2PY         0.00000   0.00000   0.00000   0.00215   0.00000
  35        2PZ        -0.03346   0.00008   0.00000   0.00000   0.00696
  36        3S          0.08395   0.00531   0.00000   0.00000  -0.00973
  37        3PX         0.00000   0.00000   0.00319   0.00000   0.00000
  38        3PY         0.00000   0.00000   0.00000   0.00319   0.00000
  39        3PZ        -0.05321   0.00012   0.00000   0.00000   0.01087
  40        4S          0.07174   0.00412   0.00000   0.00000  -0.00773
  41        4PX         0.00000   0.00000   0.00288   0.00000   0.00000
  42        4PY         0.00000   0.00000   0.00000   0.00288   0.00000
  43        4PZ        -0.03983   0.00029   0.00000   0.00000   0.00806
  44        5S         -0.08324   0.00011   0.00000   0.00000   0.01318
  45        5PX         0.00000   0.00000   0.00008   0.00000   0.00000
  46        5PY         0.00000   0.00000   0.00000   0.00008   0.00000
  47        5PZ         0.02023   0.00005   0.00000   0.00000  -0.00288
  48        6D 0        0.00448   0.00003   0.00000   0.00000  -0.00080
  49        6D+1        0.00000   0.00000  -0.00022   0.00000   0.00000
  50        6D-1        0.00000   0.00000   0.00000  -0.00022   0.00000
  51        6D+2        0.00000   0.00000   0.00000   0.00000   0.00000
  52        6D-2        0.00000   0.00000   0.00000   0.00000   0.00000
  53 3   O  1S          0.02619  -0.00179   0.00000   0.00000  -0.00306
  54        2S          0.03616  -0.00238   0.00000   0.00000  -0.00423
  55        2PX         0.00000   0.00000   0.00215   0.00000   0.00000
  56        2PY         0.00000   0.00000   0.00000   0.00215   0.00000
  57        2PZ        -0.03346  -0.00008   0.00000   0.00000   0.00696
  58        3S         -0.08395   0.00531   0.00000   0.00000   0.00973
  59        3PX         0.00000   0.00000   0.00319   0.00000   0.00000
  60        3PY         0.00000   0.00000   0.00000   0.00319   0.00000
  61        3PZ        -0.05321  -0.00012   0.00000   0.00000   0.01087
  62        4S         -0.07174   0.00412   0.00000   0.00000   0.00773
  63        4PX         0.00000   0.00000   0.00288   0.00000   0.00000
  64        4PY         0.00000   0.00000   0.00000   0.00288   0.00000
  65        4PZ        -0.03983  -0.00029   0.00000   0.00000   0.00806
  66        5S          0.08324   0.00011   0.00000   0.00000  -0.01318
  67        5PX         0.00000   0.00000   0.00008   0.00000   0.00000
  68        5PY         0.00000   0.00000   0.00000   0.00008   0.00000
  69        5PZ         0.02023  -0.00005   0.00000   0.00000  -0.00288
  70        6D 0       -0.00448   0.00003   0.00000   0.00000   0.00080
  71        6D+1        0.00000   0.00000   0.00022   0.00000   0.00000
  72        6D-1        0.00000   0.00000   0.00000   0.00022   0.00000
  73        6D+2        0.00000   0.00000   0.00000   0.00000   0.00000
  74        6D-2        0.00000   0.00000   0.00000   0.00000   0.00000
                          26        27        28        29        30
  26       13D 0        0.01155
  27       13D+1        0.00000   0.01933
  28       13D-1        0.00000   0.00000   0.01933
  29       13D+2        0.00000   0.00000   0.00000   0.00000
  30       13D-2        0.00000   0.00000   0.00000   0.00000   0.00000
  31 2   O  1S         -0.00556   0.00000   0.00000   0.00000   0.00000
  32        2S         -0.00885   0.00000   0.00000   0.00000   0.00000
  33        2PX         0.00000   0.02825   0.00000   0.00000   0.00000
  34        2PY         0.00000   0.00000   0.02825   0.00000   0.00000
  35        2PZ        -0.01195   0.00000   0.00000   0.00000   0.00000
  36        3S          0.02534   0.00000   0.00000   0.00000   0.00000
  37        3PX         0.00000   0.04175   0.00000   0.00000   0.00000
  38        3PY         0.00000   0.00000   0.04175   0.00000   0.00000
  39        3PZ        -0.01706   0.00000   0.00000   0.00000   0.00000
  40        4S          0.01028   0.00000   0.00000   0.00000   0.00000
  41        4PX         0.00000   0.03839   0.00000   0.00000   0.00000
  42        4PY         0.00000   0.00000   0.03839   0.00000   0.00000
  43        4PZ        -0.00849   0.00000   0.00000   0.00000   0.00000
  44        5S         -0.00616   0.00000   0.00000   0.00000   0.00000
  45        5PX         0.00000   0.00934   0.00000   0.00000   0.00000
  46        5PY         0.00000   0.00000   0.00934   0.00000   0.00000
  47        5PZ         0.00036   0.00000   0.00000   0.00000   0.00000
  48        6D 0        0.00098   0.00000   0.00000   0.00000   0.00000
  49        6D+1        0.00000  -0.00204   0.00000   0.00000   0.00000
  50        6D-1        0.00000   0.00000  -0.00204   0.00000   0.00000
  51        6D+2        0.00000   0.00000   0.00000   0.00000   0.00000
  52        6D-2        0.00000   0.00000   0.00000   0.00000   0.00000
  53 3   O  1S         -0.00556   0.00000   0.00000   0.00000   0.00000
  54        2S         -0.00885   0.00000   0.00000   0.00000   0.00000
  55        2PX         0.00000  -0.02825   0.00000   0.00000   0.00000
  56        2PY         0.00000   0.00000  -0.02825   0.00000   0.00000
  57        2PZ         0.01195   0.00000   0.00000   0.00000   0.00000
  58        3S          0.02534   0.00000   0.00000   0.00000   0.00000
  59        3PX         0.00000  -0.04175   0.00000   0.00000   0.00000
  60        3PY         0.00000   0.00000  -0.04175   0.00000   0.00000
  61        3PZ         0.01706   0.00000   0.00000   0.00000   0.00000
  62        4S          0.01028   0.00000   0.00000   0.00000   0.00000
  63        4PX         0.00000  -0.03839   0.00000   0.00000   0.00000
  64        4PY         0.00000   0.00000  -0.03839   0.00000   0.00000
  65        4PZ         0.00849   0.00000   0.00000   0.00000   0.00000
  66        5S         -0.00616   0.00000   0.00000   0.00000   0.00000
  67        5PX         0.00000  -0.00934   0.00000   0.00000   0.00000
  68        5PY         0.00000   0.00000  -0.00934   0.00000   0.00000
  69        5PZ        -0.00036   0.00000   0.00000   0.00000   0.00000
  70        6D 0        0.00098   0.00000   0.00000   0.00000   0.00000
  71        6D+1        0.00000  -0.00204   0.00000   0.00000   0.00000
  72        6D-1        0.00000   0.00000  -0.00204   0.00000   0.00000
  73        6D+2        0.00000   0.00000   0.00000   0.00000   0.00000
  74        6D-2        0.00000   0.00000   0.00000   0.00000   0.00000
                          31        32        33        34        35
  31 2   O  1S          0.32103
  32        2S          0.28511   0.26213
  33        2PX         0.00000   0.00000   0.07192
  34        2PY         0.00000   0.00000   0.00000   0.07192
  35        2PZ        -0.00497  -0.00773   0.00000   0.00000   0.06309
  36        3S         -0.06912  -0.11662   0.00000   0.00000   0.02331
  37        3PX         0.00000   0.00000   0.10658   0.00000   0.00000
  38        3PY         0.00000   0.00000   0.00000   0.10658   0.00000
  39        3PZ        -0.00536  -0.00904   0.00000   0.00000   0.09368
  40        4S         -0.07148  -0.11143   0.00000   0.00000   0.04549
  41        4PX         0.00000   0.00000   0.09726   0.00000   0.00000
  42        4PY         0.00000   0.00000   0.00000   0.09726   0.00000
  43        4PZ        -0.00382  -0.00692   0.00000   0.00000   0.06292
  44        5S          0.02623   0.03426   0.00000   0.00000   0.05170
  45        5PX         0.00000   0.00000   0.01474   0.00000   0.00000
  46        5PY         0.00000   0.00000   0.00000   0.01474   0.00000
  47        5PZ        -0.00917  -0.01271   0.00000   0.00000  -0.00488
  48        6D 0       -0.00056  -0.00087   0.00000   0.00000  -0.00494
  49        6D+1        0.00000   0.00000  -0.00608   0.00000   0.00000
  50        6D-1        0.00000   0.00000   0.00000  -0.00608   0.00000
  51        6D+2        0.00000   0.00000   0.00000   0.00000   0.00000
  52        6D-2        0.00000   0.00000   0.00000   0.00000   0.00000
  53 3   O  1S          0.00022   0.00041   0.00000   0.00000  -0.00059
  54        2S          0.00041   0.00068   0.00000   0.00000  -0.00099
  55        2PX         0.00000   0.00000  -0.01063   0.00000   0.00000
  56        2PY         0.00000   0.00000   0.00000  -0.01063   0.00000
  57        2PZ         0.00059   0.00099   0.00000   0.00000   0.01440
  58        3S         -0.00199  -0.00306   0.00000   0.00000   0.00255
  59        3PX         0.00000   0.00000  -0.01542   0.00000   0.00000
  60        3PY         0.00000   0.00000   0.00000  -0.01542   0.00000
  61        3PZ         0.00166   0.00272   0.00000   0.00000   0.02399
  62        4S          0.00467   0.00622   0.00000   0.00000   0.01145
  63        4PX         0.00000   0.00000  -0.01493   0.00000   0.00000
  64        4PY         0.00000   0.00000   0.00000  -0.01493   0.00000
  65        4PZ         0.00299   0.00442   0.00000   0.00000   0.02314
  66        5S         -0.02505  -0.03556   0.00000   0.00000  -0.02592
  67        5PX         0.00000   0.00000  -0.01256   0.00000   0.00000
  68        5PY         0.00000   0.00000   0.00000  -0.01256   0.00000
  69        5PZ        -0.00697  -0.01002   0.00000   0.00000  -0.00507
  70        6D 0        0.00045   0.00069   0.00000   0.00000   0.00173
  71        6D+1        0.00000   0.00000   0.00013   0.00000   0.00000
  72        6D-1        0.00000   0.00000   0.00000   0.00013   0.00000
  73        6D+2        0.00000   0.00000   0.00000   0.00000   0.00000
  74        6D-2        0.00000   0.00000   0.00000   0.00000   0.00000
                          36        37        38        39        40
  36        3S          0.35752
  37        3PX         0.00000   0.15794
  38        3PY         0.00000   0.00000   0.15794
  39        3PZ         0.03023   0.00000   0.00000   0.13933
  40        4S          0.31328   0.00000   0.00000   0.06278   0.29125
  41        4PX         0.00000   0.14412   0.00000   0.00000   0.00000
  42        4PY         0.00000   0.00000   0.14412   0.00000   0.00000
  43        4PZ         0.02442   0.00000   0.00000   0.09395   0.04310
  44        5S         -0.07150   0.00000   0.00000   0.07970  -0.05080
  45        5PX         0.00000   0.02180   0.00000   0.00000   0.00000
  46        5PY         0.00000   0.00000   0.02180   0.00000   0.00000
  47        5PZ         0.02988   0.00000   0.00000  -0.00816   0.02660
[...]
 Charge=     0.0000 electrons
 Dipole moment (field-independent basis, Debye):
    X=     0.0000    Y=     0.0000    Z=     0.0000  Tot=     0.0000
 Quadrupole moment (field-independent basis, Debye-Ang):
   XX=   -20.1655   YY=   -20.1655   ZZ=   -33.4781
   XY=     0.0000   XZ=     0.0000   YZ=     0.0000
 Traceless Quadrupole moment (field-independent basis, Debye-Ang):
   XX=     4.4375   YY=     4.4375   ZZ=    -8.8751
   XY=     0.0000   XZ=     0.0000   YZ=     0.0000
 Octapole moment (field-independent basis, Debye-Ang**2):
  XXX=     0.0000  YYY=     0.0000  ZZZ=     0.0000  XYY=     0.0000
  XXY=     0.0000  XXZ=     0.0000  XZZ=     0.0000  YZZ=     0.0000
  YYZ=     0.0000  XYZ=     0.0000
 Hexadecapole moment (field-independent basis, Debye-Ang**3):
 XXXX=   -21.0679 YYYY=   -21.0679 ZZZZ=  -211.8062 XXXY=     0.0000
 XXXZ=     0.0000 YYYX=     0.0000 YYYZ=     0.0000 ZZZX=     0.0000
 ZZZY=     0.0000 XXYY=    -7.0226 XXZZ=   -36.1381 YYZZ=   -36.1381
 XXYZ=     0.0000 YYXZ=     0.0000 ZZXY=     0.0000
 N-N= 8.934442138879D+01 E-N=-1.224881888349D+03  KE= 4.391425125919D+02
 Symmetry AG   KE= 2.796819683251D+02
 Symmetry B1G  KE= 7.169585475117D-34
 Symmetry B2G  KE= 4.393572055337D+00
 Symmetry B3G  KE= 4.393572055337D+00
 Symmetry AU   KE= 4.690468473061D-35
 Symmetry B1U  KE= 9.414432917802D+01
 Symmetry B2U  KE= 2.826453548904D+01
 Symmetry B3U  KE= 2.826453548904D+01
 Orbital energies and kinetic energies (alpha):
                           1         2
      11  (SGU)--O     -0.40858   2.66084
      12  (PIU)--O     -0.39622   1.93868
      13  (PIU)--O     -0.39622   1.93868
      14  (PIG)--O     -0.35764   2.19679
      15  (PIG)--O     -0.35764   2.19679
      16  (SGG)--V     -0.13826   1.56075
      17  (PIU)--V     -0.03803   1.60417
      18  (PIU)--V     -0.03803   1.60417
      19  (SGU)--V      0.04461   0.19697
      20  (SGG)--V      0.05289   0.62742
 Orbital energies and kinetic energies (beta):
                           1         2
      11  (SGU)--O     -0.40858   2.66084
      12  (PIU)--O     -0.39622   1.93868
      13  (PIU)--O     -0.39622   1.93868
      14  (PIG)--O     -0.35764   2.19679
      15  (PIG)--O     -0.35764   2.19679
      16  (SGG)--V     -0.13826   1.56075
      17  (PIU)--V     -0.03803   1.60417
      18  (PIU)--V     -0.03803   1.60417
      19  (SGU)--V      0.04461   0.19697
      20  (SGG)--V      0.05289   0.62742
 Total kinetic energy from orbitals= 4.391425125919D+02
  Exact polarizability:  18.840   0.000  18.840   0.000   0.000  40.683
 Approx polarizability:  22.643   0.000  22.643   0.000   0.000  77.166
                          Isotropic Fermi Contact Couplings
        Atom                 a.u.       MegaHertz       Gauss      10(-4) cm-1
     1  Si(29)             0.00000       0.00000       0.00000       0.00000
     2  O(17)              0.00000       0.00000       0.00000       0.00000
     3  O(17)              0.00000       0.00000       0.00000       0.00000
 --------------------------------------------------------
       Center         ----  Spin Dipole Couplings  ----
                      3XX-RR        3YY-RR        3ZZ-RR
 --------------------------------------------------------
     1   Atom        0.000000      0.000000      0.000000
     2   Atom        0.000000      0.000000      0.000000
     3   Atom        0.000000      0.000000      0.000000
 --------------------------------------------------------
                        XY            XZ            YZ
 --------------------------------------------------------
     1   Atom        0.000000      0.000000      0.000000
     2   Atom        0.000000      0.000000      0.000000
     3   Atom        0.000000      0.000000      0.000000
 --------------------------------------------------------


 ---------------------------------------------------------------------------------
              Anisotropic Spin Dipole Couplings in Principal Axis System
 ---------------------------------------------------------------------------------

       Atom             a.u.   MegaHertz   Gauss  10(-4) cm-1        Axes

              Baa     0.0000     0.000     0.000     0.000  1.0000  0.0000  0.0000
     1 Si(29) Bbb     0.0000     0.000     0.000     0.000  0.0000  1.0000  0.0000
              Bcc     0.0000     0.000     0.000     0.000  0.0000  0.0000  1.0000
 
              Baa     0.0000     0.000     0.000     0.000  1.0000  0.0000  0.0000
     2 O(17)  Bbb     0.0000     0.000     0.000     0.000  0.0000  1.0000  0.0000
              Bcc     0.0000     0.000     0.000     0.000  0.0000  0.0000  1.0000
 
              Baa     0.0000     0.000     0.000     0.000  1.0000  0.0000  0.0000
     3 O(17)  Bbb     0.0000     0.000     0.000     0.000  0.0000  1.0000  0.0000
              Bcc     0.0000     0.000     0.000     0.000  0.0000  0.0000  1.0000
 

 ---------------------------------------------------------------------------------

 No NMR shielding tensors so no spin-rotation constants.
 Leave Link  601 at Thu Mar 26 18:14:51 2009, MaxMem=    6291456 cpu:       0.3
 (Enter /opt//g03/l701.exe)
 Compute integral second derivatives.
 ... and contract with generalized density number  0.
 Leave Link  701 at Thu Mar 26 18:14:52 2009, MaxMem=    6291456 cpu:       0.3
 (Enter /opt//g03/l702.exe)
 L702 exits ... SP integral derivatives will be done elsewhere.
 Leave Link  702 at Thu Mar 26 18:14:52 2009, MaxMem=    6291456 cpu:       0.0
 (Enter /opt//g03/l703.exe)
 Compute integral second derivatives, UseDBF=F.
 Integral derivatives from FoFDir, PRISM(SPDF).
 Petite list used in FoFDir.
 MinBra= 0 MaxBra= 2 Meth= 1.
 IRaf=       0 NMat=   1 IRICut=       1 DoRegI=T DoRafI=F ISym2E= 1 JSym2E=1.
 Leave Link  703 at Thu Mar 26 18:14:54 2009, MaxMem=    6291456 cpu:       5.4
 (Enter /opt//g03/l716.exe)
 Dipole        =-2.47186624D-16 1.00211555D-33-1.17797250D-15
 Polarizability= 1.88402698D+01 4.53369148D-12 1.88402698D+01
                -1.35233756D-11 5.65810655D-12 4.06825104D+01
 Full mass-weighted force constant matrix:
 Low frequencies ---   -8.8394   -8.8394   -0.0044   -0.0015   -0.0015  286.0920
 Low frequencies ---  286.0920  990.9153 1443.6681
 Diagonal vibrational polarizability:
       29.4101730      29.4101730       1.4777073
 Harmonic frequencies (cm**-1), IR intensities (KM/Mole), Raman scattering
 activities (A**4/AMU), depolarization ratios for plane and unpolarized
 incident light, reduced masses (AMU), force constants (mDyne/A),
 and normal coordinates:
                     1                      2                      3
                    PIU                    PIU                    SGG
 Frequencies --   286.0920               286.0920               990.9153
 Red. masses --    20.7315                20.7315                15.9949
 Frc consts  --     0.9997                 0.9997                 9.2535
 IR Inten    --    89.4491                89.4491                 0.0000
 Atom AN      X      Y      Z        X      Y      Z        X      Y      Z
   1  14     0.62   0.07   0.00    -0.07   0.62   0.00     0.00   0.00   0.00
   2   8    -0.55  -0.06   0.00     0.06  -0.55   0.00     0.00   0.00   0.71
   3   8    -0.55  -0.06   0.00     0.06  -0.55   0.00     0.00   0.00  -0.71
                     4
                    SGU
 Frequencies --  1443.6681
 Red. masses --    20.7315
 Frc consts  --    25.4574
 IR Inten    --   114.4432
 Atom AN      X      Y      Z
   1  14     0.00   0.00   0.63
   2   8     0.00   0.00  -0.55
   3   8     0.00   0.00  -0.55

 -------------------
 - Thermochemistry -
 -------------------
 Temperature   298.150 Kelvin.  Pressure   1.00000 Atm.
 Atom  1 has atomic number 14 and mass  27.97693
 Atom  2 has atomic number  8 and mass  15.99491
 Atom  3 has atomic number  8 and mass  15.99491
 Molecular mass:    59.96676 amu.
 Principal axes and moments of inertia in atomic units:
                           1         2         3
     EIGENVALUES --     0.00000 262.63764 262.63764
           X            0.00000   1.00000   0.00000
           Y            0.00000   0.00000   1.00000
           Z            1.00000   0.00000   0.00000
 This molecule is a prolate symmetric top.
 Rotational symmetry number  2.
 Rotational temperature (Kelvin)      0.32978
 Rotational constant (GHZ):           6.871601
 Zero-point vibrational energy      17984.5 (Joules/Mol)
                                    4.29839 (Kcal/Mol)
 Warning -- explicit consideration of   2 degrees of freedom as
           vibrations may cause significant error
 Vibrational temperatures:    411.62   411.62  1425.70  2077.11
          (Kelvin)
 
 Zero-point correction=                           0.006850 (Hartree/Particle)
 Thermal correction to Energy=                    0.010130
 Thermal correction to Enthalpy=                  0.011075
 Thermal correction to Gibbs Free Energy=        -0.015265
 Sum of electronic and zero-point Energies=           -439.912276
 Sum of electronic and thermal Energies=              -439.908995
 Sum of electronic and thermal Enthalpies=            -439.908051
 Sum of electronic and thermal Free Energies=         -439.934391
 
                     E (Thermal)             CV                S
                      KCal/Mol        Cal/Mol-Kelvin    Cal/Mol-Kelvin
 Total                    6.357              8.845             55.436
 Electronic               0.000              0.000              0.000
 Translational            0.889              2.981             38.194
 Rotational               0.592              1.987             14.137
 Vibrational              4.876              3.877              3.106
 Vibration  1             0.684              1.700              1.497
 Vibration  2             0.684              1.700              1.497
                       Q            Log10(Q)             Ln(Q)
 Total Bot       0.105041D+08          7.021359         16.167276
 Total V=0       0.148627D+11         10.172096         23.422118
 Vib (Bot)       0.127310D-02         -2.895137         -6.666299
 Vib (Bot)  1    0.669850D+00         -0.174023         -0.400702
 Vib (Bot)  2    0.669850D+00         -0.174023         -0.400702
 Vib (V=0)       0.180136D+01          0.255601          0.588543
 Vib (V=0)  1    0.133588D+01          0.125768          0.289592
 Vib (V=0)  2    0.133588D+01          0.125768          0.289592
 Electronic      0.100000D+01          0.000000          0.000000
 Translational   0.182524D+08          7.261321         16.719810
 Rotational      0.452038D+03          2.655175          6.113765
 
                                                     #NewComb uB971/6-311+G(d,p)
                                                             IR Spectrum
 
     1                                                                                                                               
     4                                       9                                                             2                         
     4                                       9                                                             8                         
     4                                       1                                                             6                         
 
     X                                                                                                     X                         
     X                                                                                                     X                         
     X                                                                                                     X                         
     X                                                                                                     X                         
     X                                                                                                     X                         
     X                                                                                                     X                         
     X                                                                                                     X                         
     X                                                                                                     X                         
     X                                                                                                     X                         
     X                                                                                                     X                         
     X                                                                                                     X                         
     X                                                                                                     X                         
     X                                                                                                     X                         
                                                                                                           X                         
                                                                                                           X                         
                                                                                                           X                         
                                                                                                           X                         
                                                                                                           X                         
                                                                                                           X                         
                                                                                                           X                         
 
 ***** Axes restored to original set *****
 -------------------------------------------------------------------
 Center     Atomic                   Forces (Hartrees/Bohr)
 Number     Number              X              Y              Z
 -------------------------------------------------------------------
    1         14           0.000000000    0.000000000    0.000000000
    2          8           0.000000000    0.000000000   -0.000000026
    3          8           0.000000000    0.000000000    0.000000026
 -------------------------------------------------------------------
 Cartesian Forces:  Max     0.000000026 RMS     0.000000012
 Force constants in Cartesian coordinates: 
                1             2             3             4             5
      1  0.462279D-01
      2  0.000000D+00  0.462279D-01
      3  0.000000D+00  0.000000D+00  0.117714D+01
      4 -0.231139D-01  0.000000D+00  0.000000D+00  0.115333D-01
      5  0.000000D+00 -0.231139D-01  0.000000D+00  0.000000D+00  0.115333D-01
      6  0.000000D+00  0.000000D+00 -0.588569D+00  0.000000D+00  0.000000D+00
      7 -0.231139D-01  0.000000D+00  0.000000D+00  0.115806D-01  0.000000D+00
      8  0.000000D+00 -0.231139D-01  0.000000D+00  0.000000D+00  0.115806D-01
      9  0.000000D+00  0.000000D+00 -0.588569D+00  0.000000D+00  0.000000D+00
                6             7             8             9
      6  0.591462D+00
      7  0.000000D+00  0.115333D-01
      8  0.000000D+00  0.000000D+00  0.115333D-01
      9 -0.289322D-02  0.000000D+00  0.000000D+00  0.591462D+00
 Force constants in internal coordinates: 
                1             2             3             4
      1  0.591462D+00
      2  0.289322D-02  0.591462D+00
      3  0.000000D+00  0.000000D+00  0.948831D-01
      4  0.000000D+00  0.000000D+00  0.000000D+00  0.948831D-01
 Leave Link  716 at Thu Mar 26 18:14:55 2009, MaxMem=    6291456 cpu:       0.0
 (Enter /opt//g03/l103.exe)

 GradGradGradGradGradGradGradGradGradGradGradGradGradGradGradGradGradGrad
 Berny optimization.
 Internal  Forces:  Max     0.000000026 RMS     0.000000018
 Search for a local minimum.
 Step number   1 out of a maximum of   2
 All quantities printed in internal units (Hartrees-Bohrs-Radians)
 Second derivative matrix not updated -- analytic derivatives used.
 The second derivative matrix:
                          R1        R2        A1        A2
           R1           0.59146
           R2           0.00289   0.59146
           A1           0.00000   0.00000   0.09488
           A2           0.00000   0.00000   0.00000   0.09488
     Eigenvalues ---    0.09488   0.09488   0.58857   0.59436
 Angle between quadratic step and forces=  90.00 degrees.
 Linear search not attempted -- first point.
 Iteration  1 RMS(Cart)=  0.00000003 RMS(Int)=  0.00000000
 Variable       Old X    -DE/DX   Delta X   Delta X   Delta X     New X
                                 (Linear)    (Quad)   (Total)
    R1        2.86532   0.00000   0.00000   0.00000   0.00000   2.86532
    R2        2.86532   0.00000   0.00000   0.00000   0.00000   2.86532
    A1        3.14159   0.00000   0.00000   0.00000   0.00000   3.14159
    A2        3.14159   0.00000   0.00000   0.00000   0.00000   3.14159
         Item               Value     Threshold  Converged?
 Maximum Force            0.000000     0.000015     YES
 RMS     Force            0.000000     0.000010     YES
 Maximum Displacement     0.000000     0.000060     YES
 RMS     Displacement     0.000000     0.000040     YES
 Predicted change in Energy=-1.115840D-15
 Optimization completed.
    -- Stationary point found.
                           ----------------------------
                           !   Optimized Parameters   !
                           ! (Angstroms and Degrees)  !
 --------------------------                            --------------------------
 ! Name  Definition              Value          Derivative Info.                !
 --------------------------------------------------------------------------------
 ! R1    R(1,2)                  1.5163         -DE/DX =    0.0                 !
 ! R2    R(1,3)                  1.5163         -DE/DX =    0.0                 !
 ! A1    L(2,1,3,-1,-1)        180.0            -DE/DX =    0.0                 !
 ! A2    L(2,1,3,-2,-2)        180.0            -DE/DX =    0.0                 !
 --------------------------------------------------------------------------------
 GradGradGradGradGradGradGradGradGradGradGradGradGradGradGradGradGradGrad

 Leave Link  103 at Thu Mar 26 18:14:55 2009, MaxMem=    6291456 cpu:       0.0
 (Enter /opt//g03/l9999.exe)
 1\1\GINC-BOTTICELLI\Freq\UB971\6-311+G(d,p)\O2Si1\SS663\26-Mar-2009\0\
 \#P Geom=AllCheck Guess=Read SCRF=Check GenChk UB971/6-311+G(d,p) Freq
 \\#NewComb uB971/6-311+G(d,p)\\0,1\Si,0.,0.,0.\O,0.,0.,1.5162599211\O,
 0.,0.,-1.5162599211\\Version=AM64L-G03RevE.01\State=1-SGG\HF=-439.9191
 259\S2=0.\S2-1=0.\S2A=0.\RMSD=1.029e-09\RMSF=1.214e-08\ZeroPoint=0.006
 8499\Thermal=0.0101304\Dipole=0.,0.,0.\DipoleDeriv=1.1702077,0.,0.,0.,
 1.1702077,0.,0.,0.,1.3236406,-0.5851038,0.,0.,0.,-0.5851038,0.,0.,0.,-
 0.6618203,-0.5851038,0.,0.,0.,-0.5851038,0.,0.,0.,-0.6618203\Polar=18.
 8402698,0.,18.8402698,0.,0.,40.6825104\PG=D*H [O(Si1),C*(O1.O1)]\NImag
 =0\\0.04622789,0.,0.04622789,0.,0.,1.17713853,-0.02311395,0.,0.,0.0115
 3333,0.,-0.02311395,0.,0.,0.01153333,0.,0.,-0.58856926,0.,0.,0.5914624
 8,-0.02311395,0.,0.,0.01158062,0.,0.,0.01153333,0.,-0.02311395,0.,0.,0
 .01158062,0.,0.,0.01153333,0.,0.,-0.58856926,0.,0.,-0.00289322,0.,0.,0
 .59146248\\0.,0.,0.,0.,0.,0.00000003,0.,0.,-0.00000003\\\@


 THERE IS NOTHING NOBLE IN BEING SUPERIOR TO SOME OTHER MAN.
 TRUE NOBILITY IS BEING SUPERIOR TO YOUR FORMER SELF.

                                                   -- HINDU PROVERB
 Job cpu time:  0 days  0 hours  0 minutes 35.8 seconds.
 File lengths (MBytes):  RWF=     18 Int=      0 D2E=      0 Chk=      6 Scr=      1
 Normal termination of Gaussian 03 at Thu Mar 26 18:14:55 2009.
