 Entering Gaussian System, Link 0=g09
 Initial command:
 /usr/local/Cluster-Apps/gaussian/g09/l1.exe "/rds/user/am2145/hpc-work/scratch/26060940/Gau-54011.inp" -scrdir="/rds/user/am2145/hpc-work/scratch/26060940/"
 Entering Link 1 = /usr/local/Cluster-Apps/gaussian/g09/l1.exe PID=     54012.
  
 Copyright (c) 1988,1990,1992,1993,1995,1998,2003,2009,2013,
            Gaussian, Inc.  All Rights Reserved.
  
 This is part of the Gaussian(R) 09 program.  It is based on
 the Gaussian(R) 03 system (copyright 2003, Gaussian, Inc.),
 the Gaussian(R) 98 system (copyright 1998, Gaussian, Inc.),
 the Gaussian(R) 94 system (copyright 1995, Gaussian, Inc.),
 the Gaussian 92(TM) system (copyright 1992, Gaussian, Inc.),
 the Gaussian 90(TM) system (copyright 1990, Gaussian, Inc.),
 the Gaussian 88(TM) system (copyright 1988, Gaussian, Inc.),
 the Gaussian 86(TM) system (copyright 1986, Carnegie Mellon
 University), and the Gaussian 82(TM) system (copyright 1983,
 Carnegie Mellon University). Gaussian is a federally registered
 trademark of Gaussian, Inc.
  
 This software contains proprietary and confidential information,
 including trade secrets, belonging to Gaussian, Inc.
  
 This software is provided under written license and may be
 used, copied, transmitted, or stored only in accord with that
 written license.
  
 The following legend is applicable only to US Government
 contracts under FAR:
  
                    RESTRICTED RIGHTS LEGEND
  
 Use, reproduction and disclosure by the US Government is
 subject to restrictions as set forth in subparagraphs (a)
 and (c) of the Commercial Computer Software - Restricted
 Rights clause in FAR 52.227-19.
  
 Gaussian, Inc.
 340 Quinnipiac St., Bldg. 40, Wallingford CT 06492
  
  
 ---------------------------------------------------------------
 Warning -- This program may not be used in any manner that
 competes with the business of Gaussian, Inc. or will provide
 assistance to any competitor of Gaussian, Inc.  The licensee
 of this program is prohibited from giving any competitor of
 Gaussian, Inc. access to this program.  By using this program,
 the user acknowledges that Gaussian, Inc. is engaged in the
 business of creating and licensing software in the field of
 computational chemistry and represents and warrants to the
 licensee that it is not a competitor of Gaussian, Inc. and that
 it will not use this program in any manner prohibited above.
 ---------------------------------------------------------------
  

 Cite this work as:
 Gaussian 09, Revision D.01,
 M. J. Frisch, G. W. Trucks, H. B. Schlegel, G. E. Scuseria, 
 M. A. Robb, J. R. Cheeseman, G. Scalmani, V. Barone, B. Mennucci, 
 G. A. Petersson, H. Nakatsuji, M. Caricato, X. Li, H. P. Hratchian, 
 A. F. Izmaylov, J. Bloino, G. Zheng, J. L. Sonnenberg, M. Hada, 
 M. Ehara, K. Toyota, R. Fukuda, J. Hasegawa, M. Ishida, T. Nakajima, 
 Y. Honda, O. Kitao, H. Nakai, T. Vreven, J. A. Montgomery, Jr., 
 J. E. Peralta, F. Ogliaro, M. Bearpark, J. J. Heyd, E. Brothers, 
 K. N. Kudin, V. N. Staroverov, T. Keith, R. Kobayashi, J. Normand, 
 K. Raghavachari, A. Rendell, J. C. Burant, S. S. Iyengar, J. Tomasi, 
 M. Cossi, N. Rega, J. M. Millam, M. Klene, J. E. Knox, J. B. Cross, 
 V. Bakken, C. Adamo, J. Jaramillo, R. Gomperts, R. E. Stratmann, 
 O. Yazyev, A. J. Austin, R. Cammi, C. Pomelli, J. W. Ochterski, 
 R. L. Martin, K. Morokuma, V. G. Zakrzewski, G. A. Voth, 
 P. Salvador, J. J. Dannenberg, S. Dapprich, A. D. Daniels, 
 O. Farkas, J. B. Foresman, J. V. Ortiz, J. Cioslowski, 
 and D. J. Fox, Gaussian, Inc., Wallingford CT, 2013.
 
 ******************************************
 Gaussian 09:  ES64L-G09RevD.01 24-Apr-2013
                17-Jul-2020 
 ******************************************
 %NProcShared=20
 Will use up to   20 processors via shared memory.
 %mem=64GB
 %Chk=co2.chk
 -----
 #n G2
 -----
 1/18=20,19=15,38=1/1,3;
 2/9=110,12=2,17=6,18=5,40=1/2;
 3/5=1,6=6,7=1,11=9,16=1,25=1,30=1,71=1/1,2,3;
 4//1;
 5/5=2,38=5/2;
 6/7=2,8=2,9=2,10=2,28=1/1;
 7//1,2,3,16;
 1/18=20,19=15/3(2);
 2/9=110/2;
 99//99;
 2/9=110/2;
 3/5=1,6=6,7=1,11=9,16=1,25=1,30=1,71=1/1,2,3;
 4/5=5,16=3,69=1/1;
 5/5=2,38=5/2;
 7//1,2,3,16;
 1/18=20,19=15/3(-5);
 2/9=110/2;
 6/7=2,8=2,9=2,10=2,19=2,28=1/1;
 99/9=1/99;
 ----------
 co2_backup
 ----------
 Symbolic Z-matrix:
 Charge =  0 Multiplicity = 1
 C                    -3.55536  -0.51345   0. 
 O                    -4.65534  -0.52079   0. 
 O                    -2.45539  -0.50613   0. 
 

 GradGradGradGradGradGradGradGradGradGradGradGradGradGradGradGradGradGrad
 Berny optimization.
 Initialization pass.
                           ----------------------------
                           !    Initial Parameters    !
                           ! (Angstroms and Degrees)  !
 --------------------------                            --------------------------
 ! Name  Definition              Value          Derivative Info.                !
 --------------------------------------------------------------------------------
 ! R1    R(1,2)                  1.1            estimate D2E/DX2                !
 ! R2    R(1,3)                  1.1            estimate D2E/DX2                !
 ! A1    L(2,1,3,-3,-1)        180.001          estimate D2E/DX2                !
 ! A2    L(2,1,3,-2,-2)        180.0            estimate D2E/DX2                !
 --------------------------------------------------------------------------------
 Trust Radius=3.00D-01 FncErr=1.00D-07 GrdErr=1.00D-07
 Number of steps in this run=     20 maximum allowed number of steps=    100.
 GradGradGradGradGradGradGradGradGradGradGradGradGradGradGradGradGradGrad

                          Input orientation:                          
 ---------------------------------------------------------------------
 Center     Atomic      Atomic             Coordinates (Angstroms)
 Number     Number       Type             X           Y           Z
 ---------------------------------------------------------------------
      1          6           0       -3.555360   -0.513450    0.000000
      2          8           0       -4.655340   -0.520790    0.000000
      3          8           0       -2.455390   -0.506130    0.000000
 ---------------------------------------------------------------------
                    Distance matrix (angstroms):
                    1          2          3
     1  C    0.000000
     2  O    1.100004   0.000000
     3  O    1.099994   2.199999   0.000000
 Stoichiometry    CO2
 Framework group  C*V[C*(OCO)]
 Deg. of freedom     2
 Full point group                 C*V     NOp   4
 Largest Abelian subgroup         C2V     NOp   4
 Largest concise Abelian subgroup C1      NOp   1
                         Standard orientation:                         
 ---------------------------------------------------------------------
 Center     Atomic      Atomic             Coordinates (Angstroms)
 Number     Number       Type             X           Y           Z
 ---------------------------------------------------------------------
      1          6           0        0.000000    0.000000   -0.000004
      2          8           0        0.000000    0.000000    1.100001
      3          8           0        0.000000    0.000000   -1.099998
 ---------------------------------------------------------------------
 Rotational constants (GHZ):      0.0000000     13.0563072     13.0563072
 Standard basis: 6-31G(d) (6D, 7F)
 There are    24 symmetry adapted cartesian basis functions of A1  symmetry.
 There are     3 symmetry adapted cartesian basis functions of A2  symmetry.
 There are     9 symmetry adapted cartesian basis functions of B1  symmetry.
 There are     9 symmetry adapted cartesian basis functions of B2  symmetry.
 There are    24 symmetry adapted basis functions of A1  symmetry.
 There are     3 symmetry adapted basis functions of A2  symmetry.
 There are     9 symmetry adapted basis functions of B1  symmetry.
 There are     9 symmetry adapted basis functions of B2  symmetry.
    45 basis functions,    84 primitive gaussians,    45 cartesian basis functions
    11 alpha electrons       11 beta electrons
       nuclear repulsion energy        61.5770166006 Hartrees.
 NAtoms=    3 NActive=    3 NUniq=    3 SFac= 1.00D+00 NAtFMM=   60 NAOKFM=F Big=F
 Integral buffers will be    131072 words long.
 Raffenetti 1 integral format.
 Two-electron integral symmetry is turned on.
 One-electron integrals computed using PRISM.
 NBasis=    45 RedAO= T EigKep=  5.38D-03  NBF=    24     3     9     9
 NBsUse=    45 1.00D-06 EigRej= -1.00D+00 NBFU=    24     3     9     9
 ExpMin= 1.69D-01 ExpMax= 5.48D+03 ExpMxC= 8.25D+02 IAcc=1 IRadAn=         1 AccDes= 0.00D+00
 Harris functional with IExCor=  205 and IRadAn=       1 diagonalized for initial guess.
 HarFok:  IExCor=  205 AccDes= 0.00D+00 IRadAn=         1 IDoV= 1 UseB2=F ITyADJ=14
 ICtDFT=  3500011 ScaDFX=  1.000000  1.000000  1.000000  1.000000
 FoFCou: FMM=F IPFlag=           0 FMFlag=      100000 FMFlg1=           0
         NFxFlg=           0 DoJE=T BraDBF=F KetDBF=T FulRan=T
         wScrn=  0.000000 ICntrl=     500 IOpCl=  0 I1Cent=   200000004 NGrid=           0
         NMat0=    1 NMatS0=      1 NMatT0=    0 NMatD0=    1 NMtDS0=    0 NMtDT0=    0
 Petite list used in FoFCou.
 Initial guess orbital symmetries:
       Occupied  (SG) (SG) (SG) (SG) (SG) (SG) (SG) (PI) (PI) (PI)
                 (PI)
       Virtual   (PI) (PI) (SG) (SG) (PI) (PI) (SG) (SG) (SG) (PI)
                 (PI) (PI) (PI) (SG) (DLTA) (DLTA) (SG) (PI) (PI)
                 (DLTA) (DLTA) (SG) (DLTA) (DLTA) (PI) (PI) (SG)
                 (SG) (PI) (PI) (SG) (SG) (SG) (SG)
 The electronic state of the initial guess is 1-SG.
 Keep R1 ints in memory in symmetry-blocked form, NReq=1396996.
 Requested convergence on RMS density matrix=1.00D-08 within 128 cycles.
 Requested convergence on MAX density matrix=1.00D-06.
 Requested convergence on             energy=1.00D-06.
 No special actions if energy rises.
 SCF Done:  E(RHF) =  -187.623867725     A.U. after   10 cycles
            NFock= 10  Conv=0.35D-08     -V/T= 2.0000

 **********************************************************************

            Population analysis using the SCF density.

 **********************************************************************

 Orbital symmetries:
       Occupied  (SG) (SG) (SG) (SG) (SG) (SG) (SG) (PI) (PI) (PI)
                 (PI)
       Virtual   (PI) (PI) (SG) (SG) (PI) (PI) (SG) (SG) (SG) (PI)
                 (PI) (PI) (PI) (SG) (DLTA) (DLTA) (SG) (PI) (PI)
                 (DLTA) (DLTA) (SG) (DLTA) (DLTA) (PI) (PI) (SG)
                 (SG) (PI) (PI) (SG) (SG) (SG) (SG)
 The electronic state is 1-SG.
 Alpha  occ. eigenvalues --  -20.64663 -20.64661 -11.43995  -1.56691  -1.51215
 Alpha  occ. eigenvalues --   -0.78666  -0.74547  -0.73922  -0.73922  -0.54255
 Alpha  occ. eigenvalues --   -0.54255
 Alpha virt. eigenvalues --    0.26786   0.26786   0.27909   0.50860   0.65698
 Alpha virt. eigenvalues --    0.65698   0.89621   0.99538   0.99711   1.14207
 Alpha virt. eigenvalues --    1.14207   1.34563   1.34563   1.57783   1.62074
 Alpha virt. eigenvalues --    1.62074   1.64139   1.75467   1.75467   2.00944
 Alpha virt. eigenvalues --    2.00944   2.10140   2.40334   2.40334   2.57165
 Alpha virt. eigenvalues --    2.57165   3.28942   3.38912   3.43091   3.43091
 Alpha virt. eigenvalues --    3.61862   4.25452   4.95737   5.06638
          Condensed to atoms (all electrons):
               1          2          3
     1  C    3.809250   0.665815   0.665821
     2  O    0.665815   7.787175  -0.023425
     3  O    0.665821  -0.023425   7.787154
 Mulliken charges:
               1
     1  C    0.859114
     2  O   -0.429564
     3  O   -0.429550
 Sum of Mulliken charges =   0.00000
 Mulliken charges with hydrogens summed into heavy atoms:
               1
     1  C    0.859114
     2  O   -0.429564
     3  O   -0.429550
 Electronic spatial extent (au):  <R**2>=            104.8276
 Charge=              0.0000 electrons
 Dipole moment (field-independent basis, Debye):
    X=              0.0000    Y=              0.0000    Z=             -0.0001  Tot=              0.0001
 Quadrupole moment (field-independent basis, Debye-Ang):
   XX=            -14.2204   YY=            -14.2204   ZZ=            -19.5661
   XY=              0.0000   XZ=              0.0000   YZ=              0.0000
 Traceless Quadrupole moment (field-independent basis, Debye-Ang):
   XX=              1.7819   YY=              1.7819   ZZ=             -3.5638
   XY=              0.0000   XZ=              0.0000   YZ=              0.0000
 Octapole moment (field-independent basis, Debye-Ang**2):
  XXX=              0.0000  YYY=              0.0000  ZZZ=             -0.0001  XYY=              0.0000
  XXY=              0.0000  XXZ=              0.0000  XZZ=              0.0000  YZZ=              0.0000
  YYZ=              0.0000  XYZ=              0.0000
 Hexadecapole moment (field-independent basis, Debye-Ang**3):
 XXXX=             -9.9070 YYYY=             -9.9070 ZZZZ=            -92.6494 XXXY=              0.0000
 XXXZ=              0.0000 YYYX=              0.0000 YYYZ=              0.0000 ZZZX=              0.0000
 ZZZY=              0.0000 XXYY=             -3.3023 XXZZ=            -16.7100 YYZZ=            -16.7100
 XXYZ=              0.0000 YYXZ=              0.0000 ZZXY=              0.0000
 N-N= 6.157701660058D+01 E-N=-5.662086154480D+02  KE= 1.876226886894D+02
 Symmetry A1   KE= 1.707725217766D+02
 Symmetry A2   KE= 6.360693431570D-36
 Symmetry B1   KE= 8.425083456402D+00
 Symmetry B2   KE= 8.425083456402D+00
 Calling FoFJK, ICntrl=      2127 FMM=F ISym2X=1 I1Cent= 0 IOpClX= 0 NMat=1 NMatS=1 NMatT=0.
 ***** Axes restored to original set *****
 -------------------------------------------------------------------
 Center     Atomic                   Forces (Hartrees/Bohr)
 Number     Number              X              Y              Z
 -------------------------------------------------------------------
      1        6          -0.000029429   -0.000000196    0.000000000
      2        8          -0.132464114   -0.000882713    0.000000000
      3        8           0.132493543    0.000882909    0.000000000
 -------------------------------------------------------------------
 Cartesian Forces:  Max     0.132493543 RMS     0.062452506

 GradGradGradGradGradGradGradGradGradGradGradGradGradGradGradGradGradGrad
 Berny optimization.
 FormGI is forming the generalized inverse of G from B-inverse, IUseBI=4.
 Internal  Forces:  Max     0.132496485 RMS     0.093678758
 Search for a local minimum.
 Step number   1 out of a maximum of   20
 All quantities printed in internal units (Hartrees-Bohrs-Radians)
 Mixed Optimization -- RFO/linear search
 Second derivative matrix not updated -- first step.
 The second derivative matrix:
                          R1        R2        A1        A2
           R1           1.76715
           R2           0.00000   1.76725
           A1           0.00000   0.00000   0.05660
           A2           0.00000   0.00000   0.00000   0.05660
 ITU=  0
     Eigenvalues ---    0.05660   0.05660   1.76715   1.76725
 RFO step:  Lambda=-1.96451222D-02 EMin= 5.66027984D-02
 Linear search not attempted -- first point.
 Iteration  1 RMS(Cart)=  0.05242683 RMS(Int)=  0.00000000
 Iteration  2 RMS(Cart)=  0.00000000 RMS(Int)=  0.00000000
 ClnCor:  largest displacement from symmetrization is 6.41D-10 for atom     1.
 Variable       Old X    -DE/DX   Delta X   Delta X   Delta X     New X
                                 (Linear)    (Quad)   (Total)
    R1        2.07871   0.13247   0.00000   0.07414   0.07414   2.15284
    R2        2.07869   0.13250   0.00000   0.07415   0.07415   2.15284
    A1        3.14159   0.00000   0.00000   0.00000   0.00000   3.14159
    A2        3.14159   0.00000   0.00000   0.00000   0.00000   3.14159
         Item               Value     Threshold  Converged?
 Maximum Force            0.132496     0.000450     NO 
 RMS     Force            0.093679     0.000300     NO 
 Maximum Displacement     0.074143     0.001800     NO 
 RMS     Displacement     0.052427     0.001200     NO 
 Predicted change in Energy=-9.930553D-03
 GradGradGradGradGradGradGradGradGradGradGradGradGradGradGradGradGradGrad

                          Input orientation:                          
 ---------------------------------------------------------------------
 Center     Atomic      Atomic             Coordinates (Angstroms)
 Number     Number       Type             X           Y           Z
 ---------------------------------------------------------------------
      1          6           0       -3.555362   -0.513457    0.000000
      2          8           0       -4.694573   -0.521049    0.000000
      3          8           0       -2.416155   -0.505866    0.000000
 ---------------------------------------------------------------------
                    Distance matrix (angstroms):
                    1          2          3
     1  C    0.000000
     2  O    1.139236   0.000000
     3  O    1.139232   2.278468   0.000000
 Stoichiometry    CO2
 Framework group  C*V[C*(OCO)]
 Deg. of freedom     2
 Full point group                 C*V     NOp   4
 Largest Abelian subgroup         C2V     NOp   4
 Largest concise Abelian subgroup C1      NOp   1
                         Standard orientation:                         
 ---------------------------------------------------------------------
 Center     Atomic      Atomic             Coordinates (Angstroms)
 Number     Number       Type             X           Y           Z
 ---------------------------------------------------------------------
      1          6           0        0.000000    0.000000   -0.000001
      2          8           0        0.000000    0.000000    1.139235
      3          8           0        0.000000    0.000000   -1.139234
 ---------------------------------------------------------------------
 Rotational constants (GHZ):      0.0000000     12.1724877     12.1724877
 Standard basis: 6-31G(d) (6D, 7F)
 There are    24 symmetry adapted cartesian basis functions of A1  symmetry.
 There are     3 symmetry adapted cartesian basis functions of A2  symmetry.
 There are     9 symmetry adapted cartesian basis functions of B1  symmetry.
 There are     9 symmetry adapted cartesian basis functions of B2  symmetry.
 There are    24 symmetry adapted basis functions of A1  symmetry.
 There are     3 symmetry adapted basis functions of A2  symmetry.
 There are     9 symmetry adapted basis functions of B1  symmetry.
 There are     9 symmetry adapted basis functions of B2  symmetry.
    45 basis functions,    84 primitive gaussians,    45 cartesian basis functions
    11 alpha electrons       11 beta electrons
       nuclear repulsion energy        59.4563351837 Hartrees.
 NAtoms=    3 NActive=    3 NUniq=    3 SFac= 1.00D+00 NAtFMM=   60 NAOKFM=F Big=F
 Integral buffers will be    131072 words long.
 Raffenetti 1 integral format.
 Two-electron integral symmetry is turned on.
 One-electron integrals computed using PRISM.
 NBasis=    45 RedAO= T EigKep=  5.52D-03  NBF=    24     3     9     9
 NBsUse=    45 1.00D-06 EigRej= -1.00D+00 NBFU=    24     3     9     9
 Initial guess from the checkpoint file:  "co2.chk"
 B after Tr=     0.000000    0.000000    0.000000
         Rot=    1.000000    0.000000    0.000000    0.000000 Ang=   0.00 deg.
 Initial guess orbital symmetries:
       Occupied  (SG) (SG) (SG) (SG) (SG) (SG) (SG) (PI) (PI) (PI)
                 (PI)
       Virtual   (SG) (SG) (SG) (SG) (SG) (SG) (DLTA) (SG) (SG)
                 (DLTA) (DLTA) (SG) (SG) (SG) (SG) (SG) (SG) (DLTA)
                 (DLTA) (DLTA) (PI) (PI) (PI) (PI) (PI) (PI) (PI)
                 (PI) (PI) (PI) (PI) (PI) (PI) (PI)
 ExpMin= 1.69D-01 ExpMax= 5.48D+03 ExpMxC= 8.25D+02 IAcc=1 IRadAn=         1 AccDes= 0.00D+00
 Harris functional with IExCor=  205 and IRadAn=       1 diagonalized for initial guess.
 HarFok:  IExCor=  205 AccDes= 0.00D+00 IRadAn=         1 IDoV= 1 UseB2=F ITyADJ=14
 ICtDFT=  3500011 ScaDFX=  1.000000  1.000000  1.000000  1.000000
 FoFCou: FMM=F IPFlag=           0 FMFlag=      100000 FMFlg1=           0
         NFxFlg=           0 DoJE=T BraDBF=F KetDBF=T FulRan=T
         wScrn=  0.000000 ICntrl=     500 IOpCl=  0 I1Cent=   200000004 NGrid=           0
         NMat0=    1 NMatS0=      1 NMatT0=    0 NMatD0=    1 NMtDS0=    0 NMtDT0=    0
 Petite list used in FoFCou.
 Keep R1 ints in memory in symmetry-blocked form, NReq=1396968.
 Requested convergence on RMS density matrix=1.00D-08 within 128 cycles.
 Requested convergence on MAX density matrix=1.00D-06.
 Requested convergence on             energy=1.00D-06.
 No special actions if energy rises.
 SCF Done:  E(RHF) =  -187.634094809     A.U. after    9 cycles
            NFock=  9  Conv=0.45D-08     -V/T= 2.0026
 Calling FoFJK, ICntrl=      2127 FMM=F ISym2X=1 I1Cent= 0 IOpClX= 0 NMat=1 NMatS=1 NMatT=0.
 ***** Axes restored to original set *****
 -------------------------------------------------------------------
 Center     Atomic                   Forces (Hartrees/Bohr)
 Number     Number              X              Y              Z
 -------------------------------------------------------------------
      1        6          -0.000007857   -0.000000052    0.000000000
      2        8          -0.010753156   -0.000071657    0.000000000
      3        8           0.010761013    0.000071709    0.000000000
 -------------------------------------------------------------------
 Cartesian Forces:  Max     0.010761013 RMS     0.005071052

 GradGradGradGradGradGradGradGradGradGradGradGradGradGradGradGradGradGrad
 Berny optimization.
 Using GEDIIS/GDIIS optimizer.
 Internal  Forces:  Max     0.010761252 RMS     0.007606577
 Search for a local minimum.
 Step number   2 out of a maximum of   20
 All quantities printed in internal units (Hartrees-Bohrs-Radians)
 Mixed Optimization -- RFO/linear search
 Update second derivatives using D2CorX and points    1    2
 DE= -1.02D-02 DEPred=-9.93D-03 R= 1.03D+00
 TightC=F SS=  1.41D+00  RLast= 1.05D-01 DXNew= 5.0454D-01 3.1456D-01
 Trust test= 1.03D+00 RLast= 1.05D-01 DXMaxT set to 3.15D-01
 The second derivative matrix:
                          R1        R2        A1        A2
           R1           1.70448
           R2          -0.06272   1.70448
           A1           0.00000   0.00000   0.05660
           A2           0.00000   0.00000   0.00000   0.05660
 ITU=  1  0
 Use linear search instead of GDIIS.
     Eigenvalues ---    0.05660   0.05660   1.64176   1.76720
 RFO step:  Lambda= 0.00000000D+00 EMin= 5.66027984D-02
 Quartic linear search produced a step of  0.10280.
 Iteration  1 RMS(Cart)=  0.00538930 RMS(Int)=  0.00000002
 Iteration  2 RMS(Cart)=  0.00000001 RMS(Int)=  0.00000001
 ClnCor:  largest displacement from symmetrization is 3.09D-08 for atom     1.
 Variable       Old X    -DE/DX   Delta X   Delta X   Delta X     New X
                                 (Linear)    (Quad)   (Total)
    R1        2.15284   0.01075   0.00762   0.00000   0.00762   2.16046
    R2        2.15284   0.01076   0.00762   0.00000   0.00762   2.16046
    A1        3.14159   0.00000   0.00000   0.00000   0.00000   3.14159
    A2        3.14159   0.00000   0.00000   0.00000   0.00000   3.14159
         Item               Value     Threshold  Converged?
 Maximum Force            0.010761     0.000450     NO 
 RMS     Force            0.007607     0.000300     NO 
 Maximum Displacement     0.007622     0.001800     NO 
 RMS     Displacement     0.005389     0.001200     NO 
 Predicted change in Energy=-6.860823D-05
 GradGradGradGradGradGradGradGradGradGradGradGradGradGradGradGradGradGrad

                          Input orientation:                          
 ---------------------------------------------------------------------
 Center     Atomic      Atomic             Coordinates (Angstroms)
 Number     Number       Type             X           Y           Z
 ---------------------------------------------------------------------
      1          6           0       -3.555363   -0.513457    0.000000
      2          8           0       -4.698605   -0.521076    0.000000
      3          8           0       -2.412122   -0.505839    0.000000
 ---------------------------------------------------------------------
                    Distance matrix (angstroms):
                    1          2          3
     1  C    0.000000
     2  O    1.143268   0.000000
     3  O    1.143267   2.286535   0.000000
 Stoichiometry    CO2
 Framework group  C*V[C*(OCO)]
 Deg. of freedom     2
 Full point group                 C*V     NOp   4
 Largest Abelian subgroup         C2V     NOp   4
 Largest concise Abelian subgroup C1      NOp   1
                         Standard orientation:                         
 ---------------------------------------------------------------------
 Center     Atomic      Atomic             Coordinates (Angstroms)
 Number     Number       Type             X           Y           Z
 ---------------------------------------------------------------------
      1          6           0        0.000000    0.000000    0.000000
      2          8           0        0.000000    0.000000    1.143267
      3          8           0        0.000000    0.000000   -1.143267
 ---------------------------------------------------------------------
 Rotational constants (GHZ):      0.0000000     12.0867557     12.0867557
 Standard basis: 6-31G(d) (6D, 7F)
 There are    24 symmetry adapted cartesian basis functions of A1  symmetry.
 There are     3 symmetry adapted cartesian basis functions of A2  symmetry.
 There are     9 symmetry adapted cartesian basis functions of B1  symmetry.
 There are     9 symmetry adapted cartesian basis functions of B2  symmetry.
 There are    24 symmetry adapted basis functions of A1  symmetry.
 There are     3 symmetry adapted basis functions of A2  symmetry.
 There are     9 symmetry adapted basis functions of B1  symmetry.
 There are     9 symmetry adapted basis functions of B2  symmetry.
    45 basis functions,    84 primitive gaussians,    45 cartesian basis functions
    11 alpha electrons       11 beta electrons
       nuclear repulsion energy        59.2465867446 Hartrees.
 NAtoms=    3 NActive=    3 NUniq=    3 SFac= 1.00D+00 NAtFMM=   60 NAOKFM=F Big=F
 Integral buffers will be    131072 words long.
 Raffenetti 1 integral format.
 Two-electron integral symmetry is turned on.
 One-electron integrals computed using PRISM.
 NBasis=    45 RedAO= T EigKep=  5.54D-03  NBF=    24     3     9     9
 NBsUse=    45 1.00D-06 EigRej= -1.00D+00 NBFU=    24     3     9     9
 Initial guess from the checkpoint file:  "co2.chk"
 B after Tr=     0.000000    0.000000    0.000000
         Rot=    1.000000    0.000000    0.000000    0.000000 Ang=   0.00 deg.
 Initial guess orbital symmetries:
       Occupied  (SG) (SG) (SG) (SG) (SG) (SG) (SG) (PI) (PI) (PI)
                 (PI)
       Virtual   (SG) (SG) (SG) (SG) (SG) (SG) (DLTA) (SG) (SG)
                 (DLTA) (DLTA) (SG) (SG) (SG) (SG) (SG) (SG) (DLTA)
                 (DLTA) (DLTA) (PI) (PI) (PI) (PI) (PI) (PI) (PI)
                 (PI) (PI) (PI) (PI) (PI) (PI) (PI)
 Keep R1 ints in memory in symmetry-blocked form, NReq=1396968.
 Requested convergence on RMS density matrix=1.00D-08 within 128 cycles.
 Requested convergence on MAX density matrix=1.00D-06.
 Requested convergence on             energy=1.00D-06.
 No special actions if energy rises.
 SCF Done:  E(RHF) =  -187.634176204     A.U. after    8 cycles
            NFock=  8  Conv=0.48D-08     -V/T= 2.0028
 Calling FoFJK, ICntrl=      2127 FMM=F ISym2X=1 I1Cent= 0 IOpClX= 0 NMat=1 NMatS=1 NMatT=0.
 ***** Axes restored to original set *****
 -------------------------------------------------------------------
 Center     Atomic                   Forces (Hartrees/Bohr)
 Number     Number              X              Y              Z
 -------------------------------------------------------------------
      1        6          -0.000002605   -0.000000017    0.000000000
      2        8           0.000029506    0.000000197    0.000000000
      3        8          -0.000026901   -0.000000179    0.000000000
 -------------------------------------------------------------------
 Cartesian Forces:  Max     0.000029506 RMS     0.000013338

 GradGradGradGradGradGradGradGradGradGradGradGradGradGradGradGradGradGrad
 Berny optimization.
 Using GEDIIS/GDIIS optimizer.
 Internal  Forces:  Max     0.000029507 RMS     0.000019965
 Search for a local minimum.
 Step number   3 out of a maximum of   20
 All quantities printed in internal units (Hartrees-Bohrs-Radians)
 Mixed Optimization -- En-DIIS/RFO-DIIS
 Update second derivatives using D2CorX and points    1    2    3
 DE= -8.14D-05 DEPred=-6.86D-05 R= 1.19D+00
 TightC=F SS=  1.41D+00  RLast= 1.08D-02 DXNew= 5.2903D-01 3.2336D-02
 Trust test= 1.19D+00 RLast= 1.08D-02 DXMaxT set to 3.15D-01
 The second derivative matrix:
                          R1        R2        A1        A2
           R1           1.59135
           R2          -0.17604   1.59097
           A1           0.00000   0.00000   0.05660
           A2           0.00000   0.00000   0.00000   0.05660
 ITU=  1  1  0
 Use linear search instead of GDIIS.
     Eigenvalues ---    0.05660   0.05660   1.41512   1.76720
 RFO step:  Lambda= 0.00000000D+00 EMin= 5.66027984D-02
 Quartic linear search produced a step of -0.00265.
 Iteration  1 RMS(Cart)=  0.00001429 RMS(Int)=  0.00000001
 Iteration  2 RMS(Cart)=  0.00000001 RMS(Int)=  0.00000001
 ClnCor:  largest displacement from symmetrization is 1.52D-08 for atom     1.
 Variable       Old X    -DE/DX   Delta X   Delta X   Delta X     New X
                                 (Linear)    (Quad)   (Total)
    R1        2.16046  -0.00003  -0.00002   0.00000  -0.00002   2.16044
    R2        2.16046  -0.00003  -0.00002   0.00000  -0.00002   2.16044
    A1        3.14159   0.00000   0.00000   0.00000   0.00000   3.14159
    A2        3.14159   0.00000   0.00000   0.00000   0.00000   3.14159
         Item               Value     Threshold  Converged?
 Maximum Force            0.000030     0.000450     YES
 RMS     Force            0.000020     0.000300     YES
 Maximum Displacement     0.000020     0.001800     YES
 RMS     Displacement     0.000014     0.001200     YES
 Predicted change in Energy=-5.629806D-10
 Optimization completed.
    -- Stationary point found.
                           ----------------------------
                           !   Optimized Parameters   !
                           ! (Angstroms and Degrees)  !
 --------------------------                            --------------------------
 ! Name  Definition              Value          Derivative Info.                !
 --------------------------------------------------------------------------------
 ! R1    R(1,2)                  1.1433         -DE/DX =    0.0                 !
 ! R2    R(1,3)                  1.1433         -DE/DX =    0.0                 !
 ! A1    L(2,1,3,-3,-1)        180.0            -DE/DX =    0.0                 !
 ! A2    L(2,1,3,-2,-2)        180.0            -DE/DX =    0.0                 !
 --------------------------------------------------------------------------------
 GradGradGradGradGradGradGradGradGradGradGradGradGradGradGradGradGradGrad

                          Input orientation:                          
 ---------------------------------------------------------------------
 Center     Atomic      Atomic             Coordinates (Angstroms)
 Number     Number       Type             X           Y           Z
 ---------------------------------------------------------------------
      1          6           0       -3.555363   -0.513457    0.000000
      2          8           0       -4.698605   -0.521076    0.000000
      3          8           0       -2.412122   -0.505839    0.000000
 ---------------------------------------------------------------------
                    Distance matrix (angstroms):
                    1          2          3
     1  C    0.000000
     2  O    1.143268   0.000000
     3  O    1.143267   2.286535   0.000000
 Stoichiometry    CO2
 Framework group  C*V[C*(OCO)]
 Deg. of freedom     2
 Full point group                 C*V     NOp   4
 Largest Abelian subgroup         C2V     NOp   4
 Largest concise Abelian subgroup C1      NOp   1
                         Standard orientation:                         
 ---------------------------------------------------------------------
 Center     Atomic      Atomic             Coordinates (Angstroms)
 Number     Number       Type             X           Y           Z
 ---------------------------------------------------------------------
      1          6           0        0.000000    0.000000    0.000000
      2          8           0        0.000000    0.000000    1.143267
      3          8           0        0.000000    0.000000   -1.143267
 ---------------------------------------------------------------------
 Rotational constants (GHZ):      0.0000000     12.0867557     12.0867557

 **********************************************************************

            Population analysis using the SCF density.

 **********************************************************************

 Orbital symmetries:
       Occupied  (SG) (SG) (SG) (SG) (SG) (SG) (SG) (PI) (PI) (PI)
                 (PI)
       Virtual   (PI) (PI) (SG) (SG) (PI) (PI) (SG) (SG) (SG) (PI)
                 (PI) (PI) (PI) (SG) (SG) (DLTA) (DLTA) (PI) (PI)
                 (DLTA) (DLTA) (SG) (DLTA) (DLTA) (PI) (PI) (SG)
                 (SG) (PI) (PI) (SG) (SG) (SG) (SG)
 The electronic state is 1-SG.
 Alpha  occ. eigenvalues --  -20.65784 -20.65782 -11.46211  -1.54201  -1.48691
 Alpha  occ. eigenvalues --   -0.79261  -0.73924  -0.71909  -0.71909  -0.53995
 Alpha  occ. eigenvalues --   -0.53995
 Alpha virt. eigenvalues --    0.23059   0.23059   0.26637   0.51004   0.66339
 Alpha virt. eigenvalues --    0.66339   0.84294   0.98303   0.99234   1.14705
 Alpha virt. eigenvalues --    1.14705   1.33112   1.33112   1.45464   1.61576
 Alpha virt. eigenvalues --    1.63482   1.63482   1.70441   1.70441   2.01268
 Alpha virt. eigenvalues --    2.01268   2.08925   2.35733   2.35733   2.49063
 Alpha virt. eigenvalues --    2.49063   3.14661   3.32785   3.35177   3.35177
 Alpha virt. eigenvalues --    3.48920   4.18093   4.90148   4.90700
          Condensed to atoms (all electrons):
               1          2          3
     1  C    3.845669   0.630911   0.630912
     2  O    0.630911   7.841221  -0.025876
     3  O    0.630912  -0.025876   7.841218
 Mulliken charges:
               1
     1  C    0.892508
     2  O   -0.446255
     3  O   -0.446254
 Sum of Mulliken charges =   0.00000
 Mulliken charges with hydrogens summed into heavy atoms:
               1
     1  C    0.892508
     2  O   -0.446255
     3  O   -0.446254
 Electronic spatial extent (au):  <R**2>=            110.9824
 Charge=              0.0000 electrons
 Dipole moment (field-independent basis, Debye):
    X=              0.0000    Y=              0.0000    Z=              0.0000  Tot=              0.0000
 Quadrupole moment (field-independent basis, Debye-Ang):
   XX=            -14.4558   YY=            -14.4558   ZZ=            -19.9143
   XY=              0.0000   XZ=              0.0000   YZ=              0.0000
 Traceless Quadrupole moment (field-independent basis, Debye-Ang):
   XX=              1.8195   YY=              1.8195   ZZ=             -3.6390
   XY=              0.0000   XZ=              0.0000   YZ=              0.0000
 Octapole moment (field-independent basis, Debye-Ang**2):
  XXX=              0.0000  YYY=              0.0000  ZZZ=              0.0000  XYY=              0.0000
  XXY=              0.0000  XXZ=              0.0000  XZZ=              0.0000  YZZ=              0.0000
  YYZ=              0.0000  XYZ=              0.0000
 Hexadecapole moment (field-independent basis, Debye-Ang**3):
 XXXX=            -10.2549 YYYY=            -10.2549 ZZZZ=            -99.4677 XXXY=              0.0000
 XXXZ=              0.0000 YYYX=              0.0000 YYYZ=              0.0000 ZZZX=              0.0000
 ZZZY=              0.0000 XXYY=             -3.4183 XXZZ=            -17.9578 YYZZ=            -17.9578
 XXYZ=              0.0000 YYXZ=              0.0000 ZZXY=              0.0000
 N-N= 5.924658674462D+01 E-N=-5.611578456278D+02  KE= 1.871095580856D+02
 Symmetry A1   KE= 1.703807133755D+02
 Symmetry A2   KE= 6.505285249901D-34
 Symmetry B1   KE= 8.364422355033D+00
 Symmetry B2   KE= 8.364422355033D+00
 1\1\GINC-CPU-G-5\FOpt\RHF\6-31G(d)\C1O2\AM2145\17-Jul-2020\0\\#n G2\\c
 o2_backup\\0,1\C,-3.5553629227,-0.513457268,0.\O,-4.6986054062,-0.5210
 755933,0.\O,-2.412121659,-0.5058389508,0.\\Version=ES64L-G09RevD.01\St
 ate=1-SG\HF=-187.6341762\RMSD=4.790e-09\RMSF=1.334e-05\Dipole=0.000003
 3,0.,0.\Quadrupole=-2.7053496,1.3525847,1.3527649,-0.0270424,0.,0.\PG=
 C*V [C*(O1C1O1)]\\@


 PENOTUS DIED A HUNDRED YEARS OLD WANTING BUT TWO...
 AND HE USED TO SAY BEFORE HE DIED, HAVING SPENT HIS
 WHOLE LIFE IN VAINLY SEARCHING AFTER THE PHILOSOPHER'S
 STONE, THAT IF HE HAD A MORTAL ENEMY HE DID NOT DARE
 TO ENCOUNTER OPENLY, HE WOULD ADVISE HIM ABOVE ALL
 THINGS TO GIVE HIMSELF UP TO THE STUDY AND PRACTICE
 OF ALCHEMY.  --  NICOLAS LEMERY, M.D.
 "A COURSE OF CHYMISTRY", WALTER KETTILBY, LONDON, 1686
 Job cpu time:       0 days  0 hours  8 minutes 12.9 seconds.
 File lengths (MBytes):  RWF=      5 Int=      0 D2E=      0 Chk=      1 Scr=      1
 Normal termination of Gaussian 09 at Fri Jul 17 16:44:47 2020.
 Link1:  Proceeding to internal job step number  2.
 ---------------------------------------------------------
 #N Geom=AllCheck Guess=TCheck SCRF=Check HF/6-31G(d) Freq
 ---------------------------------------------------------
 1/10=4,29=7,30=1,38=1,40=1/1,3;
 2/12=2,40=1/2;
 3/5=1,6=6,7=1,11=9,14=-4,16=1,25=1,30=1,70=2,71=2,116=-2,140=1/1,2,3;
 4/5=101/1;
 5/5=2,98=1/2;
 8/6=4,10=90,11=11/1;
 10/13=10,15=4/2;
 11/6=3,8=1,9=11,15=111,16=1/1,2,10;
 10/6=1/2;
 6/7=2,8=2,9=2,10=2,18=1,28=1/1;
 7/8=1,10=1,25=1/1,2,3,16;
 1/10=4,30=1/3;
 99//99;
 Structure from the checkpoint file:  "co2.chk"
 ----------
 co2_backup
 ----------
 Charge =  0 Multiplicity = 1
 Redundant internal coordinates found in file.
 C,0,-3.5553629227,-0.513457268,0.
 O,0,-4.6986054062,-0.5210755933,0.
 O,0,-2.412121659,-0.5058389508,0.
 Recover connectivity data from disk.

 GradGradGradGradGradGradGradGradGradGradGradGradGradGradGradGradGradGrad
 Berny optimization.
 Initialization pass.
                           ----------------------------
                           !    Initial Parameters    !
                           ! (Angstroms and Degrees)  !
 --------------------------                            --------------------------
 ! Name  Definition              Value          Derivative Info.                !
 --------------------------------------------------------------------------------
 ! R1    R(1,2)                  1.1433         calculate D2E/DX2 analytically  !
 ! R2    R(1,3)                  1.1433         calculate D2E/DX2 analytically  !
 ! A1    L(2,1,3,-3,-1)        180.0            calculate D2E/DX2 analytically  !
 ! A2    L(2,1,3,-2,-2)        180.0            calculate D2E/DX2 analytically  !
 --------------------------------------------------------------------------------
 Trust Radius=3.00D-01 FncErr=1.00D-07 GrdErr=1.00D-07
 Number of steps in this run=      2 maximum allowed number of steps=      2.
 GradGradGradGradGradGradGradGradGradGradGradGradGradGradGradGradGradGrad

                          Input orientation:                          
 ---------------------------------------------------------------------
 Center     Atomic      Atomic             Coordinates (Angstroms)
 Number     Number       Type             X           Y           Z
 ---------------------------------------------------------------------
      1          6           0       -3.555363   -0.513457    0.000000
      2          8           0       -4.698605   -0.521076    0.000000
      3          8           0       -2.412122   -0.505839    0.000000
 ---------------------------------------------------------------------
                    Distance matrix (angstroms):
                    1          2          3
     1  C    0.000000
     2  O    1.143268   0.000000
     3  O    1.143267   2.286535   0.000000
 Stoichiometry    CO2
 Framework group  C*V[C*(OCO)]
 Deg. of freedom     2
 Full point group                 C*V     NOp   4
 Largest Abelian subgroup         C2V     NOp   4
 Largest concise Abelian subgroup C1      NOp   1
                         Standard orientation:                         
 ---------------------------------------------------------------------
 Center     Atomic      Atomic             Coordinates (Angstroms)
 Number     Number       Type             X           Y           Z
 ---------------------------------------------------------------------
      1          6           0        0.000000    0.000000    0.000000
      2          8           0        0.000000    0.000000    1.143267
      3          8           0        0.000000    0.000000   -1.143267
 ---------------------------------------------------------------------
 Rotational constants (GHZ):      0.0000000     12.0867557     12.0867557
 Standard basis: 6-31G(d) (6D, 7F)
 There are    24 symmetry adapted cartesian basis functions of A1  symmetry.
 There are     3 symmetry adapted cartesian basis functions of A2  symmetry.
 There are     9 symmetry adapted cartesian basis functions of B1  symmetry.
 There are     9 symmetry adapted cartesian basis functions of B2  symmetry.
 There are    24 symmetry adapted basis functions of A1  symmetry.
 There are     3 symmetry adapted basis functions of A2  symmetry.
 There are     9 symmetry adapted basis functions of B1  symmetry.
 There are     9 symmetry adapted basis functions of B2  symmetry.
    45 basis functions,    84 primitive gaussians,    45 cartesian basis functions
    11 alpha electrons       11 beta electrons
       nuclear repulsion energy        59.2465867446 Hartrees.
 NAtoms=    3 NActive=    3 NUniq=    3 SFac= 1.00D+00 NAtFMM=   60 NAOKFM=F Big=F
 Integral buffers will be    131072 words long.
 Raffenetti 1 integral format.
 Two-electron integral symmetry is turned on.
 One-electron integrals computed using PRISM.
 NBasis=    45 RedAO= T EigKep=  5.54D-03  NBF=    24     3     9     9
 NBsUse=    45 1.00D-06 EigRej= -1.00D+00 NBFU=    24     3     9     9
 Initial guess from the checkpoint file:  "co2.chk"
 B after Tr=     0.000000    0.000000    0.000000
         Rot=    1.000000    0.000000    0.000000    0.000000 Ang=   0.00 deg.
 Initial guess orbital symmetries:
       Occupied  (SG) (SG) (SG) (SG) (SG) (SG) (SG) (PI) (PI) (PI)
                 (PI)
       Virtual   (PI) (PI) (SG) (SG) (PI) (PI) (SG) (SG) (SG) (PI)
                 (PI) (PI) (PI) (SG) (SG) (DLTA) (DLTA) (PI) (PI)
                 (DLTA) (DLTA) (SG) (DLTA) (DLTA) (PI) (PI) (SG)
                 (SG) (PI) (PI) (SG) (SG) (SG) (SG)
 Keep R1 ints in memory in symmetry-blocked form, NReq=1396968.
 Requested convergence on RMS density matrix=1.00D-08 within 128 cycles.
 Requested convergence on MAX density matrix=1.00D-06.
 Requested convergence on             energy=1.00D-06.
 No special actions if energy rises.
 SCF Done:  E(RHF) =  -187.634176204     A.U. after    1 cycles
            NFock=  1  Conv=0.18D-08     -V/T= 2.0028
 Range of M.O.s used for correlation:     1    45
 NBasis=    45 NAE=    11 NBE=    11 NFC=     0 NFV=     0
 NROrb=     45 NOA=    11 NOB=    11 NVA=    34 NVB=    34
          Differentiating once with respect to electric field.
                with respect to dipole field.
          Electric field/nuclear overlap derivatives assumed to be zero.
 Keep R1 ints in memory in symmetry-blocked form, NReq=1377094.
          There are     3 degrees of freedom in the 1st order CPHF.  IDoFFX=0 NUNeed=     3.
      3 vectors produced by pass  0 Test12= 1.25D-14 3.33D-08 XBig12= 6.13D+00 1.61D+00.
 AX will form     3 AO Fock derivatives at one time.
      3 vectors produced by pass  1 Test12= 1.25D-14 3.33D-08 XBig12= 7.65D-01 3.55D-01.
      3 vectors produced by pass  2 Test12= 1.25D-14 3.33D-08 XBig12= 2.88D-02 8.44D-02.
      3 vectors produced by pass  3 Test12= 1.25D-14 3.33D-08 XBig12= 6.23D-04 1.08D-02.
      3 vectors produced by pass  4 Test12= 1.25D-14 3.33D-08 XBig12= 2.49D-05 2.44D-03.
      3 vectors produced by pass  5 Test12= 1.25D-14 3.33D-08 XBig12= 3.08D-07 2.79D-04.
      3 vectors produced by pass  6 Test12= 1.25D-14 3.33D-08 XBig12= 1.11D-09 1.32D-05.
      3 vectors produced by pass  7 Test12= 1.25D-14 3.33D-08 XBig12= 5.64D-12 7.41D-07.
      1 vectors produced by pass  8 Test12= 1.25D-14 3.33D-08 XBig12= 3.24D-14 7.12D-08.
 InvSVY:  IOpt=1 It=  1 EMax= 4.44D-16
 Solved reduced A of dimension    25 with     3 vectors.
 End of Minotr F.D. properties file   721 does not exist.
 End of Minotr F.D. properties file   722 does not exist.
 End of Minotr F.D. properties file   788 does not exist.
 Symmetrizing basis deriv contribution to polar:
 IMax=3 JMax=2 DiffMx= 0.00D+00
 G2DrvN: will do     4 centers at a time, making    1 passes.
 PxScal for G2LodP:  IOpCl= 0 ISclPx=1 IMOff=     1 NMtTot=     4 NTT=    1035 ScalPx= 1.04D+00
 Calling FoFCou, ICntrl=  3107 FMM=F I1Cent=   0 AccDes= 0.00D+00.
 End of G2Drv F.D. properties file   721 does not exist.
 End of G2Drv F.D. properties file   722 does not exist.
 End of G2Drv F.D. properties file   788 does not exist.
          IDoAtm=111
          Differentiating once with respect to electric field.
                with respect to dipole field.
          Differentiating once with respect to nuclear coordinates.
 Keep R1 ints in memory in symmetry-blocked form, NReq=1377163.
          There are    12 degrees of freedom in the 1st order CPHF.  IDoFFX=5 NUNeed=    12.
 Will reuse    3 saved solutions.
      6 vectors produced by pass  0 Test12= 3.12D-15 8.33D-09 XBig12= 1.75D-01 1.91D-01.
 AX will form     6 AO Fock derivatives at one time.
      6 vectors produced by pass  1 Test12= 3.12D-15 8.33D-09 XBig12= 4.84D-02 1.36D-01.
      6 vectors produced by pass  2 Test12= 3.12D-15 8.33D-09 XBig12= 3.71D-03 3.37D-02.
      6 vectors produced by pass  3 Test12= 3.12D-15 8.33D-09 XBig12= 1.12D-04 3.46D-03.
      6 vectors produced by pass  4 Test12= 3.12D-15 8.33D-09 XBig12= 1.51D-06 3.83D-04.
      6 vectors produced by pass  5 Test12= 3.12D-15 8.33D-09 XBig12= 4.85D-09 2.94D-05.
      6 vectors produced by pass  6 Test12= 3.12D-15 8.33D-09 XBig12= 2.92D-11 1.89D-06.
      6 vectors produced by pass  7 Test12= 3.12D-15 8.33D-09 XBig12= 1.41D-13 1.79D-07.
      2 vectors produced by pass  8 Test12= 3.12D-15 8.33D-09 XBig12= 5.38D-16 1.05D-08.
 InvSVY:  IOpt=1 It=  1 EMax= 4.44D-16
 Solved reduced A of dimension    50 with     6 vectors.
 Isotropic polarizability for W=    0.000000       11.52 Bohr**3.
 End of Minotr F.D. properties file   721 does not exist.
 End of Minotr F.D. properties file   722 does not exist.
 End of Minotr F.D. properties file   788 does not exist.

 **********************************************************************

            Population analysis using the SCF density.

 **********************************************************************

 Orbital symmetries:
       Occupied  (SG) (SG) (SG) (SG) (SG) (SG) (SG) (PI) (PI) (PI)
                 (PI)
       Virtual   (PI) (PI) (SG) (SG) (PI) (PI) (SG) (SG) (SG) (PI)
                 (PI) (PI) (PI) (SG) (SG) (DLTA) (DLTA) (PI) (PI)
                 (DLTA) (DLTA) (SG) (DLTA) (DLTA) (PI) (PI) (SG)
                 (SG) (PI) (PI) (SG) (SG) (SG) (SG)
 The electronic state is 1-SG.
 Alpha  occ. eigenvalues --  -20.65784 -20.65782 -11.46211  -1.54201  -1.48691
 Alpha  occ. eigenvalues --   -0.79261  -0.73924  -0.71909  -0.71909  -0.53995
 Alpha  occ. eigenvalues --   -0.53995
 Alpha virt. eigenvalues --    0.23059   0.23059   0.26637   0.51004   0.66339
 Alpha virt. eigenvalues --    0.66339   0.84294   0.98303   0.99234   1.14705
 Alpha virt. eigenvalues --    1.14705   1.33112   1.33112   1.45464   1.61576
 Alpha virt. eigenvalues --    1.63482   1.63482   1.70441   1.70441   2.01268
 Alpha virt. eigenvalues --    2.01268   2.08925   2.35733   2.35733   2.49063
 Alpha virt. eigenvalues --    2.49063   3.14661   3.32785   3.35177   3.35177
 Alpha virt. eigenvalues --    3.48920   4.18093   4.90148   4.90700
          Condensed to atoms (all electrons):
               1          2          3
     1  C    3.845669   0.630911   0.630912
     2  O    0.630911   7.841221  -0.025876
     3  O    0.630912  -0.025876   7.841218
 Mulliken charges:
               1
     1  C    0.892508
     2  O   -0.446255
     3  O   -0.446253
 Sum of Mulliken charges =   0.00000
 Mulliken charges with hydrogens summed into heavy atoms:
               1
     1  C    0.892508
     2  O   -0.446255
     3  O   -0.446253
 APT charges:
               1
     1  C    1.515252
     2  O   -0.757626
     3  O   -0.757626
 Sum of APT charges =   0.00000
 APT charges with hydrogens summed into heavy atoms:
               1
     1  C    1.515252
     2  O   -0.757626
     3  O   -0.757626
 Electronic spatial extent (au):  <R**2>=            110.9824
 Charge=              0.0000 electrons
 Dipole moment (field-independent basis, Debye):
    X=              0.0000    Y=              0.0000    Z=              0.0000  Tot=              0.0000
 Quadrupole moment (field-independent basis, Debye-Ang):
   XX=            -14.4558   YY=            -14.4558   ZZ=            -19.9143
   XY=              0.0000   XZ=              0.0000   YZ=              0.0000
 Traceless Quadrupole moment (field-independent basis, Debye-Ang):
   XX=              1.8195   YY=              1.8195   ZZ=             -3.6390
   XY=              0.0000   XZ=              0.0000   YZ=              0.0000
 Octapole moment (field-independent basis, Debye-Ang**2):
  XXX=              0.0000  YYY=              0.0000  ZZZ=              0.0000  XYY=              0.0000
  XXY=              0.0000  XXZ=              0.0000  XZZ=              0.0000  YZZ=              0.0000
  YYZ=              0.0000  XYZ=              0.0000
 Hexadecapole moment (field-independent basis, Debye-Ang**3):
 XXXX=            -10.2549 YYYY=            -10.2549 ZZZZ=            -99.4677 XXXY=              0.0000
 XXXZ=              0.0000 YYYX=              0.0000 YYYZ=              0.0000 ZZZX=              0.0000
 ZZZY=              0.0000 XXYY=             -3.4183 XXZZ=            -17.9578 YYZZ=            -17.9578
 XXYZ=              0.0000 YYXZ=              0.0000 ZZXY=              0.0000
 N-N= 5.924658674462D+01 E-N=-5.611578456355D+02  KE= 1.871095580883D+02
 Symmetry A1   KE= 1.703807133745D+02
 Symmetry A2   KE= 6.385412875707D-34
 Symmetry B1   KE= 8.364422356914D+00
 Symmetry B2   KE= 8.364422356914D+00
  Exact polarizability:   7.265   0.000   7.265   0.000   0.000  20.046
 Approx polarizability:   6.855   0.000   6.855   0.000   0.000  21.410
 Calling FoFJK, ICntrl=    100127 FMM=F ISym2X=1 I1Cent= 0 IOpClX= 0 NMat=1 NMatS=1 NMatT=0.
 Full mass-weighted force constant matrix:
 Low frequencies ---   -0.0008   -0.0007    0.0020    4.6439    4.6439  745.8403
 Low frequencies ---  745.8403 1518.4399 2584.9202
 Diagonal vibrational polarizability:
        3.3346910       3.3346910       3.9814954
 Diagonal vibrational hyperpolarizability:
        0.0000000       0.0000000      -0.0000534
 Harmonic frequencies (cm**-1), IR intensities (KM/Mole), Raman scattering
 activities (A**4/AMU), depolarization ratios for plane and unpolarized
 incident light, reduced masses (AMU), force constants (mDyne/A),
 and normal coordinates:
                      1                      2                      3
                     PI                     PI                     SG
 Frequencies --    745.8403               745.8403              1518.4399
 Red. masses --     12.8774                12.8774                15.9949
 Frc consts  --      4.2205                 4.2205                21.7284
 IR Inten    --     68.9309                68.9309                 0.0000
 Raman Activ --      0.0000                 0.0000                12.3314
 Depolar (P) --      0.7500                 0.7500                 0.1938
 Depolar (U) --      0.8571                 0.8571                 0.3247
  Atom  AN      X      Y      Z        X      Y      Z        X      Y      Z
     1   6     0.00   0.88   0.00     0.88   0.00   0.00     0.00   0.00   0.00
     2   8     0.00  -0.33   0.00    -0.33   0.00   0.00     0.00   0.00   0.71
     3   8     0.00  -0.33   0.00    -0.33   0.00   0.00     0.00   0.00  -0.71
                      4
                     SG
 Frequencies --   2584.9202
 Red. masses --     12.8774
 Frc consts  --     50.6958
 IR Inten    --    988.5700
 Raman Activ --      0.0000
 Depolar (P) --      0.2085
 Depolar (U) --      0.3451
  Atom  AN      X      Y      Z
     1   6     0.00   0.00   0.88
     2   8     0.00   0.00  -0.33
     3   8     0.00   0.00  -0.33

 -------------------
 - Thermochemistry -
 -------------------
 Temperature   298.150 Kelvin.  Pressure   1.00000 Atm.
 Atom     1 has atomic number  6 and mass  12.00000
 Atom     2 has atomic number  8 and mass  15.99491
 Atom     3 has atomic number  8 and mass  15.99491
 Molecular mass:    43.98983 amu.
 Principal axes and moments of inertia in atomic units:
                           1         2         3
     Eigenvalues --     0.00000 149.31560 149.31560
           X            0.00000  -0.00749   0.99997
           Y            0.00000   0.99997   0.00749
           Z            1.00000   0.00000   0.00000
 This molecule is a prolate symmetric top.
 Rotational symmetry number  1.
 Rotational temperature (Kelvin)      0.58007
 Rotational constant (GHZ):          12.086756
 Zero-point vibrational energy      33465.8 (Joules/Mol)
                                    7.99851 (Kcal/Mol)
 Vibrational temperatures:   1073.10  1073.10  2184.69  3719.12
          (Kelvin)
 
 Zero-point correction=                           0.012746 (Hartree/Particle)
 Thermal correction to Energy=                    0.015303
 Thermal correction to Enthalpy=                  0.016247
 Thermal correction to Gibbs Free Energy=        -0.008548
 Sum of electronic and zero-point Energies=           -187.621430
 Sum of electronic and thermal Energies=              -187.618874
 Sum of electronic and thermal Enthalpies=            -187.617929
 Sum of electronic and thermal Free Energies=         -187.642724
 
                     E (Thermal)             CV                S
                      KCal/Mol        Cal/Mol-Kelvin    Cal/Mol-Kelvin
 Total                    9.603              6.528             52.185
 Electronic               0.000              0.000              0.000
 Translational            0.889              2.981             37.270
 Rotational               0.592              1.987             14.392
 Vibrational              8.121              1.560              0.523
                       Q            Log10(Q)             Ln(Q)
 Total Bot       0.854798D+04          3.931864          9.053451
 Total V=0       0.623458D+10          9.794807         22.553376
 Vib (Bot)       0.145020D-05         -5.838573        -13.443811
 Vib (V=0)       0.105772D+01          0.024370          0.056115
 Electronic      0.100000D+01          0.000000          0.000000
 Translational   0.114679D+08          7.059484         16.255062
 Rotational      0.513988D+03          2.710953          6.242200
 ***** Axes restored to original set *****
 -------------------------------------------------------------------
 Center     Atomic                   Forces (Hartrees/Bohr)
 Number     Number              X              Y              Z
 -------------------------------------------------------------------
      1        6          -0.000002489   -0.000000017    0.000000000
      2        8           0.000029447    0.000000196    0.000000000
      3        8          -0.000026959   -0.000000180    0.000000000
 -------------------------------------------------------------------
 Cartesian Forces:  Max     0.000029447 RMS     0.000013334
 FormGI is forming the generalized inverse of G from B-inverse, IUseBI=4.

 GradGradGradGradGradGradGradGradGradGradGradGradGradGradGradGradGradGrad
 Berny optimization.
 Internal  Forces:  Max     0.000029448 RMS     0.000019962
 Search for a local minimum.
 Step number   1 out of a maximum of    2
 All quantities printed in internal units (Hartrees-Bohrs-Radians)
 Second derivative matrix not updated -- analytic derivatives used.
 The second derivative matrix:
                          R1        R2        A1        A2
           R1           1.24946
           R2           0.14616   1.24947
           A1           0.00000   0.00000   0.21434
           A2           0.00000   0.00000   0.00000   0.21433
 ITU=  0
     Eigenvalues ---    0.21433   0.21434   1.10331   1.39562
 Angle between quadratic step and forces=   0.67 degrees.
 Linear search not attempted -- first point.
 Iteration  1 RMS(Cart)=  0.00001430 RMS(Int)=  0.00000001
 Iteration  2 RMS(Cart)=  0.00000001 RMS(Int)=  0.00000000
 ClnCor:  largest displacement from symmetrization is 1.52D-08 for atom     1.
 Variable       Old X    -DE/DX   Delta X   Delta X   Delta X     New X
                                 (Linear)    (Quad)   (Total)
    R1        2.16046  -0.00003   0.00000  -0.00002  -0.00002   2.16044
    R2        2.16046  -0.00003   0.00000  -0.00002  -0.00002   2.16044
    A1        3.14159   0.00000   0.00000   0.00000   0.00000   3.14159
    A2        3.14159   0.00000   0.00000   0.00000   0.00000   3.14159
         Item               Value     Threshold  Converged?
 Maximum Force            0.000029     0.000450     YES
 RMS     Force            0.000020     0.000300     YES
 Maximum Displacement     0.000021     0.001800     YES
 RMS     Displacement     0.000014     0.001200     YES
 Predicted change in Energy=-5.713637D-10
 Optimization completed.
    -- Stationary point found.
                           ----------------------------
                           !   Optimized Parameters   !
                           ! (Angstroms and Degrees)  !
 --------------------------                            --------------------------
 ! Name  Definition              Value          Derivative Info.                !
 --------------------------------------------------------------------------------
 ! R1    R(1,2)                  1.1433         -DE/DX =    0.0                 !
 ! R2    R(1,3)                  1.1433         -DE/DX =    0.0                 !
 ! A1    L(2,1,3,-3,-1)        180.0            -DE/DX =    0.0                 !
 ! A2    L(2,1,3,-2,-2)        180.0            -DE/DX =    0.0                 !
 --------------------------------------------------------------------------------
 GradGradGradGradGradGradGradGradGradGradGradGradGradGradGradGradGradGrad

 1\1\GINC-CPU-G-5\Freq\RHF\6-31G(d)\C1O2\AM2145\17-Jul-2020\0\\#N Geom=
 AllCheck Guess=TCheck SCRF=Check HF/6-31G(d) Freq\\co2_backup\\0,1\C,-
 3.5553629227,-0.513457268,0.\O,-4.6986054062,-0.5210755933,0.\O,-2.412
 121659,-0.5058389508,0.\\Version=ES64L-G09RevD.01\State=1-SG\HF=-187.6
 341762\RMSD=1.803e-09\RMSF=1.333e-05\ZeroPoint=0.0127464\Thermal=0.015
 3026\Dipole=0.0000036,0.,0.\DipoleDeriv=2.9746393,0.0145879,0.,0.01458
 79,0.7856076,0.,0.,0.,0.7855104,-1.4873189,-0.0072939,0.,-0.0072939,-0
 .3928045,0.,0.,0.,-0.3927559,-1.4873205,-0.007294,0.,-0.007294,-0.3928
 031,0.,0.,0.,-0.3927545\Polar=20.0453004,0.0851684,7.2650928,0.,0.,7.2
 645253\PolarDeriv=-0.0000265,-0.0000002,-0.0000027,0.,0.,-0.0000027,-0
 .0000003,0.000007,0.,0.,0.,0.,0.,0.,0.,0.000007,0.,0.,-9.6660056,-0.03
 5259,-1.4170206,0.,0.,-1.416917,-0.0249899,-2.9580529,-0.048865,0.,0.,
 -0.009442,0.,0.,0.,-2.9579493,-0.0197111,0.,9.6660322,0.0352592,1.4170
 233,0.,0.,1.4169197,0.0249902,2.9580459,0.0488649,0.,0.,0.0094421,0.,0
 .,0.,2.9579423,0.0197111,0.\HyperPolar=0.000096,0.0000004,0.0000186,0.
 0000004,0.,0.,0.,0.0000186,0.0000001,0.\PG=C*V [C*(O1C1O1)]\NImag=0\\2
 .20652550,0.01347964,0.18379613,0.,0.,0.18370631,-1.10325737,-0.006739
 78,0.,1.24940729,-0.00673978,-0.09189863,0.,0.00801969,0.04598711,0.,0
 .,-0.09185371,0.,0.,0.04593366,-1.10326813,-0.00673986,0.,-0.14614992,
 -0.00127991,0.,1.24941805,-0.00673986,-0.09189751,0.,-0.00127991,0.045
 91152,0.,0.00801977,0.04598599,0.,0.,-0.09185259,0.,0.,0.04592005,0.,0
 .,0.04593254\\0.00000249,0.00000002,0.,-0.00002945,-0.00000020,0.,0.00
 002696,0.00000018,0.\\\@


 GOOD SENSE ABOUT TRIVIALITIES IS BETTER THAN NONSENSE
 ABOUT THINGS THAT MATTER

                                       -- MAX BEERBOHM
 Job cpu time:       0 days  0 hours  4 minutes 31.0 seconds.
 File lengths (MBytes):  RWF=      5 Int=      0 D2E=      0 Chk=      1 Scr=      1
 Normal termination of Gaussian 09 at Fri Jul 17 16:45:06 2020.
 Link1:  Proceeding to internal job step number  3.
 --------------------------------------------------------------------
 #N Geom=AllCheck Guess=TCheck SCRF=Check MP2(Full)/6-31G(d) Opt=RCFC
 --------------------------------------------------------------------
 1/10=5,14=-1,18=20,19=15,29=7,38=1,40=1/1,3;
 2/9=110,12=2,40=1/2;
 3/5=1,6=6,7=1,11=9,14=-4,16=1,25=1,30=1,70=2,71=1,116=-2/1,2,3;
 4/5=101/1;
 5/5=2/2;
 8/6=4,10=90/1;
 9/15=2,16=-3/6;
 10/5=1/2;
 6/7=2,8=2,9=2,10=2/1;
 7/12=2/1,2,3,16;
 1/14=-1,18=20,19=15/3(2);
 2/9=110/2;
 99//99;
 2/9=110/2;
 3/5=1,6=6,7=1,11=9,14=-2,16=1,25=1,30=1,70=5,71=1/1,2,3;
 4/5=5,16=3,69=1/1;
 5/5=2,38=5/2;
 8/6=4,10=90/1;
 9/15=2,16=-3/6;
 10/5=1/2;
 7/12=2/1,2,3,16;
 1/14=-1,18=20,19=15/3(-8);
 2/9=110/2;
 6/7=2,8=2,9=2,10=2/1;
 99//99;
 Structure from the checkpoint file:  "co2.chk"
 ----------
 co2_backup
 ----------
 Charge =  0 Multiplicity = 1
 Redundant internal coordinates found in file.
 C,0,-3.5553629227,-0.513457268,0.
 O,0,-4.6986054062,-0.5210755933,0.
 O,0,-2.412121659,-0.5058389508,0.
 Recover connectivity data from disk.

 GradGradGradGradGradGradGradGradGradGradGradGradGradGradGradGradGradGrad
 Berny optimization.
 Initialization pass.
 Cartesian force constants read from checkpoint file:
 "co2.chk"
 FormGI is forming the generalized inverse of G from B-inverse, IUseBI=4.
                           ----------------------------
                           !    Initial Parameters    !
                           ! (Angstroms and Degrees)  !
 --------------------------                            --------------------------
 ! Name  Definition              Value          Derivative Info.                !
 --------------------------------------------------------------------------------
 ! R1    R(1,2)                  1.1433         D2E/DX2 =    1.2495             !
 ! R2    R(1,3)                  1.1433         D2E/DX2 =    1.2495             !
 ! A1    L(2,1,3,-3,-1)        180.0            D2E/DX2 =    0.2143             !
 ! A2    L(2,1,3,-2,-2)        180.0            D2E/DX2 =    0.2143             !
 --------------------------------------------------------------------------------
 Trust Radius=3.00D-01 FncErr=1.00D-07 GrdErr=1.00D-07
 Number of steps in this run=     20 maximum allowed number of steps=    100.
 GradGradGradGradGradGradGradGradGradGradGradGradGradGradGradGradGradGrad

                          Input orientation:                          
 ---------------------------------------------------------------------
 Center     Atomic      Atomic             Coordinates (Angstroms)
 Number     Number       Type             X           Y           Z
 ---------------------------------------------------------------------
      1          6           0       -3.555363   -0.513457    0.000000
      2          8           0       -4.698605   -0.521076    0.000000
      3          8           0       -2.412122   -0.505839    0.000000
 ---------------------------------------------------------------------
                    Distance matrix (angstroms):
                    1          2          3
     1  C    0.000000
     2  O    1.143268   0.000000
     3  O    1.143267   2.286535   0.000000
 Stoichiometry    CO2
 Framework group  C*V[C*(OCO)]
 Deg. of freedom     2
 Full point group                 C*V     NOp   4
 Largest Abelian subgroup         C2V     NOp   4
 Largest concise Abelian subgroup C1      NOp   1
                         Standard orientation:                         
 ---------------------------------------------------------------------
 Center     Atomic      Atomic             Coordinates (Angstroms)
 Number     Number       Type             X           Y           Z
 ---------------------------------------------------------------------
      1          6           0        0.000000    0.000000    0.000000
      2          8           0        0.000000    0.000000    1.143267
      3          8           0        0.000000    0.000000   -1.143267
 ---------------------------------------------------------------------
 Rotational constants (GHZ):      0.0000000     12.0867557     12.0867557
 Standard basis: 6-31G(d) (6D, 7F)
 There are    24 symmetry adapted cartesian basis functions of A1  symmetry.
 There are     3 symmetry adapted cartesian basis functions of A2  symmetry.
 There are     9 symmetry adapted cartesian basis functions of B1  symmetry.
 There are     9 symmetry adapted cartesian basis functions of B2  symmetry.
 There are    24 symmetry adapted basis functions of A1  symmetry.
 There are     3 symmetry adapted basis functions of A2  symmetry.
 There are     9 symmetry adapted basis functions of B1  symmetry.
 There are     9 symmetry adapted basis functions of B2  symmetry.
    45 basis functions,    84 primitive gaussians,    45 cartesian basis functions
    11 alpha electrons       11 beta electrons
       nuclear repulsion energy        59.2465867446 Hartrees.
 NAtoms=    3 NActive=    3 NUniq=    3 SFac= 1.00D+00 NAtFMM=   60 NAOKFM=F Big=F
 Integral buffers will be    131072 words long.
 Raffenetti 1 integral format.
 Two-electron integral symmetry is turned on.
 One-electron integrals computed using PRISM.
 NBasis=    45 RedAO= T EigKep=  5.54D-03  NBF=    24     3     9     9
 NBsUse=    45 1.00D-06 EigRej= -1.00D+00 NBFU=    24     3     9     9
 Initial guess from the checkpoint file:  "co2.chk"
 B after Tr=     0.000000    0.000000    0.000000
         Rot=    1.000000    0.000000    0.000000    0.000000 Ang=   0.00 deg.
 Initial guess orbital symmetries:
       Occupied  (SG) (SG) (SG) (SG) (SG) (SG) (SG) (PI) (PI) (PI)
                 (PI)
       Virtual   (PI) (PI) (SG) (SG) (PI) (PI) (SG) (SG) (SG) (PI)
                 (PI) (PI) (PI) (SG) (SG) (DLTA) (DLTA) (PI) (PI)
                 (DLTA) (DLTA) (SG) (DLTA) (DLTA) (PI) (PI) (SG)
                 (SG) (PI) (PI) (SG) (SG) (SG) (SG)
 Keep R1 ints in memory in symmetry-blocked form, NReq=1396968.
 Requested convergence on RMS density matrix=1.00D-08 within 128 cycles.
 Requested convergence on MAX density matrix=1.00D-06.
 Requested convergence on             energy=1.00D-06.
 No special actions if energy rises.
 SCF Done:  E(RHF) =  -187.634176204     A.U. after    1 cycles
            NFock=  1  Conv=0.15D-08     -V/T= 2.0028
 Range of M.O.s used for correlation:     1    45
 NBasis=    45 NAE=    11 NBE=    11 NFC=     0 NFV=     0
 NROrb=     45 NOA=    11 NOB=    11 NVA=    34 NVB=    34
 Fully direct method using O(ONN) memory.
 JobTyp=1 Pass  1:  I=   1 to  11 NPSUse= 20 ParTrn=T ParDer=T DoDerP=T.
 Spin components of T(2) and E(2):
     alpha-alpha T2 =       0.1997449192D-01 E2=     -0.6724393541D-01
     alpha-beta  T2 =       0.9949161159D-01 E2=     -0.3444472719D+00
     beta-beta   T2 =       0.1997449192D-01 E2=     -0.6724393541D-01
 ANorm=    0.1067445828D+01
 E2 =    -0.4789351428D+00 EUMP2 =    -0.18811311134642D+03
          IDoAtm=111
          Differentiating once with respect to electric field.
                with respect to dipole field.
          Differentiating once with respect to nuclear coordinates.
 Keep R1 ints in memory in symmetry-blocked form, NReq=1377281.
          There are     1 degrees of freedom in the 1st order CPHF.  IDoFFX=0 NUNeed=     1.
 LinEq1:  Iter=  0 NonCon=     1 RMS=1.28D-02 Max=1.54D-01 NDo=     1
 AX will form     1 AO Fock derivatives at one time.
 LinEq1:  Iter=  1 NonCon=     1 RMS=3.45D-03 Max=2.66D-02 NDo=     1
 LinEq1:  Iter=  2 NonCon=     1 RMS=9.31D-04 Max=7.04D-03 NDo=     1
 LinEq1:  Iter=  3 NonCon=     1 RMS=2.60D-04 Max=1.98D-03 NDo=     1
 LinEq1:  Iter=  4 NonCon=     1 RMS=4.14D-05 Max=3.89D-04 NDo=     1
 LinEq1:  Iter=  5 NonCon=     1 RMS=4.80D-06 Max=3.20D-05 NDo=     1
 LinEq1:  Iter=  6 NonCon=     1 RMS=3.43D-07 Max=2.56D-06 NDo=     1
 LinEq1:  Iter=  7 NonCon=     1 RMS=2.47D-08 Max=2.56D-07 NDo=     1
 LinEq1:  Iter=  8 NonCon=     1 RMS=3.20D-09 Max=2.88D-08 NDo=     1
 LinEq1:  Iter=  9 NonCon=     1 RMS=1.54D-09 Max=9.96D-09 NDo=     1
 LinEq1:  Iter= 10 NonCon=     1 RMS=1.08D-10 Max=8.46D-10 NDo=     1
 LinEq1:  Iter= 11 NonCon=     0 RMS=8.51D-12 Max=5.56D-11 NDo=     1
 Linear equations converged to 1.000D-10 1.000D-09 after    11 iterations.
 End of Minotr F.D. properties file   721 does not exist.
 End of Minotr F.D. properties file   722 does not exist.
 End of Minotr F.D. properties file   788 does not exist.

 **********************************************************************

            Population analysis using the SCF density.

 **********************************************************************

 Orbital symmetries:
       Occupied  (SG) (SG) (SG) (SG) (SG) (SG) (SG) (PI) (PI) (PI)
                 (PI)
       Virtual   (PI) (PI) (SG) (SG) (PI) (PI) (SG) (SG) (SG) (PI)
                 (PI) (PI) (PI) (SG) (SG) (DLTA) (DLTA) (PI) (PI)
                 (DLTA) (DLTA) (SG) (DLTA) (DLTA) (PI) (PI) (SG)
                 (SG) (PI) (PI) (SG) (SG) (SG) (SG)
 The electronic state is 1-SG.
 Alpha  occ. eigenvalues --  -20.65784 -20.65782 -11.46211  -1.54201  -1.48691
 Alpha  occ. eigenvalues --   -0.79261  -0.73924  -0.71909  -0.71909  -0.53995
 Alpha  occ. eigenvalues --   -0.53995
 Alpha virt. eigenvalues --    0.23059   0.23059   0.26637   0.51004   0.66339
 Alpha virt. eigenvalues --    0.66339   0.84294   0.98303   0.99234   1.14705
 Alpha virt. eigenvalues --    1.14705   1.33112   1.33112   1.45464   1.61576
 Alpha virt. eigenvalues --    1.63482   1.63482   1.70441   1.70441   2.01268
 Alpha virt. eigenvalues --    2.01268   2.08925   2.35733   2.35733   2.49063
 Alpha virt. eigenvalues --    2.49063   3.14661   3.32785   3.35177   3.35177
 Alpha virt. eigenvalues --    3.48920   4.18093   4.90148   4.90700
          Condensed to atoms (all electrons):
               1          2          3
     1  C    3.845669   0.630911   0.630912
     2  O    0.630911   7.841221  -0.025876
     3  O    0.630912  -0.025876   7.841218
 Mulliken charges:
               1
     1  C    0.892508
     2  O   -0.446255
     3  O   -0.446253
 Sum of Mulliken charges =   0.00000
 Mulliken charges with hydrogens summed into heavy atoms:
               1
     1  C    0.892508
     2  O   -0.446255
     3  O   -0.446253
 Electronic spatial extent (au):  <R**2>=            110.9824
 Charge=              0.0000 electrons
 Dipole moment (field-independent basis, Debye):
    X=              0.0000    Y=              0.0000    Z=              0.0000  Tot=              0.0000
 Quadrupole moment (field-independent basis, Debye-Ang):
   XX=            -14.4558   YY=            -14.4558   ZZ=            -19.9143
   XY=              0.0000   XZ=              0.0000   YZ=              0.0000
 Traceless Quadrupole moment (field-independent basis, Debye-Ang):
   XX=              1.8195   YY=              1.8195   ZZ=             -3.6390
   XY=              0.0000   XZ=              0.0000   YZ=              0.0000
 Octapole moment (field-independent basis, Debye-Ang**2):
  XXX=              0.0000  YYY=              0.0000  ZZZ=              0.0000  XYY=              0.0000
  XXY=              0.0000  XXZ=              0.0000  XZZ=              0.0000  YZZ=              0.0000
  YYZ=              0.0000  XYZ=              0.0000
 Hexadecapole moment (field-independent basis, Debye-Ang**3):
 XXXX=            -10.2549 YYYY=            -10.2549 ZZZZ=            -99.4677 XXXY=              0.0000
 XXXZ=              0.0000 YYYX=              0.0000 YYYZ=              0.0000 ZZZX=              0.0000
 ZZZY=              0.0000 XXYY=             -3.4183 XXZZ=            -17.9578 YYZZ=            -17.9578
 XXYZ=              0.0000 YYXZ=              0.0000 ZZXY=              0.0000
 N-N= 5.924658674462D+01 E-N=-5.611578456234D+02  KE= 1.871095580815D+02
 Symmetry A1   KE= 1.703807133705D+02
 Symmetry A2   KE= 6.505267393228D-34
 Symmetry B1   KE= 8.364422355536D+00
 Symmetry B2   KE= 8.364422355536D+00
 Calling FoFJK, ICntrl=  10002127 FMM=F ISym2X=1 I1Cent= 0 IOpClX= 0 NMat=1 NMatS=1 NMatT=0.
 ***** Axes restored to original set *****
 -------------------------------------------------------------------
 Center     Atomic                   Forces (Hartrees/Bohr)
 Number     Number              X              Y              Z
 -------------------------------------------------------------------
      1        6          -0.000002953   -0.000000020    0.000000000
      2        8          -0.081813325   -0.000545187    0.000000000
      3        8           0.081816278    0.000545206    0.000000000
 -------------------------------------------------------------------
 Cartesian Forces:  Max     0.081816278 RMS     0.038568724

 GradGradGradGradGradGradGradGradGradGradGradGradGradGradGradGradGradGrad
 Berny optimization.
 FormGI is forming the generalized inverse of G from B-inverse, IUseBI=4.
 Internal  Forces:  Max     0.081818095 RMS     0.057853086
 Search for a local minimum.
 Step number   1 out of a maximum of   20
 All quantities printed in internal units (Hartrees-Bohrs-Radians)
 Mixed Optimization -- RFO/linear search
 Second derivative matrix not updated -- first step.
 The second derivative matrix:
                          R1        R2        A1        A2
           R1           1.24946
           R2           0.14616   1.24947
           A1           0.00000   0.00000   0.21434
           A2           0.00000   0.00000   0.00000   0.21433
 ITU=  0
     Eigenvalues ---    0.21433   0.21434   1.10331   1.39562
 RFO step:  Lambda=-9.52773750D-03 EMin= 2.14326726D-01
 Linear search not attempted -- first point.
 Iteration  1 RMS(Cart)=  0.04117211 RMS(Int)=  0.00000001
 Iteration  2 RMS(Cart)=  0.00000001 RMS(Int)=  0.00000000
 ClnCor:  largest displacement from symmetrization is 1.41D-08 for atom     1.
 Variable       Old X    -DE/DX   Delta X   Delta X   Delta X     New X
                                 (Linear)    (Quad)   (Total)
    R1        2.16046   0.08182   0.00000   0.05823   0.05823   2.21869
    R2        2.16046   0.08182   0.00000   0.05823   0.05823   2.21869
    A1        3.14159   0.00000   0.00000   0.00000   0.00000   3.14159
    A2        3.14159   0.00000   0.00000   0.00000   0.00000   3.14159
         Item               Value     Threshold  Converged?
 Maximum Force            0.081818     0.000450     NO 
 RMS     Force            0.057853     0.000300     NO 
 Maximum Displacement     0.058225     0.001800     NO 
 RMS     Displacement     0.041172     0.001200     NO 
 Predicted change in Energy=-4.796169D-03
 GradGradGradGradGradGradGradGradGradGradGradGradGradGradGradGradGradGrad

                          Input orientation:                          
 ---------------------------------------------------------------------
 Center     Atomic      Atomic             Coordinates (Angstroms)
 Number     Number       Type             X           Y           Z
 ---------------------------------------------------------------------
      1          6           0       -3.555363   -0.513457    0.000000
      2          8           0       -4.729416   -0.521281    0.000000
      3          8           0       -2.381310   -0.505634    0.000000
 ---------------------------------------------------------------------
                    Distance matrix (angstroms):
                    1          2          3
     1  C    0.000000
     2  O    1.174079   0.000000
     3  O    1.174079   2.348158   0.000000
 Stoichiometry    CO2
 Framework group  C*V[C*(OCO)]
 Deg. of freedom     2
 Full point group                 C*V     NOp   4
 Largest Abelian subgroup         C2V     NOp   4
 Largest concise Abelian subgroup C1      NOp   1
                         Standard orientation:                         
 ---------------------------------------------------------------------
 Center     Atomic      Atomic             Coordinates (Angstroms)
 Number     Number       Type             X           Y           Z
 ---------------------------------------------------------------------
      1          6           0        0.000000    0.000000    0.000000
      2          8           0        0.000000    0.000000    1.174079
      3          8           0        0.000000    0.000000   -1.174079
 ---------------------------------------------------------------------
 Rotational constants (GHZ):      0.0000000     11.4606824     11.4606824
 Standard basis: 6-31G(d) (6D, 7F)
 There are    24 symmetry adapted cartesian basis functions of A1  symmetry.
 There are     3 symmetry adapted cartesian basis functions of A2  symmetry.
 There are     9 symmetry adapted cartesian basis functions of B1  symmetry.
 There are     9 symmetry adapted cartesian basis functions of B2  symmetry.
 There are    24 symmetry adapted basis functions of A1  symmetry.
 There are     3 symmetry adapted basis functions of A2  symmetry.
 There are     9 symmetry adapted basis functions of B1  symmetry.
 There are     9 symmetry adapted basis functions of B2  symmetry.
    45 basis functions,    84 primitive gaussians,    45 cartesian basis functions
    11 alpha electrons       11 beta electrons
       nuclear repulsion energy        57.6917485760 Hartrees.
 NAtoms=    3 NActive=    3 NUniq=    3 SFac= 1.00D+00 NAtFMM=   60 NAOKFM=F Big=F
 Integral buffers will be    131072 words long.
 Raffenetti 1 integral format.
 Two-electron integral symmetry is turned on.
 One-electron integrals computed using PRISM.
 NBasis=    45 RedAO= T EigKep=  5.67D-03  NBF=    24     3     9     9
 NBsUse=    45 1.00D-06 EigRej= -1.00D+00 NBFU=    24     3     9     9
 Initial guess from the checkpoint file:  "co2.chk"
 B after Tr=     0.000000    0.000000    0.000000
         Rot=    1.000000    0.000000    0.000000    0.000000 Ang=   0.00 deg.
 Initial guess orbital symmetries:
       Occupied  (SG) (SG) (SG) (SG) (SG) (SG) (SG) (PI) (PI) (PI)
                 (PI)
       Virtual   (SG) (SG) (SG) (SG) (SG) (SG) (SG) (SG) (DLTA)
                 (SG) (DLTA) (DLTA) (SG) (SG) (SG) (SG) (SG) (DLTA)
                 (DLTA) (DLTA) (PI) (PI) (PI) (PI) (PI) (PI) (PI)
                 (PI) (PI) (PI) (PI) (PI) (PI) (PI)
 ExpMin= 1.69D-01 ExpMax= 5.48D+03 ExpMxC= 8.25D+02 IAcc=1 IRadAn=         1 AccDes= 0.00D+00
 Harris functional with IExCor=  205 and IRadAn=       1 diagonalized for initial guess.
 HarFok:  IExCor=  205 AccDes= 0.00D+00 IRadAn=         1 IDoV= 1 UseB2=F ITyADJ=14
 ICtDFT=  3500011 ScaDFX=  1.000000  1.000000  1.000000  1.000000
 FoFCou: FMM=F IPFlag=           0 FMFlag=      100000 FMFlg1=           0
         NFxFlg=           0 DoJE=T BraDBF=F KetDBF=T FulRan=T
         wScrn=  0.000000 ICntrl=     500 IOpCl=  0 I1Cent=   200000004 NGrid=           0
         NMat0=    1 NMatS0=      1 NMatT0=    0 NMatD0=    1 NMtDS0=    0 NMtDT0=    0
 Petite list used in FoFCou.
[...]
 MP4(R+Q)=  0.13676963D-01
 Time for triples=       36.73 seconds.
 MP4(T)=   -0.36413104D-01
 E3=        0.18820163D-01        EUMP3=      -0.18827575540D+03
 E4(DQ)=   -0.13557052D-02        UMP4(DQ)=   -0.18827711110D+03
 E4(SDQ)=  -0.13224264D-01        UMP4(SDQ)=  -0.18828897966D+03
 E4(SDTQ)= -0.49637368D-01        UMP4(SDTQ)= -0.18832539276D+03
 Largest amplitude= 6.46D-02
 Discarding MO integrals.

 **********************************************************************

            Population analysis using the SCF density.

 **********************************************************************

 Orbital symmetries:
       Occupied  (SG) (SG) (SG) (SG) (SG) (SG) (SG) (PI) (PI) (PI)
                 (PI)
       Virtual   (SG) (PI) (PI) (SG) (PI) (PI) (SG) (DLTA) (DLTA)
                 (SG) (SG) (PI) (PI) (PI) (PI) (PI) (PI) (SG) (SG)
                 (DLTA) (DLTA) (SG) (DLTA) (DLTA) (SG) (PI) (PI)
                 (PI) (PI) (SG) (SG) (PI) (PI) (PHI) (PHI) (SG)
                 (DLTA) (DLTA) (DLTA) (DLTA) (PI) (PI) (PI) (PI)
                 (SG) (SG) (PI) (PI) (PHI) (PHI) (SG) (PI) (PI)
                 (PHI) (PHI) (DLTA) (DLTA) (SG) (DLTA) (DLTA) (PI)
                 (PI) (DLTA) (DLTA) (SG) (DLTA) (DLTA) (PI) (PI)
                 (SG) (PI) (PI) (SG) (PI) (PI) (SG) (SG) (SG) (SG)
 The electronic state is 1-SG.
 Alpha  occ. eigenvalues --  -20.65012 -20.65008 -11.46698  -1.51722  -1.46431
 Alpha  occ. eigenvalues --   -0.79886  -0.73620  -0.70477  -0.70477  -0.53991
 Alpha  occ. eigenvalues --   -0.53991
 Alpha virt. eigenvalues --    0.19389   0.19968   0.19968   0.42054   0.51374
 Alpha virt. eigenvalues --    0.51374   0.55684   0.74766   0.74766   0.80322
 Alpha virt. eigenvalues --    0.87982   0.89986   0.89986   1.14644   1.14644
 Alpha virt. eigenvalues --    1.20808   1.20808   1.26341   1.36353   1.64699
 Alpha virt. eigenvalues --    1.64699   1.72984   1.91878   1.91878   1.95561
 Alpha virt. eigenvalues --    2.15450   2.15450   2.53614   2.53614   2.56902
 Alpha virt. eigenvalues --    2.75286   2.88913   2.88913   2.97724   2.97724
 Alpha virt. eigenvalues --    3.18501   3.30018   3.30018   3.41440   3.41440
 Alpha virt. eigenvalues --    3.53897   3.53897   4.09592   4.09592   4.18559
 Alpha virt. eigenvalues --    5.22868   5.35585   5.35585   5.40242   5.40242
 Alpha virt. eigenvalues --    5.41929   5.42466   5.42466   5.46490   5.46490
 Alpha virt. eigenvalues --    5.52132   5.52132   6.15148   6.16579   6.16579
 Alpha virt. eigenvalues --    6.55341   6.55341   7.25191   7.25191   7.27706
 Alpha virt. eigenvalues --    7.29210   7.29210   7.47067   7.47067   7.78949
 Alpha virt. eigenvalues --    7.92468   7.92468   8.05415   8.11884   8.11884
 Alpha virt. eigenvalues --    8.91803  25.64299  51.58101  52.51877
          Condensed to atoms (all electrons):
               1          2          3
     1  C    3.851508   0.726156   0.726156
     2  O    0.726156   7.662085  -0.040151
     3  O    0.726156  -0.040151   7.662085
 Mulliken charges:
               1
     1  C    0.696180
     2  O   -0.348090
     3  O   -0.348090
 Sum of Mulliken charges =   0.00000
 Mulliken charges with hydrogens summed into heavy atoms:
               1
     1  C    0.696180
     2  O   -0.348090
     3  O   -0.348090
 Electronic spatial extent (au):  <R**2>=            116.0529
 Charge=              0.0000 electrons
 Dipole moment (field-independent basis, Debye):
    X=              0.0000    Y=              0.0000    Z=              0.0000  Tot=              0.0000
 Quadrupole moment (field-independent basis, Debye-Ang):
   XX=            -14.7230   YY=            -14.7230   ZZ=            -19.8825
   XY=              0.0000   XZ=              0.0000   YZ=              0.0000
 Traceless Quadrupole moment (field-independent basis, Debye-Ang):
   XX=              1.7198   YY=              1.7198   ZZ=             -3.4396
   XY=              0.0000   XZ=              0.0000   YZ=              0.0000
 Octapole moment (field-independent basis, Debye-Ang**2):
  XXX=              0.0000  YYY=              0.0000  ZZZ=              0.0000  XYY=              0.0000
  XXY=              0.0000  XXZ=              0.0000  XZZ=              0.0000  YZZ=              0.0000
  YYZ=              0.0000  XYZ=              0.0000
 Hexadecapole moment (field-independent basis, Debye-Ang**3):
 XXXX=            -10.9343 YYYY=            -10.9343 ZZZZ=           -104.2471 XXXY=              0.0000
 XXXZ=              0.0000 YYYX=              0.0000 YYYZ=              0.0000 ZZZX=              0.0000
 ZZZY=              0.0000 XXYY=             -3.6448 XXZZ=            -18.9361 YYZZ=            -18.9361
 XXYZ=              0.0000 YYXZ=              0.0000 ZZXY=              0.0000
 N-N= 5.746706836519D+01 E-N=-5.580280293884D+02  KE= 1.872524087229D+02
 Symmetry A1   KE= 1.705241163930D+02
 Symmetry A2   KE= 1.495946440312D-33
 Symmetry B1   KE= 8.364146164937D+00
 Symmetry B2   KE= 8.364146164937D+00
 1\1\GINC-CPU-G-5\SP\RMP4SDTQ-FC\6-311G(2df,p)\C1O2\AM2145\17-Jul-2020\
 0\\#N Geom=AllCheck Guess=TCheck SCRF=Check MP4/6-311G(2df,p)\\co2_bac
 kup\\0,1\C,0,-3.555363315,-0.5134572706,0.\O,0,-4.7340067014,-0.521311
 5,0.\O,0,-2.3767199715,-0.5056030414,0.\\Version=ES64L-G09RevD.01\Stat
 e=1-SG\HF=-187.6938657\MP2=-188.2945756\MP3=-188.2757554\MP4D=-188.290
 7881\MP4DQ=-188.2771111\MP4SDQ=-188.2889797\MP4SDTQ=-188.3253928\RMSD=
 1.593e-09\PG=C*V [C*(O1C1O1)]\\@


 BE NOT THE FIRST BY WHOM THE NEW ARE TRIED,
 NOR YET THE THE LAST TO LAY THE OLD ASIDE.

                          -- ALEXANDER POPE
 Job cpu time:       0 days  0 hours 10 minutes 42.6 seconds.
 File lengths (MBytes):  RWF=     96 Int=      0 D2E=      0 Chk=      2 Scr=      1
 Normal termination of Gaussian 09 at Fri Jul 17 16:48:51 2020.
 Link1:  Proceeding to internal job step number  7.
 ------------------------------------------------------------
 #N Geom=AllCheck Guess=TCheck SCRF=Check MP2/6-311+G(3df,2p)
 ------------------------------------------------------------
 1/29=7,38=1,40=1/1;
 2/12=2,40=1/2;
 3/5=4,6=6,7=216,11=9,14=-4,16=1,25=1,30=1,70=2,116=-2/1,2,3;
 4/5=101/1;
 5/5=2/2;
 8/10=2/1;
 9/16=-3/6;
 6/7=2,8=2,9=2,10=2/1;
 99/5=1,9=1/99;
 Structure from the checkpoint file:  "co2.chk"
 ----------
 co2_backup
 ----------
 Charge =  0 Multiplicity = 1
 Redundant internal coordinates found in file.
 C,0,-3.555363315,-0.5134572706,0.
 O,0,-4.7340067014,-0.5213115,0.
 O,0,-2.3767199715,-0.5056030414,0.
 Recover connectivity data from disk.
                          Input orientation:                          
 ---------------------------------------------------------------------
 Center     Atomic      Atomic             Coordinates (Angstroms)
 Number     Number       Type             X           Y           Z
 ---------------------------------------------------------------------
      1          6           0       -3.555363   -0.513457    0.000000
      2          8           0       -4.734007   -0.521312    0.000000
      3          8           0       -2.376720   -0.505603    0.000000
 ---------------------------------------------------------------------
                    Distance matrix (angstroms):
                    1          2          3
     1  C    0.000000
     2  O    1.178670   0.000000
     3  O    1.178670   2.357339   0.000000
 Stoichiometry    CO2
 Framework group  C*V[C*(OCO)]
 Deg. of freedom     2
 Full point group                 C*V     NOp   4
 Largest Abelian subgroup         C2V     NOp   4
 Largest concise Abelian subgroup C1      NOp   1
                         Standard orientation:                         
 ---------------------------------------------------------------------
 Center     Atomic      Atomic             Coordinates (Angstroms)
 Number     Number       Type             X           Y           Z
 ---------------------------------------------------------------------
      1          6           0        0.000000    0.000000    0.000000
      2          8           0        0.000000    0.000000    1.178670
      3          8           0        0.000000    0.000000   -1.178670
 ---------------------------------------------------------------------
 Rotational constants (GHZ):      0.0000000     11.3715891     11.3715891
 Standard basis: 6-311+G(3df,2p) (5D, 7F)
 There are    63 symmetry adapted cartesian basis functions of A1  symmetry.
 There are    12 symmetry adapted cartesian basis functions of A2  symmetry.
 There are    30 symmetry adapted cartesian basis functions of B1  symmetry.
 There are    30 symmetry adapted cartesian basis functions of B2  symmetry.
 There are    51 symmetry adapted basis functions of A1  symmetry.
 There are    12 symmetry adapted basis functions of A2  symmetry.
 There are    27 symmetry adapted basis functions of B1  symmetry.
 There are    27 symmetry adapted basis functions of B2  symmetry.
   117 basis functions,   174 primitive gaussians,   135 cartesian basis functions
    11 alpha electrons       11 beta electrons
       nuclear repulsion energy        57.4670683652 Hartrees.
 NAtoms=    3 NActive=    3 NUniq=    3 SFac= 1.00D+00 NAtFMM=   60 NAOKFM=F Big=F
 Integral buffers will be    131072 words long.
 Raffenetti 1 integral format.
 Two-electron integral symmetry is turned on.
 One-electron integrals computed using PRISM.
 NBasis=   117 RedAO= T EigKep=  1.29D-03  NBF=    51    12    27    27
 NBsUse=   117 1.00D-06 EigRej= -1.00D+00 NBFU=    51    12    27    27
 Initial guess from the checkpoint file:  "co2.chk"
 B after Tr=     0.000000    0.000000    0.000000
         Rot=    1.000000    0.000000    0.000000    0.000000 Ang=   0.00 deg.
 Initial guess orbital symmetries:
       Occupied  (SG) (SG) (SG) (SG) (SG) (SG) (SG) (PI) (PI) (PI)
                 (PI)
       Virtual   (SG) (PI) (PI) (SG) (PI) (PI) (SG) (DLTA) (DLTA)
                 (SG) (SG) (PI) (PI) (PI) (PI) (PI) (PI) (SG) (SG)
                 (DLTA) (DLTA) (SG) (DLTA) (DLTA) (SG) (PI) (PI)
                 (PI) (PI) (SG) (SG) (PI) (PI) (PHI) (PHI) (SG)
                 (DLTA) (DLTA) (DLTA) (DLTA) (PI) (PI) (PI) (PI)
                 (SG) (SG) (PI) (PI) (PHI) (PHI) (SG) (PI) (PI)
                 (PHI) (PHI) (DLTA) (DLTA) (SG) (DLTA) (DLTA) (PI)
                 (PI) (DLTA) (DLTA) (SG) (DLTA) (DLTA) (PI) (PI)
                 (SG) (PI) (PI) (SG) (PI) (PI) (SG) (SG) (SG) (SG)
                 (SG) (SG) (SG) (DLTA) (SG) (SG) (DLTA) (SG) (SG)
                 (DLTA) (SG) (SG) (DLTA) (DLTA) (DLTA) (PI) (PI)
                 (PI) (PI) (PI) (PI) (PI) (PI) (PI) (PI) (PI) (PI)
 Keep R1 ints in memory in symmetry-blocked form, NReq=30052945.
 Requested convergence on RMS density matrix=1.00D-08 within 128 cycles.
 Requested convergence on MAX density matrix=1.00D-06.
 Requested convergence on             energy=1.00D-06.
 No special actions if energy rises.
 SCF Done:  E(RHF) =  -187.700961463     A.U. after    9 cycles
            NFock=  9  Conv=0.40D-08     -V/T= 2.0027
 ExpMin= 4.38D-02 ExpMax= 8.59D+03 ExpMxC= 1.30D+03 IAcc=3 IRadAn=         5 AccDes= 0.00D+00
 HarFok:  IExCor=  205 AccDes= 0.00D+00 IRadAn=         5 IDoV=-2 UseB2=F ITyADJ=14
 ICtDFT= 12500011 ScaDFX=  1.000000  1.000000  1.000000  1.000000
 DSYEVD-2 returned Info=          79 IAlg= 4 N=    39 NDim=    39 NE2=   220253522 trying  DSYEV.
 Range of M.O.s used for correlation:     4   117
 NBasis=   117 NAE=    11 NBE=    11 NFC=     3 NFV=     0
 NROrb=    114 NOA=     8 NOB=     8 NVA=   106 NVB=   106

 **** Warning!!: The largest alpha MO coefficient is  0.18165523D+02

 Fully in-core method, ICMem=    97416114.
 JobTyp=1 Pass  1 fully in-core, NPsUse= 20.
 Spin components of T(2) and E(2):
     alpha-alpha T2 =       0.2337958993D-01 E2=     -0.8206967447D-01
     alpha-beta  T2 =       0.1181384600D+00 E2=     -0.4463420883D+00
     beta-beta   T2 =       0.2337958993D-01 E2=     -0.8206967447D-01
 ANorm=    0.1079304239D+01
 E2 =    -0.6104814373D+00 EUMP2 =    -0.18831144290063D+03

 **********************************************************************

            Population analysis using the SCF density.

 **********************************************************************

 Orbital symmetries:
       Occupied  (SG) (SG) (SG) (SG) (SG) (SG) (SG) (PI) (PI) (PI)
                 (PI)
       Virtual   (SG) (PI) (PI) (SG) (PI) (PI) (SG) (SG) (PI) (PI)
                 (SG) (PI) (PI) (SG) (DLTA) (DLTA) (SG) (PI) (PI)
                 (PI) (PI) (SG) (SG) (SG) (DLTA) (DLTA) (SG) (PI)
                 (PI) (DLTA) (DLTA) (PI) (PI) (SG) (SG) (PI) (PI)
                 (PI) (PI) (SG) (DLTA) (DLTA) (SG) (SG) (SG) (PI)
                 (PI) (PHI) (PHI) (PI) (PI) (SG) (DLTA) (DLTA)
                 (PI) (PI) (DLTA) (DLTA) (DLTA) (DLTA) (SG) (PI)
                 (PI) (SG) (SG) (PI) (PI) (PHI) (PHI) (PHI) (PHI)
                 (DLTA) (DLTA) (SG) (SG) (PI) (PI) (PI) (PI) (DLTA)
                 (DLTA) (SG) (SG) (PI) (PI) (DLTA) (DLTA) (PI)
                 (PI) (PI) (PI) (SG) (SG) (DLTA) (DLTA) (DLTA)
                 (DLTA) (PI) (PI) (SG) (PI) (PI) (SG) (SG) (SG)
                 (SG)
 The electronic state is 1-SG.
 Alpha  occ. eigenvalues --  -20.65734 -20.65729 -11.47108  -1.52192  -1.46897
 Alpha  occ. eigenvalues --   -0.80352  -0.74113  -0.70871  -0.70871  -0.54443
 Alpha  occ. eigenvalues --   -0.54443
 Alpha virt. eigenvalues --    0.05317   0.09592   0.09592   0.09807   0.19401
 Alpha virt. eigenvalues --    0.19401   0.22752   0.24739   0.25421   0.25421
 Alpha virt. eigenvalues --    0.30941   0.34254   0.34254   0.37062   0.41381
 Alpha virt. eigenvalues --    0.41381   0.47811   0.67677   0.67677   0.72962
 Alpha virt. eigenvalues --    0.72962   0.74754   0.78601   0.91487   0.94380
 Alpha virt. eigenvalues --    0.94380   1.07121   1.08967   1.08967   1.15602
 Alpha virt. eigenvalues --    1.15602   1.26458   1.26458   1.26524   1.41015
 Alpha virt. eigenvalues --    1.57396   1.57396   1.58070   1.58070   1.62599
 Alpha virt. eigenvalues --    1.75218   1.75218   1.91741   2.10623   2.37300
 Alpha virt. eigenvalues --    2.40716   2.40716   2.97393   2.97393   3.02478
 Alpha virt. eigenvalues --    3.02478   3.04340   3.04531   3.04531   3.31312
 Alpha virt. eigenvalues --    3.31312   3.79622   3.79622   3.85358   3.85358
 Alpha virt. eigenvalues --    3.90604   4.08078   4.08078   4.18499   4.34437
 Alpha virt. eigenvalues --    4.86879   4.86879   5.39760   5.39760   5.46009
 Alpha virt. eigenvalues --    5.46009   5.56802   5.56802   5.57451   5.71593
 Alpha virt. eigenvalues --    5.73223   5.73223   5.73577   5.73577   6.16356
 Alpha virt. eigenvalues --    6.16356   6.42667   6.51459   6.52490   6.52490
 Alpha virt. eigenvalues --    7.25553   7.25553   7.61368   7.61368   7.72574
 Alpha virt. eigenvalues --    7.72574   8.11519   9.05628  14.92605  14.92605
 Alpha virt. eigenvalues --   14.95072  14.95072  15.15449  15.15449  15.65234
 Alpha virt. eigenvalues --   15.79842  15.79842  15.88537  26.35303  51.87442
 Alpha virt. eigenvalues --   52.83826
          Condensed to atoms (all electrons):
               1          2          3
     1  C    4.263956   0.236387   0.236387
     2  O    0.236387   8.502971  -0.107723
     3  O    0.236387  -0.107723   8.502971
 Mulliken charges:
               1
     1  C    1.263270
     2  O   -0.631635
     3  O   -0.631635
 Sum of Mulliken charges =   0.00000
 Mulliken charges with hydrogens summed into heavy atoms:
               1
     1  C    1.263270
     2  O   -0.631635
     3  O   -0.631635
 Electronic spatial extent (au):  <R**2>=            116.5033
 Charge=              0.0000 electrons
 Dipole moment (field-independent basis, Debye):
    X=              0.0000    Y=              0.0000    Z=              0.0000  Tot=              0.0000
 Quadrupole moment (field-independent basis, Debye-Ang):
   XX=            -14.9004   YY=            -14.9004   ZZ=            -20.1336
   XY=              0.0000   XZ=              0.0000   YZ=              0.0000
 Traceless Quadrupole moment (field-independent basis, Debye-Ang):
   XX=              1.7444   YY=              1.7444   ZZ=             -3.4888
   XY=              0.0000   XZ=              0.0000   YZ=              0.0000
 Octapole moment (field-independent basis, Debye-Ang**2):
  XXX=              0.0000  YYY=              0.0000  ZZZ=              0.0000  XYY=              0.0000
  XXY=              0.0000  XXZ=              0.0000  XZZ=              0.0000  YZZ=              0.0000
  YYZ=              0.0000  XYZ=              0.0000
 Hexadecapole moment (field-independent basis, Debye-Ang**3):
 XXXX=            -11.7275 YYYY=            -11.7275 ZZZZ=           -106.3500 XXXY=              0.0000
 XXXZ=              0.0000 YYYX=              0.0000 YYYZ=              0.0000 ZZZX=              0.0000
 ZZZY=              0.0000 XXYY=             -3.9092 XXZZ=            -19.6376 YYZZ=            -19.6376
 XXYZ=              0.0000 YYXZ=              0.0000 ZZXY=              0.0000
 N-N= 5.746706836519D+01 E-N=-5.578816134066D+02  KE= 1.872006096096D+02
 Symmetry A1   KE= 1.705146847387D+02
 Symmetry A2   KE= 1.580025512484D-33
 Symmetry B1   KE= 8.342962435436D+00
 Symmetry B2   KE= 8.342962435436D+00
 1\1\GINC-CPU-G-5\SP\RMP2-FC\6-311+G(3df,2p)\C1O2\AM2145\17-Jul-2020\0\
 \#N Geom=AllCheck Guess=TCheck SCRF=Check MP2/6-311+G(3df,2p)\\co2_bac
 kup\\0,1\C,0,-3.555363315,-0.5134572706,0.\O,0,-4.7340067014,-0.521311
 5,0.\O,0,-2.3767199715,-0.5056030414,0.\\Version=ES64L-G09RevD.01\Stat
 e=1-SG\HF=-187.7009615\MP2=-188.3114429\RMSD=4.029e-09\PG=C*V [C*(O1C1
 O1)]\\@


 NEVER LOSE YOUR IGNORANCE, IT CAN'T BE REPLACED.
   -- ANDY CAPP
 Diagonal vibrational polarizability:
        0.0000000       0.0000000       0.0000000

 Temperature=              298.150000 Pressure=                      1.000000
 E(ZPE)=                     0.011381 E(Thermal)=                    0.014005
 E(QCISD(T))=             -188.215325 E(Empiric)=                   -0.049120
 DE(Plus)=                  -0.007686 DE(2DF)=                      -0.100326
 G1(0 K)=                 -188.361076 G1 Energy=                  -188.358453
 G1 Enthalpy=             -188.357508 G1 Free Energy=             -188.382397
 E(Delta-G2)=               -0.009364 E(G2-Empiric)=                 0.009120
 G2(0 K)=                 -188.361320 G2 Energy=                  -188.358696
 G2 Enthalpy=             -188.357752 G2 Free Energy=             -188.382641
 DE(MP2)=                   -0.112671
 G2MP2(0 K)=              -188.356616 G2MP2 Energy=               -188.353992
 G2MP2 Enthalpy=          -188.353048 G2MP2 Free Energy=          -188.377936
 1\1\GINC-CPU-G-5\Mixed\G2\G2\C1O2\AM2145\17-Jul-2020\0\\#n G2\\co2_bac
 kup\\0,1\C,0,-3.555363315,-0.5134572706,0.\O,0,-4.7340067014,-0.521311
 5,0.\O,0,-2.3767199715,-0.5056030414,0.\\Version=ES64L-G09RevD.01\Stat
 e=1-SG\MP2/6-311G(d,p)=-188.1987716\QCISD(T)/6-311G(d,p)=-188.2153253\
 MP4/6-311G(d,p)=-188.2250669\MP2/6-311+G(d,p)=-188.2062751\MP4/6-311+G
 (d,p)=-188.2327529\MP2/6-311G(2df,p)=-188.2945756\MP4/6-311G(2df,p)=-1
 88.3253928\MP2/6-311+G(3df,2p)=-188.3114429\G1=-188.3610763\G2MP2=-188
 .3566158\G2=-188.3613201\FreqCoord=-6.718662227,-0.9702936174,0.,-8.87
 90774242,-0.9846901659,0.,-4.5582493347,-0.9558970843,0.\PG=C*V [C*(O1
 C1O1)]\NImag=0\\2.20652550,0.01347964,0.18379613,0.,0.,0.18370631,-1.1
 0325737,-0.00673978,0.,1.24940729,-0.00673978,-0.09189863,0.,0.0080196
 9,0.04598711,0.,0.,-0.09185371,0.,0.,0.04593366,-1.10326813,-0.0067398
 6,0.,-0.14614992,-0.00127991,0.,1.24941805,-0.00673986,-0.09189751,0.,
 -0.00127991,0.04591152,0.,0.00801977,0.04598599,0.,0.,-0.09185259,0.,0
 .,0.04592005,0.,0.,0.04593254\\0.00000249,0.00000002,0.,-0.00002945,-0
 .00000020,0.,0.00002696,0.00000018,0.\\\@
 Job cpu time:       0 days  0 hours  9 minutes 11.6 seconds.
 File lengths (MBytes):  RWF=     96 Int=      0 D2E=      0 Chk=      2 Scr=      1
 Normal termination of Gaussian 09 at Fri Jul 17 16:49:27 2020.
