 Entering Gaussian System, Link 0=g09
 Initial command:
 /usr/local/Cluster-Apps/gaussian/g09/l1.exe "/rds/user/am2145/hpc-work/scratch/26040467/Gau-58728.inp" -scrdir="/rds/user/am2145/hpc-work/scratch/26040467/"
 Entering Link 1 = /usr/local/Cluster-Apps/gaussian/g09/l1.exe PID=     58729.
  
 Copyright (c) 1988,1990,1992,1993,1995,1998,2003,2009,2013,
            Gaussian, Inc.  All Rights Reserved.
  
 This is part of the Gaussian(R) 09 program.  It is based on
 the Gaussian(R) 03 system (copyright 2003, Gaussian, Inc.),
 the Gaussian(R) 98 system (copyright 1998, Gaussian, Inc.),
 the Gaussian(R) 94 system (copyright 1995, Gaussian, Inc.),
 the Gaussian 92(TM) system (copyright 1992, Gaussian, Inc.),
 the Gaussian 90(TM) system (copyright 1990, Gaussian, Inc.),
 the Gaussian 88(TM) system (copyright 1988, Gaussian, Inc.),
 the Gaussian 86(TM) system (copyright 1986, Carnegie Mellon
 University), and the Gaussian 82(TM) system (copyright 1983,
 Carnegie Mellon University). Gaussian is a federally registered
 trademark of Gaussian, Inc.
  
 This software contains proprietary and confidential information,
 including trade secrets, belonging to Gaussian, Inc.
  
 This software is provided under written license and may be
 used, copied, transmitted, or stored only in accord with that
 written license.
  
 The following legend is applicable only to US Government
 contracts under FAR:
  
                    RESTRICTED RIGHTS LEGEND
  
 Use, reproduction and disclosure by the US Government is
 subject to restrictions as set forth in subparagraphs (a)
 and (c) of the Commercial Computer Software - Restricted
 Rights clause in FAR 52.227-19.
  
 Gaussian, Inc.
 340 Quinnipiac St., Bldg. 40, Wallingford CT 06492
  
  
 ---------------------------------------------------------------
 Warning -- This program may not be used in any manner that
 competes with the business of Gaussian, Inc. or will provide
 assistance to any competitor of Gaussian, Inc.  The licensee
 of this program is prohibited from giving any competitor of
 Gaussian, Inc. access to this program.  By using this program,
 the user acknowledges that Gaussian, Inc. is engaged in the
 business of creating and licensing software in the field of
 computational chemistry and represents and warrants to the
 licensee that it is not a competitor of Gaussian, Inc. and that
 it will not use this program in any manner prohibited above.
 ---------------------------------------------------------------
  

 Cite this work as:
 Gaussian 09, Revision D.01,
 M. J. Frisch, G. W. Trucks, H. B. Schlegel, G. E. Scuseria, 
 M. A. Robb, J. R. Cheeseman, G. Scalmani, V. Barone, B. Mennucci, 
 G. A. Petersson, H. Nakatsuji, M. Caricato, X. Li, H. P. Hratchian, 
 A. F. Izmaylov, J. Bloino, G. Zheng, J. L. Sonnenberg, M. Hada, 
 M. Ehara, K. Toyota, R. Fukuda, J. Hasegawa, M. Ishida, T. Nakajima, 
 Y. Honda, O. Kitao, H. Nakai, T. Vreven, J. A. Montgomery, Jr., 
 J. E. Peralta, F. Ogliaro, M. Bearpark, J. J. Heyd, E. Brothers, 
 K. N. Kudin, V. N. Staroverov, T. Keith, R. Kobayashi, J. Normand, 
 K. Raghavachari, A. Rendell, J. C. Burant, S. S. Iyengar, J. Tomasi, 
 M. Cossi, N. Rega, J. M. Millam, M. Klene, J. E. Knox, J. B. Cross, 
 V. Bakken, C. Adamo, J. Jaramillo, R. Gomperts, R. E. Stratmann, 
 O. Yazyev, A. J. Austin, R. Cammi, C. Pomelli, J. W. Ochterski, 
 R. L. Martin, K. Morokuma, V. G. Zakrzewski, G. A. Voth, 
 P. Salvador, J. J. Dannenberg, S. Dapprich, A. D. Daniels, 
 O. Farkas, J. B. Foresman, J. V. Ortiz, J. Cioslowski, 
 and D. J. Fox, Gaussian, Inc., Wallingford CT, 2013.
 
 ******************************************
 Gaussian 09:  ES64L-G09RevD.01 24-Apr-2013
                16-Jul-2020 
 ******************************************
 %NProcShared=20
 Will use up to   20 processors via shared memory.
 %mem=64GB
 %Chk=co2.chk
 -----------------------------
 #t B3LYP/6-311G(d,p) Opt Freq
 -----------------------------
 ----------
 co2_backup
 ----------
 Symbolic Z-matrix:
 Charge =  0 Multiplicity = 1
 C                    -3.55536  -0.51345   0. 
 O                    -4.65534  -0.52079   0. 
 O                    -2.45539  -0.50613   0. 
 

 GradGradGradGradGradGradGradGradGradGradGradGradGradGradGradGradGradGrad
 Initialization pass.
                           ----------------------------
                           !    Initial Parameters    !
                           ! (Angstroms and Degrees)  !
 --------------------------                            --------------------------
 ! Name  Definition              Value          Derivative Info.                !
 --------------------------------------------------------------------------------
 ! R1    R(1,2)                  1.1            estimate D2E/DX2                !
 ! R2    R(1,3)                  1.1            estimate D2E/DX2                !
 ! A1    L(2,1,3,-3,-1)        180.001          estimate D2E/DX2                !
 ! A2    L(2,1,3,-2,-2)        180.0            estimate D2E/DX2                !
 --------------------------------------------------------------------------------
 Number of steps in this run=     20 maximum allowed number of steps=    100.
 GradGradGradGradGradGradGradGradGradGradGradGradGradGradGradGradGradGrad

                    Distance matrix (angstroms):
                    1          2          3
     1  C    0.000000
     2  O    1.100004   0.000000
     3  O    1.099994   2.199999   0.000000
 Framework group  C*V[C*(OCO)]
 Deg. of freedom     2
                         Standard orientation:                         
 ---------------------------------------------------------------------
 Center     Atomic      Atomic             Coordinates (Angstroms)
 Number     Number       Type             X           Y           Z
 ---------------------------------------------------------------------
      1          6           0        0.000000    0.000000   -0.000004
      2          8           0        0.000000    0.000000    1.100001
      3          8           0        0.000000    0.000000   -1.099998
 ---------------------------------------------------------------------
 Rotational constants (GHZ):      0.0000000     13.0563072     13.0563072
    54 basis functions,    96 primitive gaussians,    57 cartesian basis functions
    11 alpha electrons       11 beta electrons
       nuclear repulsion energy        61.5770166006 Hartrees.
 NAtoms=    3 NActive=    3 NUniq=    3 SFac= 1.00D+00 NAtFMM=   60 NAOKFM=F Big=F
 ExpMin= 1.46D-01 ExpMax= 8.59D+03 ExpMxC= 1.30D+03 IAcc=1 IRadAn=         1 AccDes= 0.00D+00
 Harris functional with IExCor=  402 and IRadAn=       1 diagonalized for initial guess.
 HarFok:  IExCor=  402 AccDes= 0.00D+00 IRadAn=         1 IDoV= 1 UseB2=F ITyADJ=14
 ICtDFT=  3500011 ScaDFX=  1.000000  1.000000  1.000000  1.000000
 FoFCou: FMM=F IPFlag=           0 FMFlag=      100000 FMFlg1=           0
         NFxFlg=           0 DoJE=T BraDBF=F KetDBF=T FulRan=T
         wScrn=  0.000000 ICntrl=     500 IOpCl=  0 I1Cent=   200000004 NGrid=           0
         NMat0=    1 NMatS0=      1 NMatT0=    0 NMatD0=    1 NMtDS0=    0 NMtDT0=    0
 Petite list used in FoFCou.
 Initial guess orbital symmetries:
       Occupied  (SG) (SG) (SG) (SG) (SG) (SG) (SG) (PI) (PI) (PI)
                 (PI)
       Virtual   (PI) (PI) (SG) (SG) (PI) (PI) (SG) (SG) (SG) (PI)
                 (PI) (PI) (PI) (SG) (DLTA) (DLTA) (SG) (PI) (PI)
                 (SG) (PI) (PI) (DLTA) (DLTA) (SG) (DLTA) (DLTA)
                 (SG) (PI) (PI) (SG) (SG) (PI) (PI) (PI) (PI) (PI)
                 (PI) (SG) (SG) (SG) (SG) (SG)
 The electronic state of the initial guess is 1-SG.
 Integral accuracy reduced to 1.0D-05 until final iterations.
 Initial convergence to 1.0D-05 achieved.  Increase integral accuracy.
 SCF Done:  E(RB3LYP) =  -188.623901331     A.U. after   11 cycles
            NFock= 11  Conv=0.11D-08     -V/T= 1.9992

 **********************************************************************

            Population analysis using the SCF density.

 **********************************************************************

 Orbital symmetries:
       Occupied  (SG) (SG) (SG) (SG) (SG) (SG) (PI) (PI) (SG) (PI)
                 (PI)
       Virtual   (PI) (PI) (SG) (SG) (PI) (PI) (SG) (SG) (SG) (PI)
                 (PI) (PI) (PI) (DLTA) (DLTA) (SG) (SG) (PI) (PI)
                 (SG) (PI) (PI) (DLTA) (DLTA) (SG) (DLTA) (DLTA)
                 (SG) (PI) (PI) (SG) (SG) (PI) (PI) (PI) (PI) (PI)
                 (PI) (SG) (SG) (SG) (SG) (SG)
 The electronic state is 1-SG.
 Alpha  occ. eigenvalues --  -19.18784 -19.18783 -10.33490  -1.19480  -1.15771
 Alpha  occ. eigenvalues --   -0.55448  -0.54411  -0.54411  -0.52578  -0.37802
 Alpha  occ. eigenvalues --   -0.37802
 Alpha virt. eigenvalues --    0.07544   0.07544   0.08741   0.30194   0.34388
 Alpha virt. eigenvalues --    0.34388   0.55968   0.65234   0.68228   0.74713
 Alpha virt. eigenvalues --    0.74713   0.93854   0.93854   1.17891   1.17892
 Alpha virt. eigenvalues --    1.19550   1.26814   1.45188   1.45188   1.53430
 Alpha virt. eigenvalues --    2.47177   2.47177   2.73090   2.73090   2.80942
 Alpha virt. eigenvalues --    2.88220   2.88220   3.06165   3.09254   3.09254
 Alpha virt. eigenvalues --    3.59648   3.66322   3.73124   3.73124   4.85163
 Alpha virt. eigenvalues --    4.85163   5.02547   5.02547   5.42459   5.84181
 Alpha virt. eigenvalues --   24.70123  49.85080  50.21193
          Condensed to atoms (all electrons):
 Mulliken charges:
               1
     1  C    0.485770
     2  O   -0.242889
     3  O   -0.242881
 Sum of Mulliken charges =   0.00000
 Mulliken charges with hydrogens summed into heavy atoms:
               1
     1  C    0.485770
     2  O   -0.242889
     3  O   -0.242881
 Electronic spatial extent (au):  <R**2>=            104.4372
 Charge=              0.0000 electrons
 Dipole moment (field-independent basis, Debye):
    X=              0.0000    Y=              0.0000    Z=             -0.0001  Tot=              0.0001
 Calling FoFJK, ICntrl=      2127 FMM=F ISym2X=1 I1Cent= 0 IOpClX= 0 NMat=1 NMatS=1 NMatT=0.

 GradGradGradGradGradGradGradGradGradGradGradGradGradGradGradGradGradGrad
 FormGI is forming the generalized inverse of G from B-inverse, IUseBI=4.
 Internal  Forces:  Max     0.161901766 RMS     0.114471603
 Step number   1 out of a maximum of   20
 All quantities printed in internal units (Hartrees-Bohrs-Radians)
 Mixed Optimization -- RFO/linear search
 Second derivative matrix not updated -- first step.
 ITU=  0
     Eigenvalues ---    0.05660   0.05660   1.76715   1.76725
 Linear search not attempted -- first point.
 Iteration  1 RMS(Cart)=  0.06372347 RMS(Int)=  0.00000000
 Iteration  2 RMS(Cart)=  0.00000000 RMS(Int)=  0.00000000
 ClnCor:  largest displacement from symmetrization is 8.02D-10 for atom     1.
 Variable       Old X    -DE/DX   Delta X   Delta X   Delta X     New X
                                 (Linear)    (Quad)   (Total)
    R1        2.07871   0.16187   0.00000   0.09011   0.09011   2.16882
    R2        2.07869   0.16190   0.00000   0.09012   0.09012   2.16881
    A1        3.14159   0.00000   0.00000   0.00000   0.00000   3.14159
    A2        3.14159   0.00000   0.00000   0.00000   0.00000   3.14159
         Item               Value     Threshold  Converged?
 Maximum Force            0.161902     0.000450     NO 
 RMS     Force            0.114472     0.000300     NO 
 Maximum Displacement     0.090118     0.001800     NO 
 RMS     Displacement     0.063723     0.001200     NO 
 GradGradGradGradGradGradGradGradGradGradGradGradGradGradGradGradGradGrad

                    Distance matrix (angstroms):
                    1          2          3
     1  C    0.000000
     2  O    1.147690   0.000000
     3  O    1.147686   2.295376   0.000000
 Framework group  C*V[C*(OCO)]
 Deg. of freedom     2
                         Standard orientation:                         
 ---------------------------------------------------------------------
 Center     Atomic      Atomic             Coordinates (Angstroms)
 Number     Number       Type             X           Y           Z
 ---------------------------------------------------------------------
      1          6           0        0.000000    0.000000   -0.000002
      2          8           0        0.000000    0.000000    1.147689
      3          8           0        0.000000    0.000000   -1.147688
 ---------------------------------------------------------------------
 Rotational constants (GHZ):      0.0000000     11.9938191     11.9938191
    54 basis functions,    96 primitive gaussians,    57 cartesian basis functions
    11 alpha electrons       11 beta electrons
       nuclear repulsion energy        59.0183700119 Hartrees.
 NAtoms=    3 NActive=    3 NUniq=    3 SFac= 1.00D+00 NAtFMM=   60 NAOKFM=F Big=F
 Initial guess from the checkpoint file:  "co2.chk"
 B after Tr=     0.000000    0.000000    0.000000
         Rot=    1.000000    0.000000    0.000000    0.000000 Ang=   0.00 deg.
 Initial guess orbital symmetries:
       Occupied  (SG) (SG) (SG) (SG) (SG) (SG) (PI) (PI) (SG) (PI)
                 (PI)
       Virtual   (SG) (SG) (SG) (SG) (SG) (SG) (SG) (SG) (SG) (DLTA)
                 (SG) (DLTA) (DLTA) (SG) (SG) (SG) (SG) (SG) (SG)
                 (SG) (DLTA) (DLTA) (DLTA) (PI) (PI) (PI) (PI)
                 (PI) (PI) (PI) (PI) (PI) (PI) (PI) (PI) (PI) (PI)
                 (PI) (PI) (PI) (PI) (PI) (PI)
 ExpMin= 1.46D-01 ExpMax= 8.59D+03 ExpMxC= 1.30D+03 IAcc=1 IRadAn=         1 AccDes= 0.00D+00
 Harris functional with IExCor=  402 and IRadAn=       1 diagonalized for initial guess.
 HarFok:  IExCor=  402 AccDes= 0.00D+00 IRadAn=         1 IDoV= 1 UseB2=F ITyADJ=14
 ICtDFT=  3500011 ScaDFX=  1.000000  1.000000  1.000000  1.000000
 FoFCou: FMM=F IPFlag=           0 FMFlag=      100000 FMFlg1=           0
         NFxFlg=           0 DoJE=T BraDBF=F KetDBF=T FulRan=T
         wScrn=  0.000000 ICntrl=     500 IOpCl=  0 I1Cent=   200000004 NGrid=           0
         NMat0=    1 NMatS0=      1 NMatT0=    0 NMatD0=    1 NMtDS0=    0 NMtDT0=    0
 Petite list used in FoFCou.
 Integral accuracy reduced to 1.0D-05 until final iterations.
 Initial convergence to 1.0D-05 achieved.  Increase integral accuracy.
 SCF Done:  E(RB3LYP) =  -188.640453448     A.U. after   11 cycles
            NFock= 11  Conv=0.72D-08     -V/T= 2.0020
 Calling FoFJK, ICntrl=      2127 FMM=F ISym2X=1 I1Cent= 0 IOpClX= 0 NMat=1 NMatS=1 NMatT=0.

 GradGradGradGradGradGradGradGradGradGradGradGradGradGradGradGradGradGrad
 Using GEDIIS/GDIIS optimizer.
 Internal  Forces:  Max     0.028864365 RMS     0.020407081
 Step number   2 out of a maximum of   20
 All quantities printed in internal units (Hartrees-Bohrs-Radians)
 Mixed Optimization -- RFO/linear search
 Trust test= 1.12D+00 RLast= 1.27D-01 DXMaxT set to 3.82D-01
 ITU=  1  0
 Use linear search instead of GDIIS.
     Eigenvalues ---    0.05660   0.05660   1.47614   1.76720
 Quartic linear search produced a step of  0.26925.
 Iteration  1 RMS(Cart)=  0.01715773 RMS(Int)=  0.00000001
 Iteration  2 RMS(Cart)=  0.00000001 RMS(Int)=  0.00000002
 ClnCor:  largest displacement from symmetrization is 2.17D-08 for atom     1.
 Variable       Old X    -DE/DX   Delta X   Delta X   Delta X     New X
                                 (Linear)    (Quad)   (Total)
    R1        2.16882   0.02886   0.02426   0.00000   0.02426   2.19308
    R2        2.16881   0.02886   0.02427   0.00000   0.02427   2.19308
    A1        3.14159   0.00000   0.00000   0.00000   0.00000   3.14159
    A2        3.14159   0.00000   0.00000   0.00000   0.00000   3.14159
         Item               Value     Threshold  Converged?
 Maximum Force            0.028864     0.000450     NO 
 RMS     Force            0.020407     0.000300     NO 
 Maximum Displacement     0.024265     0.001800     NO 
 RMS     Displacement     0.017158     0.001200     NO 
 GradGradGradGradGradGradGradGradGradGradGradGradGradGradGradGradGradGrad

                    Distance matrix (angstroms):
                    1          2          3
     1  C    0.000000
     2  O    1.160529   0.000000
     3  O    1.160528   2.321057   0.000000
 Framework group  C*V[C*(OCO)]
 Deg. of freedom     2
                         Standard orientation:                         
 ---------------------------------------------------------------------
 Center     Atomic      Atomic             Coordinates (Angstroms)
 Number     Number       Type             X           Y           Z
 ---------------------------------------------------------------------
      1          6           0        0.000000    0.000000   -0.000001
      2          8           0        0.000000    0.000000    1.160529
      3          8           0        0.000000    0.000000   -1.160528
 ---------------------------------------------------------------------
 Rotational constants (GHZ):      0.0000000     11.7298833     11.7298833
    54 basis functions,    96 primitive gaussians,    57 cartesian basis functions
    11 alpha electrons       11 beta electrons
       nuclear repulsion energy        58.3653788450 Hartrees.
 NAtoms=    3 NActive=    3 NUniq=    3 SFac= 1.00D+00 NAtFMM=   60 NAOKFM=F Big=F
 Initial guess from the checkpoint file:  "co2.chk"
 B after Tr=     0.000000    0.000000    0.000000
         Rot=    1.000000    0.000000    0.000000    0.000000 Ang=   0.00 deg.
 Initial guess orbital symmetries:
       Occupied  (SG) (SG) (SG) (SG) (SG) (SG) (PI) (PI) (SG) (PI)
                 (PI)
       Virtual   (SG) (SG) (SG) (SG) (SG) (SG) (SG) (SG) (SG) (DLTA)
                 (SG) (DLTA) (DLTA) (SG) (SG) (SG) (SG) (SG) (SG)
                 (SG) (DLTA) (DLTA) (DLTA) (PI) (PI) (PI) (PI)
                 (PI) (PI) (PI) (PI) (PI) (PI) (PI) (PI) (PI) (PI)
                 (PI) (PI) (PI) (PI) (PI) (PI)
 ExpMin= 1.46D-01 ExpMax= 8.59D+03 ExpMxC= 1.30D+03 IAcc=1 IRadAn=         1 AccDes= 0.00D+00
 Harris functional with IExCor=  402 and IRadAn=       1 diagonalized for initial guess.
 HarFok:  IExCor=  402 AccDes= 0.00D+00 IRadAn=         1 IDoV= 1 UseB2=F ITyADJ=14
 ICtDFT=  3500011 ScaDFX=  1.000000  1.000000  1.000000  1.000000
 FoFCou: FMM=F IPFlag=           0 FMFlag=      100000 FMFlg1=           0
         NFxFlg=           0 DoJE=T BraDBF=F KetDBF=T FulRan=T
         wScrn=  0.000000 ICntrl=     500 IOpCl=  0 I1Cent=   200000004 NGrid=           0
         NMat0=    1 NMatS0=      1 NMatT0=    0 NMatD0=    1 NMtDS0=    0 NMtDT0=    0
 Petite list used in FoFCou.
 Integral accuracy reduced to 1.0D-05 until final iterations.
 Initial convergence to 1.0D-05 achieved.  Increase integral accuracy.
 SCF Done:  E(RB3LYP) =  -188.641138764     A.U. after   10 cycles
            NFock= 10  Conv=0.34D-08     -V/T= 2.0026
 Calling FoFJK, ICntrl=      2127 FMM=F ISym2X=1 I1Cent= 0 IOpClX= 0 NMat=1 NMatS=1 NMatT=0.

 GradGradGradGradGradGradGradGradGradGradGradGradGradGradGradGradGradGrad
 Using GEDIIS/GDIIS optimizer.
 Internal  Forces:  Max     0.000187020 RMS     0.000131270
 Step number   3 out of a maximum of   20
 All quantities printed in internal units (Hartrees-Bohrs-Radians)
 Mixed Optimization -- En-DIIS/RFO-DIIS
 Trust test= 1.29D+00 RLast= 3.43D-02 DXMaxT set to 3.82D-01
 ITU=  1  1  0
 Use linear search instead of GDIIS.
     Eigenvalues ---    0.05660   0.05660   1.19703   1.76720
 Quartic linear search produced a step of -0.00668.
 Iteration  1 RMS(Cart)=  0.00011470 RMS(Int)=  0.00000001
 Iteration  2 RMS(Cart)=  0.00000001 RMS(Int)=  0.00000000
 ClnCor:  largest displacement from symmetrization is 1.50D-08 for atom     1.
 Variable       Old X    -DE/DX   Delta X   Delta X   Delta X     New X
                                 (Linear)    (Quad)   (Total)
    R1        2.19308  -0.00019  -0.00016   0.00000  -0.00016   2.19292
    R2        2.19308  -0.00018  -0.00016   0.00000  -0.00016   2.19292
    A1        3.14159   0.00000   0.00000   0.00000   0.00000   3.14159
    A2        3.14159   0.00000   0.00000   0.00000   0.00000   3.14159
         Item               Value     Threshold  Converged?
 Maximum Force            0.000187     0.000450     YES
 RMS     Force            0.000131     0.000300     YES
 Maximum Displacement     0.000162     0.001800     YES
 RMS     Displacement     0.000115     0.001200     YES
 Optimization completed.
    -- Stationary point found.
                           ----------------------------
                           !   Optimized Parameters   !
                           ! (Angstroms and Degrees)  !
 --------------------------                            --------------------------
 ! Name  Definition              Value          Derivative Info.                !
 --------------------------------------------------------------------------------
 ! R1    R(1,2)                  1.1605         -DE/DX =   -0.0002              !
 ! R2    R(1,3)                  1.1605         -DE/DX =   -0.0002              !
 ! A1    L(2,1,3,-3,-1)        180.0            -DE/DX =    0.0                 !
 ! A2    L(2,1,3,-2,-2)        180.0            -DE/DX =    0.0                 !
 --------------------------------------------------------------------------------
 GradGradGradGradGradGradGradGradGradGradGradGradGradGradGradGradGradGrad

                    Distance matrix (angstroms):
                    1          2          3
     1  C    0.000000
     2  O    1.160529   0.000000
     3  O    1.160528   2.321057   0.000000
 Framework group  C*V[C*(OCO)]
 Deg. of freedom     2
                         Standard orientation:                         
 ---------------------------------------------------------------------
 Center     Atomic      Atomic             Coordinates (Angstroms)
 Number     Number       Type             X           Y           Z
 ---------------------------------------------------------------------
      1          6           0        0.000000    0.000000   -0.000001
      2          8           0        0.000000    0.000000    1.160529
      3          8           0        0.000000    0.000000   -1.160528
 ---------------------------------------------------------------------
 Rotational constants (GHZ):      0.0000000     11.7298833     11.7298833

 **********************************************************************

            Population analysis using the SCF density.

 **********************************************************************

 Orbital symmetries:
       Occupied  (SG) (SG) (SG) (SG) (SG) (SG) (SG) (PI) (PI) (PI)
                 (PI)
       Virtual   (PI) (PI) (SG) (SG) (PI) (PI) (SG) (SG) (SG) (PI)
                 (PI) (PI) (PI) (SG) (DLTA) (DLTA) (SG) (PI) (PI)
                 (SG) (PI) (PI) (SG) (DLTA) (DLTA) (DLTA) (DLTA)
                 (PI) (PI) (SG) (SG) (SG) (PI) (PI) (PI) (PI) (PI)
                 (PI) (SG) (SG) (SG) (SG) (SG)
 The electronic state is 1-SG.
 Alpha  occ. eigenvalues --  -19.20314 -19.20314 -10.36037  -1.16819  -1.12898
 Alpha  occ. eigenvalues --   -0.56616  -0.52440  -0.52194  -0.52194  -0.37686
 Alpha  occ. eigenvalues --   -0.37686
 Alpha virt. eigenvalues --    0.02943   0.02943   0.06533   0.30326   0.35071
 Alpha virt. eigenvalues --    0.35071   0.49015   0.63685   0.69098   0.74700
 Alpha virt. eigenvalues --    0.74700   0.92379   0.92379   1.01052   1.18567
 Alpha virt. eigenvalues --    1.18568   1.25608   1.38351   1.38351   1.54354
 Alpha virt. eigenvalues --    2.43363   2.43363   2.61408   2.73543   2.73543
 Alpha virt. eigenvalues --    2.84576   2.84576   3.05673   3.05673   3.13345
 Alpha virt. eigenvalues --    3.55707   3.59155   3.61390   3.61390   4.82648
 Alpha virt. eigenvalues --    4.82648   4.90924   4.90924   5.43016   5.59343
 Alpha virt. eigenvalues --   24.35123  49.81173  50.03039
          Condensed to atoms (all electrons):
 Mulliken charges:
               1
     1  C    0.496756
     2  O   -0.248378
     3  O   -0.248377
 Sum of Mulliken charges =   0.00000
 Mulliken charges with hydrogens summed into heavy atoms:
               1
     1  C    0.496756
     2  O   -0.248378
     3  O   -0.248377
 Electronic spatial extent (au):  <R**2>=            112.9195
 Charge=              0.0000 electrons
 Dipole moment (field-independent basis, Debye):
    X=              0.0000    Y=              0.0000    Z=              0.0000  Tot=              0.0000
 1\1\GINC-CPU-G-4\FOpt\RB3LYP\6-311G(d,p)\C1O2\AM2145\16-Jul-2020\0\\#t
  B3LYP/6-311G(d,p) Opt Freq\\co2_backup\\0,1\C,-3.555362832,-0.5134572
 674,0.\O,-4.7158662625,-0.521190616,0.\O,-2.3948608934,-0.5057239287,0
 .\\Version=ES64L-G09RevD.01\State=1-SG\HF=-188.6411388\RMSD=3.416e-09\
 RMSF=8.752e-05\Dipole=0.0000033,0.,0.\Quadrupole=-2.3177601,1.1588029,
 1.1589573,-0.0231681,0.,0.\PG=C*V [C*(O1C1O1)]\\@


 WE ARE PERHAPS NOT FAR REMOVED FROM THE TIME WHEN WE SHALL BE ABLE TO SUBMIT
 THE BULK OF CHEMICAL PHENOMENA TO CALCULATION.

            -- JOSEPH LOUIS GAY-LUSSAC
               MEMOIRES DE LA SOCIETE D'ARCUEIL, 2, 207 (1808)
 Job cpu time:       0 days  0 hours 10 minutes 10.2 seconds.
 File lengths (MBytes):  RWF=      5 Int=      0 D2E=      0 Chk=      1 Scr=      1
 Normal termination of Gaussian 09 at Thu Jul 16 18:50:57 2020.
 Link1:  Proceeding to internal job step number  2.
 ----------------------------------------------------------------------
 #T Geom=AllCheck Guess=TCheck SCRF=Check GenChk RB3LYP/6-311G(d,p) Fre
 q
 ----------------------------------------------------------------------
 Structure from the checkpoint file:  "co2.chk"
 ----------
 co2_backup
 ----------
 Charge =  0 Multiplicity = 1
 Redundant internal coordinates found in file.
 C,0,-3.555362832,-0.5134572674,0.
 O,0,-4.7158662625,-0.521190616,0.
 O,0,-2.3948608934,-0.5057239287,0.
 Recover connectivity data from disk.

 GradGradGradGradGradGradGradGradGradGradGradGradGradGradGradGradGradGrad
 Initialization pass.
                           ----------------------------
                           !    Initial Parameters    !
                           ! (Angstroms and Degrees)  !
 --------------------------                            --------------------------
 ! Name  Definition              Value          Derivative Info.                !
 --------------------------------------------------------------------------------
 ! R1    R(1,2)                  1.1605         calculate D2E/DX2 analytically  !
 ! R2    R(1,3)                  1.1605         calculate D2E/DX2 analytically  !
 ! A1    L(2,1,3,-3,-1)        180.0            calculate D2E/DX2 analytically  !
 ! A2    L(2,1,3,-2,-2)        180.0            calculate D2E/DX2 analytically  !
 --------------------------------------------------------------------------------
 Number of steps in this run=      2 maximum allowed number of steps=      2.
 GradGradGradGradGradGradGradGradGradGradGradGradGradGradGradGradGradGrad

                    Distance matrix (angstroms):
                    1          2          3
     1  C    0.000000
     2  O    1.160529   0.000000
     3  O    1.160528   2.321057   0.000000
 Framework group  C*V[C*(OCO)]
 Deg. of freedom     2
                         Standard orientation:                         
 ---------------------------------------------------------------------
 Center     Atomic      Atomic             Coordinates (Angstroms)
 Number     Number       Type             X           Y           Z
 ---------------------------------------------------------------------
      1          6           0        0.000000    0.000000   -0.000001
      2          8           0        0.000000    0.000000    1.160529
      3          8           0        0.000000    0.000000   -1.160528
 ---------------------------------------------------------------------
 Rotational constants (GHZ):      0.0000000     11.7298833     11.7298833
    54 basis functions,    96 primitive gaussians,    57 cartesian basis functions
    11 alpha electrons       11 beta electrons
       nuclear repulsion energy        58.3653788450 Hartrees.
 NAtoms=    3 NActive=    3 NUniq=    3 SFac= 1.00D+00 NAtFMM=   60 NAOKFM=F Big=F
 Initial guess from the checkpoint file:  "co2.chk"
 B after Tr=     0.000000    0.000000    0.000000
         Rot=    1.000000    0.000000    0.000000    0.000000 Ang=   0.00 deg.
 Initial guess orbital symmetries:
       Occupied  (SG) (SG) (SG) (SG) (SG) (SG) (SG) (PI) (PI) (PI)
                 (PI)
       Virtual   (PI) (PI) (SG) (SG) (PI) (PI) (SG) (SG) (SG) (PI)
                 (PI) (PI) (PI) (SG) (DLTA) (DLTA) (SG) (PI) (PI)
                 (SG) (PI) (PI) (SG) (DLTA) (DLTA) (DLTA) (DLTA)
                 (PI) (PI) (SG) (SG) (SG) (PI) (PI) (PI) (PI) (PI)
                 (PI) (SG) (SG) (SG) (SG) (SG)
 SCF Done:  E(RB3LYP) =  -188.641138764     A.U. after    1 cycles
            NFock=  1  Conv=0.91D-09     -V/T= 2.0026
 DoSCS=F DFT=T ScalE2(SS,OS)=  1.000000  1.000000
 NROrb=     54 NOA=    11 NOB=    11 NVA=    43 NVB=    43
 Symmetrizing basis deriv contribution to polar:
 IMax=3 JMax=2 DiffMx= 0.00D+00
 Calling FoFCou, ICntrl=  3107 FMM=F I1Cent=   0 AccDes= 0.00D+00.
 End of G2Drv F.D. properties file   721 does not exist.
 End of G2Drv F.D. properties file   722 does not exist.
 End of G2Drv F.D. properties file   788 does not exist.
          IDoAtm=111
 End of Minotr F.D. properties file   721 does not exist.
 End of Minotr F.D. properties file   722 does not exist.
 End of Minotr F.D. properties file   788 does not exist.

 **********************************************************************

            Population analysis using the SCF density.

 **********************************************************************

 Orbital symmetries:
       Occupied  (SG) (SG) (SG) (SG) (SG) (SG) (SG) (PI) (PI) (PI)
                 (PI)
       Virtual   (PI) (PI) (SG) (SG) (PI) (PI) (SG) (SG) (SG) (PI)
                 (PI) (PI) (PI) (SG) (DLTA) (DLTA) (SG) (PI) (PI)
                 (SG) (PI) (PI) (SG) (DLTA) (DLTA) (DLTA) (DLTA)
                 (PI) (PI) (SG) (SG) (SG) (PI) (PI) (PI) (PI) (PI)
                 (PI) (SG) (SG) (SG) (SG) (SG)
 The electronic state is 1-SG.
 Alpha  occ. eigenvalues --  -19.20314 -19.20314 -10.36037  -1.16819  -1.12898
 Alpha  occ. eigenvalues --   -0.56616  -0.52440  -0.52194  -0.52194  -0.37686
 Alpha  occ. eigenvalues --   -0.37686
 Alpha virt. eigenvalues --    0.02943   0.02943   0.06533   0.30326   0.35071
 Alpha virt. eigenvalues --    0.35071   0.49015   0.63685   0.69098   0.74700
 Alpha virt. eigenvalues --    0.74700   0.92379   0.92379   1.01052   1.18567
 Alpha virt. eigenvalues --    1.18568   1.25608   1.38351   1.38351   1.54354
 Alpha virt. eigenvalues --    2.43363   2.43363   2.61408   2.73543   2.73543
 Alpha virt. eigenvalues --    2.84576   2.84576   3.05673   3.05673   3.13345
 Alpha virt. eigenvalues --    3.55707   3.59155   3.61390   3.61390   4.82648
 Alpha virt. eigenvalues --    4.82648   4.90924   4.90924   5.43016   5.59343
 Alpha virt. eigenvalues --   24.35123  49.81173  50.03039
          Condensed to atoms (all electrons):
 Mulliken charges:
               1
     1  C    0.496756
     2  O   -0.248379
     3  O   -0.248377
 Sum of Mulliken charges =   0.00000
 Mulliken charges with hydrogens summed into heavy atoms:
               1
     1  C    0.496756
     2  O   -0.248379
     3  O   -0.248377
 APT charges:
               1
     1  C    1.145454
     2  O   -0.572727
     3  O   -0.572727
 Sum of APT charges =   0.00000
 APT charges with hydrogens summed into heavy atoms:
               1
     1  C    1.145454
     2  O   -0.572727
     3  O   -0.572727
 Electronic spatial extent (au):  <R**2>=            112.9195
 Charge=              0.0000 electrons
 Dipole moment (field-independent basis, Debye):
    X=              0.0000    Y=              0.0000    Z=              0.0000  Tot=              0.0000
  Exact polarizability:   7.742   0.000   7.742   0.000   0.000  22.323
 Approx polarizability:   9.619   0.000   9.619   0.000   0.000  45.297
 Calling FoFJK, ICntrl=    100127 FMM=F ISym2X=1 I1Cent= 0 IOpClX= 0 NMat=1 NMatS=1 NMatT=0.
 Full mass-weighted force constant matrix:
 Low frequencies ---   -0.0022   -0.0017   -0.0017   14.3728   14.3728  666.8738
 Low frequencies ---  666.8738 1374.9931 2434.8919
 Diagonal vibrational polarizability:
        1.9839178       1.9839178       2.8073139
 Harmonic frequencies (cm**-1), IR intensities (KM/Mole), Raman scattering
 activities (A**4/AMU), depolarization ratios for plane and unpolarized
 incident light, reduced masses (AMU), force constants (mDyne/A),
 and normal coordinates:
                      1                      2                      3
                     PI                     PI                     SG
 Frequencies --    666.8738               666.8738              1374.9931
 Red. masses --     12.8774                12.8774                15.9949
 Frc consts  --      3.3742                 3.3742                17.8169
 IR Inten    --     32.7852                32.7852                 0.0000
  Atom  AN      X      Y      Z        X      Y      Z        X      Y      Z
     1   6    -0.35   0.81   0.00     0.81   0.35   0.00     0.00   0.00   0.00
     2   8     0.13  -0.30   0.00    -0.30  -0.13   0.00     0.00   0.00   0.71
     3   8     0.13  -0.30   0.00    -0.30  -0.13   0.00     0.00   0.00  -0.71
                      4
                     SG
 Frequencies --   2434.8919
 Red. masses --     12.8774
 Frc consts  --     44.9818
 IR Inten    --    618.4680
  Atom  AN      X      Y      Z
     1   6     0.00   0.00   0.88
     2   8     0.00   0.00  -0.33
     3   8     0.00   0.00  -0.33
 
 Temperature   298.150 Kelvin.  Pressure   1.00000 Atm.
 Zero-point correction=                           0.011718 (Hartree/Particle)
 Thermal correction to Energy=                    0.014340
 Thermal correction to Enthalpy=                  0.015284
 Thermal correction to Gibbs Free Energy=        -0.009630
 Sum of electronic and zero-point Energies=           -188.629421
 Sum of electronic and thermal Energies=              -188.626799
 Sum of electronic and thermal Enthalpies=            -188.625854
 Sum of electronic and thermal Free Energies=         -188.650769
 FormGI is forming the generalized inverse of G from B-inverse, IUseBI=4.

 GradGradGradGradGradGradGradGradGradGradGradGradGradGradGradGradGradGrad
 Internal  Forces:  Max     0.000187051 RMS     0.000131294
 Step number   1 out of a maximum of    2
 All quantities printed in internal units (Hartrees-Bohrs-Radians)
 Second derivative matrix not updated -- analytic derivatives used.
 ITU=  0
     Eigenvalues ---    0.17638   0.17639   0.97895   1.14439
 Angle between quadratic step and forces=   0.07 degrees.
 Linear search not attempted -- first point.
 Iteration  1 RMS(Cart)=  0.00011473 RMS(Int)=  0.00000000
 Iteration  2 RMS(Cart)=  0.00000000 RMS(Int)=  0.00000000
 ClnCor:  largest displacement from symmetrization is 1.39D-11 for atom     1.
 Variable       Old X    -DE/DX   Delta X   Delta X   Delta X     New X
                                 (Linear)    (Quad)   (Total)
    R1        2.19308  -0.00019   0.00000  -0.00016  -0.00016   2.19292
    R2        2.19308  -0.00018   0.00000  -0.00016  -0.00016   2.19292
    A1        3.14159   0.00000   0.00000   0.00000   0.00000   3.14159
    A2        3.14159   0.00000   0.00000   0.00000   0.00000   3.14159
         Item               Value     Threshold  Converged?
 Maximum Force            0.000187     0.000450     YES
 RMS     Force            0.000131     0.000300     YES
 Maximum Displacement     0.000163     0.001800     YES
 RMS     Displacement     0.000115     0.001200     YES
 Optimization completed.
    -- Stationary point found.
                           ----------------------------
                           !   Optimized Parameters   !
                           ! (Angstroms and Degrees)  !
 --------------------------                            --------------------------
 ! Name  Definition              Value          Derivative Info.                !
 --------------------------------------------------------------------------------
 ! R1    R(1,2)                  1.1605         -DE/DX =   -0.0002              !
 ! R2    R(1,3)                  1.1605         -DE/DX =   -0.0002              !
 ! A1    L(2,1,3,-3,-1)        180.0            -DE/DX =    0.0                 !
 ! A2    L(2,1,3,-2,-2)        180.0            -DE/DX =    0.0                 !
 --------------------------------------------------------------------------------
 GradGradGradGradGradGradGradGradGradGradGradGradGradGradGradGradGradGrad

 1\1\GINC-CPU-G-4\Freq\RB3LYP\6-311G(d,p)\C1O2\AM2145\16-Jul-2020\0\\#T
  Geom=AllCheck Guess=TCheck SCRF=Check GenChk RB3LYP/6-311G(d,p) Freq\
 \co2_backup\\0,1\C,-3.555362832,-0.5134572674,0.\O,-4.7158662625,-0.52
 1190616,0.\O,-2.3948608934,-0.5057239287,0.\\Version=ES64L-G09RevD.01\
 State=1-SG\HF=-188.6411388\RMSD=9.108e-10\RMSF=8.753e-05\ZeroPoint=0.0
 117181\Thermal=0.0143403\Dipole=0.0000033,0.,0.\DipoleDeriv=2.3528193,
 0.0120687,0.,0.0120687,0.5418115,0.,0.,0.,0.5417311,-1.1764085,-0.0060
 343,0.,-0.0060343,-0.2709063,0.,0.,0.,-0.2708661,-1.1764108,-0.0060344
 ,0.,-0.0060344,-0.2709052,0.,0.,0.,-0.270865\Polar=22.322165,0.0971617
 ,7.7422543,0.,0.,7.7416069\PG=C*V [C*(O1C1O1)]\NImag=0\\1.95782496,0.0
 1206785,0.14694587,0.,0.,0.14686545,-0.97890700,-0.00603388,0.,1.06162
 083,-0.00603388,-0.07347352,0.,0.00682933,0.03682498,0.,0.,-0.07343331
 ,0.,0.,0.03677947,-0.97891796,-0.00603397,0.,-0.08271383,-0.00079544,0
 .,1.06163179,-0.00603397,-0.07347235,0.,-0.00079544,0.03664854,0.,0.00
 682941,0.03682381,0.,0.,-0.07343215,0.,0.,0.03665384,0.,0.,0.03677830\
 \0.00000276,0.00000002,0.,-0.00018705,-0.00000125,0.,0.00018429,0.0000
 0123,0.\\\@


 GROWING OLD ISN'T SO BAD -- WHEN YOU CONSIDER THE ALTERNATIVE.

                     -- MAURICE CHEVALIER
 Job cpu time:       0 days  0 hours  3 minutes 51.5 seconds.
 File lengths (MBytes):  RWF=      5 Int=      0 D2E=      0 Chk=      1 Scr=      1
 Normal termination of Gaussian 09 at Thu Jul 16 18:51:13 2020.
