 Entering Gaussian System, Link 0=g03
 Input=./(CH3)3SiO.gau
 Output=./(CH3)3SiO.log
 Initial command:
 /opt//g03/l1.exe /scratch/Gau-19676.inp -scrdir=/scratch/
 Entering Link 1 = /opt//g03/l1.exe PID=     19693.
  
 Copyright (c) 1988,1990,1992,1993,1995,1998,2003,2004,2007, Gaussian, Inc.
                  All Rights Reserved.
  
 This is the Gaussian(R) 03 program.  It is based on the
 the Gaussian(R) 98 system (copyright 1998, Gaussian, Inc.),
 the Gaussian(R) 94 system (copyright 1995, Gaussian, Inc.),
 the Gaussian 92(TM) system (copyright 1992, Gaussian, Inc.),
 the Gaussian 90(TM) system (copyright 1990, Gaussian, Inc.),
 the Gaussian 88(TM) system (copyright 1988, Gaussian, Inc.),
 the Gaussian 86(TM) system (copyright 1986, Carnegie Mellon
 University), and the Gaussian 82(TM) system (copyright 1983,
 Carnegie Mellon University). Gaussian is a federally registered
 trademark of Gaussian, Inc.
  
 This software contains proprietary and confidential information,
 including trade secrets, belonging to Gaussian, Inc.
  
 This software is provided under written license and may be
 used, copied, transmitted, or stored only in accord with that
 written license.
  
 The following legend is applicable only to US Government
 contracts under FAR:
  
                    RESTRICTED RIGHTS LEGEND
  
 Use, reproduction and disclosure by the US Government is
 subject to restrictions as set forth in subparagraphs (a)
 and (c) of the Commercial Computer Software - Restricted
 Rights clause in FAR 52.227-19.
  
 Gaussian, Inc.
 340 Quinnipiac St., Bldg. 40, Wallingford CT 06492
  
  
 ---------------------------------------------------------------
 Warning -- This program may not be used in any manner that
 competes with the business of Gaussian, Inc. or will provide
 assistance to any competitor of Gaussian, Inc.  The licensee
 of this program is prohibited from giving any competitor of
 Gaussian, Inc. access to this program.  By using this program,
 the user acknowledges that Gaussian, Inc. is engaged in the
 business of creating and licensing software in the field of
 computational chemistry and represents and warrants to the
 licensee that it is not a competitor of Gaussian, Inc. and that
 it will not use this program in any manner prohibited above.
 ---------------------------------------------------------------
  

 Cite this work as:
 Gaussian 03, Revision E.01,
 M. J. Frisch, G. W. Trucks, H. B. Schlegel, G. E. Scuseria, 
 M. A. Robb, J. R. Cheeseman, J. A. Montgomery, Jr., T. Vreven, 
 K. N. Kudin, J. C. Burant, J. M. Millam, S. S. Iyengar, J. Tomasi, 
 V. Barone, B. Mennucci, M. Cossi, G. Scalmani, N. Rega, 
 G. A. Petersson, H. Nakatsuji, M. Hada, M. Ehara, K. Toyota, 
 R. Fukuda, J. Hasegawa, M. Ishida, T. Nakajima, Y. Honda, O. Kitao, 
 H. Nakai, M. Klene, X. Li, J. E. Knox, H. P. Hratchian, J. B. Cross, 
 V. Bakken, C. Adamo, J. Jaramillo, R. Gomperts, R. E. Stratmann, 
 O. Yazyev, A. J. Austin, R. Cammi, C. Pomelli, J. W. Ochterski, 
 P. Y. Ayala, K. Morokuma, G. A. Voth, P. Salvador, J. J. Dannenberg, 
 V. G. Zakrzewski, S. Dapprich, A. D. Daniels, M. C. Strain, 
 O. Farkas, D. K. Malick, A. D. Rabuck, K. Raghavachari, 
 J. B. Foresman, J. V. Ortiz, Q. Cui, A. G. Baboul, S. Clifford, 
 J. Cioslowski, B. B. Stefanov, G. Liu, A. Liashenko, P. Piskorz, 
 I. Komaromi, R. L. Martin, D. J. Fox, T. Keith, M. A. Al-Laham, 
 C. Y. Peng, A. Nanayakkara, M. Challacombe, P. M. W. Gill, 
 B. Johnson, W. Chen, M. W. Wong, C. Gonzalez, and J. A. Pople, 
 Gaussian, Inc., Wallingford CT, 2004.
 
 ******************************************
 Gaussian 03:  AM64L-G03RevE.01 11-Sep-2007
                16-Apr-2009 
 ******************************************
 %NProcShared=8
 Will use up to    8 processors via shared memory.
 ----------------------------------------------------------------------
 #p uB971/6-311+G(d,p) opt=(Tight, NewEstmFC, MaxCyc = 200) freq #GFInp
 ut Population=Regular #Integral(Grid=UltraFine) Guess=Mix NoSymmetry
 ----------------------------------------------------------------------
 1/6=200,7=10,10=7,14=-1,18=20,26=3,38=1/1,3;
 2/9=110,15=1,17=6,18=5,40=1/2;
 3/5=4,6=6,7=111,11=2,16=1,24=10,25=1,30=1,74=-20,75=5/1,2,3;
 4/7=2,9=2,13=1/1;
 5/5=2,38=5/2;
 6/28=1/1;
 7/29=1,30=1/1,2,3,16;
 1/6=200,10=7,14=-1,18=20/3(3);
 2/9=110,15=1/2;
 6/19=2,28=1/1;
 99//99;
 2/9=110,15=1/2;
 3/5=4,6=6,7=111,11=2,16=1,25=1,30=1,74=-20,75=5/1,2,3;
 4/5=5,7=2,9=2,16=3/1;
 5/5=2,38=5/2;
 7/30=1/1,2,3,16;
 1/6=200,14=-1,18=20/3(-5);
 2/9=110,15=1/2;
 6/19=2,28=1/1;
 99/9=1/99;
 Leave Link    1 at Thu Apr 16 13:57:50 2009, MaxMem=          0 cpu:       1.4
 (Enter /opt//g03/l101.exe)
 ---------------------------
 #NewComb uB971/6-311+G(d,p)
 ---------------------------
 Symbolic Z-matrix:
 Charge =  0 Multiplicity = 2
 Si                    0.        0.        0. 
 O                     0.        0.        1.69609 
 C                     1.82839   0.       -0.44314 
 C                    -0.8736   -1.54754  -0.61671 
 C                    -0.87362   1.54761  -0.6165 
 H                     1.9612   -0.00005  -1.52242 
 H                     2.33258   0.87767  -0.04941 
 H                     2.33261  -0.87762  -0.04934 
 H                    -0.88944  -1.58452  -1.70361 
 H                    -0.37643  -2.44532  -0.26058 
 H                    -1.90488  -1.58629  -0.27562 
 H                    -0.88953   1.58469  -1.70339 
 H                    -1.90489   1.58634  -0.27535 
 H                    -0.37641   2.44535  -0.26031 
 
                    Isotopes and Nuclear Properties:
 (Nuclear quadrupole moments (NQMom) in fm**2, nuclear magnetic moments (NMagM)
  in nuclear magnetons)

  Atom         1           2           3           4           5           6           7           8           9          10
 IAtWgt=          28          16          12          12          12           1           1           1           1           1
 AtmWgt=  27.9769284  15.9949146  12.0000000  12.0000000  12.0000000   1.0078250   1.0078250   1.0078250   1.0078250   1.0078250
 NucSpn=           0           0           0           0           0           1           1           1           1           1
 AtZEff=   0.0000000   0.0000000   0.0000000   0.0000000   0.0000000   0.0000000   0.0000000   0.0000000   0.0000000   0.0000000
 NQMom=    0.0000000   0.0000000   0.0000000   0.0000000   0.0000000   0.0000000   0.0000000   0.0000000   0.0000000   0.0000000
 NMagM=    0.0000000   0.0000000   0.0000000   0.0000000   0.0000000   2.7928460   2.7928460   2.7928460   2.7928460   2.7928460

  Atom        11          12          13          14
 IAtWgt=           1           1           1           1
 AtmWgt=   1.0078250   1.0078250   1.0078250   1.0078250
 NucSpn=           1           1           1           1
 AtZEff=   0.0000000   0.0000000   0.0000000   0.0000000
 NQMom=    0.0000000   0.0000000   0.0000000   0.0000000
 NMagM=    2.7928460   2.7928460   2.7928460   2.7928460
 Leave Link  101 at Thu Apr 16 13:57:50 2009, MaxMem=    6291456 cpu:       0.3
 (Enter /opt//g03/l103.exe)

 GradGradGradGradGradGradGradGradGradGradGradGradGradGradGradGradGradGrad
 Berny optimization.
 Initialization pass.
                           ----------------------------
                           !    Initial Parameters    !
                           ! (Angstroms and Degrees)  !
 --------------------------                            --------------------------
 ! Name  Definition              Value          Derivative Info.                !
 --------------------------------------------------------------------------------
 ! R1    R(1,2)                  1.6961         estimate D2E/DX2                !
 ! R2    R(1,3)                  1.8813         estimate D2E/DX2                !
 ! R3    R(1,4)                  1.8811         estimate D2E/DX2                !
 ! R4    R(1,5)                  1.8811         estimate D2E/DX2                !
 ! R5    R(3,6)                  1.0874         estimate D2E/DX2                !
 ! R6    R(3,7)                  1.0861         estimate D2E/DX2                !
 ! R7    R(3,8)                  1.0861         estimate D2E/DX2                !
 ! R8    R(4,9)                  1.0876         estimate D2E/DX2                !
 ! R9    R(4,10)                 1.0863         estimate D2E/DX2                !
 ! R10   R(4,11)                 1.0869         estimate D2E/DX2                !
 ! R11   R(5,12)                 1.0876         estimate D2E/DX2                !
 ! R12   R(5,13)                 1.0869         estimate D2E/DX2                !
 ! R13   R(5,14)                 1.0863         estimate D2E/DX2                !
 ! A1    A(2,1,3)              103.6237         estimate D2E/DX2                !
 ! A2    A(2,1,4)              109.1384         estimate D2E/DX2                !
 ! A3    A(2,1,5)              109.1316         estimate D2E/DX2                !
 ! A4    A(3,1,4)              111.9704         estimate D2E/DX2                !
 ! A5    A(3,1,5)              111.9728         estimate D2E/DX2                !
 ! A6    A(4,1,5)              110.715          estimate D2E/DX2                !
 ! A7    A(1,3,6)              110.6388         estimate D2E/DX2                !
 ! A8    A(1,3,7)              111.4559         estimate D2E/DX2                !
 ! A9    A(1,3,8)              111.4565         estimate D2E/DX2                !
 ! A10   A(6,3,7)              107.647          estimate D2E/DX2                !
 ! A11   A(6,3,8)              107.6462         estimate D2E/DX2                !
 ! A12   A(7,3,8)              107.821          estimate D2E/DX2                !
 ! A13   A(1,4,9)              111.2455         estimate D2E/DX2                !
 ! A14   A(1,4,10)             111.0937         estimate D2E/DX2                !
 ! A15   A(1,4,11)             111.5366         estimate D2E/DX2                !
 ! A16   A(9,4,10)             107.8292         estimate D2E/DX2                !
 ! A17   A(9,4,11)             107.3713         estimate D2E/DX2                !
 ! A18   A(10,4,11)            107.5724         estimate D2E/DX2                !
 ! A19   A(1,5,12)             111.2449         estimate D2E/DX2                !
 ! A20   A(1,5,13)             111.537          estimate D2E/DX2                !
 ! A21   A(1,5,14)             111.0933         estimate D2E/DX2                !
 ! A22   A(12,5,13)            107.3711         estimate D2E/DX2                !
 ! A23   A(12,5,14)            107.8296         estimate D2E/DX2                !
 ! A24   A(13,5,14)            107.5727         estimate D2E/DX2                !
 ! D1    D(2,1,3,6)            179.9974         estimate D2E/DX2                !
 ! D2    D(2,1,3,7)            -60.2607         estimate D2E/DX2                !
 ! D3    D(2,1,3,8)             60.256          estimate D2E/DX2                !
 ! D4    D(4,1,3,6)             62.5111         estimate D2E/DX2                !
 ! D5    D(4,1,3,7)           -177.747          estimate D2E/DX2                !
 ! D6    D(4,1,3,8)            -57.2303         estimate D2E/DX2                !
 ! D7    D(5,1,3,6)            -62.5233         estimate D2E/DX2                !
 ! D8    D(5,1,3,7)             57.2187         estimate D2E/DX2                !
 ! D9    D(5,1,3,8)            177.7354         estimate D2E/DX2                !
 ! D10   D(2,1,4,9)           -179.7524         estimate D2E/DX2                !
 ! D11   D(2,1,4,10)           -59.6152         estimate D2E/DX2                !
 ! D12   D(2,1,4,11)            60.3923         estimate D2E/DX2                !
 ! D13   D(3,1,4,9)            -65.6197         estimate D2E/DX2                !
 ! D14   D(3,1,4,10)            54.5175         estimate D2E/DX2                !
 ! D15   D(3,1,4,11)           174.525          estimate D2E/DX2                !
 ! D16   D(5,1,4,9)             60.1068         estimate D2E/DX2                !
 ! D17   D(5,1,4,10)          -179.7561         estimate D2E/DX2                !
 ! D18   D(5,1,4,11)           -59.7485         estimate D2E/DX2                !
 ! D19   D(2,1,5,12)           179.7526         estimate D2E/DX2                !
 ! D20   D(2,1,5,13)           -60.3924         estimate D2E/DX2                !
 ! D21   D(2,1,5,14)            59.6155         estimate D2E/DX2                !
 ! D22   D(3,1,5,12)            65.6226         estimate D2E/DX2                !
 ! D23   D(3,1,5,13)          -174.5224         estimate D2E/DX2                !
 ! D24   D(3,1,5,14)           -54.5145         estimate D2E/DX2                !
 ! D25   D(4,1,5,12)           -60.1025         estimate D2E/DX2                !
 ! D26   D(4,1,5,13)            59.7525         estimate D2E/DX2                !
 ! D27   D(4,1,5,14)           179.7604         estimate D2E/DX2                !
 --------------------------------------------------------------------------------
 Trust Radius=3.00D-01 FncErr=1.00D-07 GrdErr=1.00D-06
 Number of steps in this run= 100 maximum allowed number of steps= 100.
 GradGradGradGradGradGradGradGradGradGradGradGradGradGradGradGradGradGrad

 Leave Link  103 at Thu Apr 16 13:57:51 2009, MaxMem=    6291456 cpu:       0.3
 (Enter /opt//g03/l202.exe)
                          Input orientation:                          
 ---------------------------------------------------------------------
 Center     Atomic     Atomic              Coordinates (Angstroms)
 Number     Number      Type              X           Y           Z
 ---------------------------------------------------------------------
    1         14             0        0.000000    0.000000    0.000000
    2          8             0        0.000000    0.000000    1.696094
    3          6             0        1.828388    0.000000   -0.443135
    4          6             0       -0.873599   -1.547540   -0.616708
    5          6             0       -0.873621    1.547611   -0.616497
    6          1             0        1.961195   -0.000047   -1.522418
    7          1             0        2.332579    0.877665   -0.049407
    8          1             0        2.332607   -0.877622   -0.049341
    9          1             0       -0.889443   -1.584520   -1.703610
   10          1             0       -0.376426   -2.445320   -0.260583
   11          1             0       -1.904883   -1.586291   -0.275621
   12          1             0       -0.889527    1.584693   -1.703394
   13          1             0       -1.904886    1.586342   -0.275351
   14          1             0       -0.376412    2.445345   -0.260309
 ---------------------------------------------------------------------
                    Distance matrix (angstroms):
                    1          2          3          4          5
     1  Si   0.000000
     2  O    1.696094   0.000000
     3  C    1.881322   2.814126   0.000000
     4  C    1.881059   2.916695   3.118612   0.000000
     5  C    1.881059   2.916572   3.118655   3.095151   0.000000
     6  H    2.482749   3.768966   1.087423   3.354266   3.354418
     7  H    2.492722   3.042695   1.086060   4.059929   3.324175
     8  H    2.492731   3.042666   1.086062   3.324222   4.059965
     9  H    2.490803   3.854841   3.389116   1.087646   3.315465
    10  H    2.487808   3.154342   3.297593   1.086285   4.039477
    11  H    2.494166   3.167421   4.059765   1.086917   3.316781
    12  H    2.490795   3.854741   3.389184   3.315422   1.087646
    13  H    2.494171   3.167281   4.059799   3.316820   1.086917
    14  H    2.487802   3.154189   3.297617   4.039473   1.086284
                    6          7          8          9         10
     6  H    0.000000
     7  H    1.754442   0.000000
     8  H    1.754435   1.755287   0.000000
     9  H    3.266423   4.379517   3.690246   0.000000
    10  H    3.610548   4.292497   3.137062   1.756841   0.000000
    11  H    4.360875   4.906968   4.302294   1.752220   1.753379
    12  H    3.266614   3.690194   4.379616   3.169213   4.311146
    13  H    4.361008   4.302253   4.906990   3.622901   4.311694
    14  H    3.610716   3.136994   4.292482   4.311163   4.890665
                   11         12         13         14
    11  H    0.000000
    12  H    3.622792   0.000000
    13  H    3.172633   1.752217   0.000000
    14  H    4.311676   1.756845   1.753381   0.000000
 Symmetry turned off by external request.
 Stoichiometry    C3H9OSi(2)
 Framework group  C1[X(C3H9OSi)]
 Deg. of freedom    36
 Full point group                 C1
 Rotational constants (GHZ):      3.4579948      3.4050982      3.0683398
 Leave Link  202 at Thu Apr 16 13:57:51 2009, MaxMem=    6291456 cpu:       0.2
 (Enter /opt//g03/l301.exe)
 Standard basis: 6-311+G(d,p) (5D, 7F)
 AO basis set in the form of general basis input:
      1 0
 S   6 1.00       0.000000000000
      0.6937923000D+05  0.7570004081D-03
      0.1035494000D+05  0.5932003198D-02
      0.2333879600D+04  0.3108801676D-01
      0.6571429500D+03  0.1249670674D+00
      0.2143011300D+03  0.3868972086D+00
      0.7762916800D+02  0.5548882991D+00
 S   3 1.00       0.000000000000
      0.7762916800D+02  0.1778809451D+00
      0.3063080700D+02  0.6277648062D+00
      0.1280129500D+02  0.2476229236D+00
 S   1 1.00       0.000000000000
      0.3926866000D+01  0.1000000000D+01
 S   1 1.00       0.000000000000
      0.1452343000D+01  0.1000000000D+01
 S   1 1.00       0.000000000000
      0.2562340000D+00  0.1000000000D+01
 S   1 1.00       0.000000000000
      0.9427900000D-01  0.1000000000D+01
 P   4 1.00       0.000000000000
      0.3354831900D+03  0.8865998148D-02
      0.7890036600D+02  0.6829898573D-01
      0.2498815000D+02  0.2909579392D+00
      0.9219711000D+01  0.7321168470D+00
 P   2 1.00       0.000000000000
      0.3621140000D+01  0.6198794404D+00
      0.1451310000D+01  0.4391483120D+00
 P   1 1.00       0.000000000000
      0.5049770000D+00  0.1000000000D+01
 P   1 1.00       0.000000000000
      0.1863170000D+00  0.1000000000D+01
 P   1 1.00       0.000000000000
      0.6543200000D-01  0.1000000000D+01
 SP   1 1.00       0.000000000000
      0.3310000000D-01  0.1000000000D+01  0.1000000000D+01
 D   1 1.00       0.000000000000
      0.4500000000D+00  0.1000000000D+01
 ****
      2 0
 S   6 1.00       0.000000000000
      0.8588500000D+04  0.1895150083D-02
      0.1297230000D+04  0.1438590063D-01
      0.2992960000D+03  0.7073200310D-01
      0.8737710000D+02  0.2400010105D+00
      0.2567890000D+02  0.5947970261D+00
      0.3740040000D+01  0.2808020123D+00
 SP   3 1.00       0.000000000000
      0.4211750000D+02  0.1138890124D+00  0.3651139738D-01
      0.9628370000D+01  0.9208111006D+00  0.2371529830D+00
      0.2853320000D+01 -0.3274470358D-02  0.8197019412D+00
 SP   1 1.00       0.000000000000
      0.9056610000D+00  0.1000000000D+01  0.1000000000D+01
 SP   1 1.00       0.000000000000
      0.2556110000D+00  0.1000000000D+01  0.1000000000D+01
 SP   1 1.00       0.000000000000
      0.8450000000D-01  0.1000000000D+01  0.1000000000D+01
 D   1 1.00       0.000000000000
      0.1292000000D+01  0.1000000000D+01
 ****
      3 0
 S   6 1.00       0.000000000000
      0.4563240000D+04  0.1966650249D-02
      0.6820240000D+03  0.1523060193D-01
      0.1549730000D+03  0.7612690966D-01
      0.4445530000D+02  0.2608010331D+00
      0.1302900000D+02  0.6164620782D+00
      0.1827730000D+01  0.2210060280D+00
 SP   3 1.00       0.000000000000
      0.2096420000D+02  0.1146600807D+00  0.4024869267D-01
      0.4803310000D+01  0.9199996477D+00  0.2375939567D+00
      0.1459330000D+01 -0.3030682134D-02  0.8158538515D+00
 SP   1 1.00       0.000000000000
      0.4834560000D+00  0.1000000000D+01  0.1000000000D+01
 SP   1 1.00       0.000000000000
      0.1455850000D+00  0.1000000000D+01  0.1000000000D+01
 SP   1 1.00       0.000000000000
      0.4380000000D-01  0.1000000000D+01  0.1000000000D+01
 D   1 1.00       0.000000000000
      0.6260000000D+00  0.1000000000D+01
 ****
      4 0
 S   6 1.00       0.000000000000
      0.4563240000D+04  0.1966650249D-02
      0.6820240000D+03  0.1523060193D-01
      0.1549730000D+03  0.7612690966D-01
      0.4445530000D+02  0.2608010331D+00
      0.1302900000D+02  0.6164620782D+00
      0.1827730000D+01  0.2210060280D+00
 SP   3 1.00       0.000000000000
      0.2096420000D+02  0.1146600807D+00  0.4024869267D-01
      0.4803310000D+01  0.9199996477D+00  0.2375939567D+00
      0.1459330000D+01 -0.3030682134D-02  0.8158538515D+00
 SP   1 1.00       0.000000000000
      0.4834560000D+00  0.1000000000D+01  0.1000000000D+01
 SP   1 1.00       0.000000000000
      0.1455850000D+00  0.1000000000D+01  0.1000000000D+01
 SP   1 1.00       0.000000000000
      0.4380000000D-01  0.1000000000D+01  0.1000000000D+01
 D   1 1.00       0.000000000000
      0.6260000000D+00  0.1000000000D+01
 ****
      5 0
 S   6 1.00       0.000000000000
      0.4563240000D+04  0.1966650249D-02
      0.6820240000D+03  0.1523060193D-01
      0.1549730000D+03  0.7612690966D-01
      0.4445530000D+02  0.2608010331D+00
      0.1302900000D+02  0.6164620782D+00
      0.1827730000D+01  0.2210060280D+00
 SP   3 1.00       0.000000000000
      0.2096420000D+02  0.1146600807D+00  0.4024869267D-01
      0.4803310000D+01  0.9199996477D+00  0.2375939567D+00
      0.1459330000D+01 -0.3030682134D-02  0.8158538515D+00
 SP   1 1.00       0.000000000000
      0.4834560000D+00  0.1000000000D+01  0.1000000000D+01
 SP   1 1.00       0.000000000000
      0.1455850000D+00  0.1000000000D+01  0.1000000000D+01
 SP   1 1.00       0.000000000000
      0.4380000000D-01  0.1000000000D+01  0.1000000000D+01
 D   1 1.00       0.000000000000
      0.6260000000D+00  0.1000000000D+01
 ****
      6 0
 S   3 1.00       0.000000000000
      0.3386500000D+02  0.2549381454D-01
      0.5094790000D+01  0.1903731086D+00
      0.1158790000D+01  0.8521614860D+00
 S   1 1.00       0.000000000000
      0.3258400000D+00  0.1000000000D+01
 S   1 1.00       0.000000000000
      0.1027410000D+00  0.1000000000D+01
 P   1 1.00       0.000000000000
      0.7500000000D+00  0.1000000000D+01
 ****
      7 0
 S   3 1.00       0.000000000000
      0.3386500000D+02  0.2549381454D-01
      0.5094790000D+01  0.1903731086D+00
      0.1158790000D+01  0.8521614860D+00
 S   1 1.00       0.000000000000
      0.3258400000D+00  0.1000000000D+01
 S   1 1.00       0.000000000000
      0.1027410000D+00  0.1000000000D+01
 P   1 1.00       0.000000000000
      0.7500000000D+00  0.1000000000D+01
 ****
      8 0
 S   3 1.00       0.000000000000
      0.3386500000D+02  0.2549381454D-01
      0.5094790000D+01  0.1903731086D+00
      0.1158790000D+01  0.8521614860D+00
 S   1 1.00       0.000000000000
      0.3258400000D+00  0.1000000000D+01
 S   1 1.00       0.000000000000
      0.1027410000D+00  0.1000000000D+01
 P   1 1.00       0.000000000000
      0.7500000000D+00  0.1000000000D+01
 ****
      9 0
 S   3 1.00       0.000000000000
      0.3386500000D+02  0.2549381454D-01
      0.5094790000D+01  0.1903731086D+00
      0.1158790000D+01  0.8521614860D+00
 S   1 1.00       0.000000000000
      0.3258400000D+00  0.1000000000D+01
 S   1 1.00       0.000000000000
      0.1027410000D+00  0.1000000000D+01
 P   1 1.00       0.000000000000
      0.7500000000D+00  0.1000000000D+01
 ****
     10 0
 S   3 1.00       0.000000000000
      0.3386500000D+02  0.2549381454D-01
      0.5094790000D+01  0.1903731086D+00
      0.1158790000D+01  0.8521614860D+00
 S   1 1.00       0.000000000000
      0.3258400000D+00  0.1000000000D+01
 S   1 1.00       0.000000000000
      0.1027410000D+00  0.1000000000D+01
 P   1 1.00       0.000000000000
      0.7500000000D+00  0.1000000000D+01
 ****
     11 0
 S   3 1.00       0.000000000000
      0.3386500000D+02  0.2549381454D-01
      0.5094790000D+01  0.1903731086D+00
      0.1158790000D+01  0.8521614860D+00
 S   1 1.00       0.000000000000
      0.3258400000D+00  0.1000000000D+01
 S   1 1.00       0.000000000000
      0.1027410000D+00  0.1000000000D+01
 P   1 1.00       0.000000000000
      0.7500000000D+00  0.1000000000D+01
 ****
     12 0
 S   3 1.00       0.000000000000
      0.3386500000D+02  0.2549381454D-01
      0.5094790000D+01  0.1903731086D+00
      0.1158790000D+01  0.8521614860D+00
 S   1 1.00       0.000000000000
      0.3258400000D+00  0.1000000000D+01
 S   1 1.00       0.000000000000
      0.1027410000D+00  0.1000000000D+01
 P   1 1.00       0.000000000000
      0.7500000000D+00  0.1000000000D+01
 ****
     13 0
 S   3 1.00       0.000000000000
      0.3386500000D+02  0.2549381454D-01
      0.5094790000D+01  0.1903731086D+00
      0.1158790000D+01  0.8521614860D+00
 S   1 1.00       0.000000000000
      0.3258400000D+00  0.1000000000D+01
 S   1 1.00       0.000000000000
      0.1027410000D+00  0.1000000000D+01
 P   1 1.00       0.000000000000
      0.7500000000D+00  0.1000000000D+01
 ****
     14 0
 S   3 1.00       0.000000000000
      0.3386500000D+02  0.2549381454D-01
      0.5094790000D+01  0.1903731086D+00
      0.1158790000D+01  0.8521614860D+00
 S   1 1.00       0.000000000000
      0.3258400000D+00  0.1000000000D+01
 S   1 1.00       0.000000000000
      0.1027410000D+00  0.1000000000D+01
 P   1 1.00       0.000000000000
      0.7500000000D+00  0.1000000000D+01
 ****

 Integral buffers will be    131072 words long.
 Raffenetti 2 integral format.
 Two-electron integral symmetry is turned off.
   172 basis functions,   266 primitive gaussians,   177 cartesian basis functions
    25 alpha electrons       24 beta electrons
       nuclear repulsion energy       237.6813010441 Hartrees.
 IExCor=1614 DFT=T Ex=B97-1+HF Corr=B97-1 ExCW=0 ScaHFX=  0.210000
 ScaDFX=  1.000000  1.000000  1.000000  1.000000
 IRadAn=      5 IRanWt=     -1 IRanGd=            0 ICorTp=0
 NAtoms=   14 NActive=   14 NUniq=   14 SFac= 7.50D-01 NAtFMM=   80 NAOKFM=F Big=F
 Leave Link  301 at Thu Apr 16 13:57:51 2009, MaxMem=    6291456 cpu:       0.2
 (Enter /opt//g03/l302.exe)
 NPDir=0 NMtPBC=     1 NCelOv=     1 NCel=       1 NClECP=     1 NCelD=      1
         NCelK=      1 NCelE2=     1 NClLst=     1 CellRange=     0.0.
 One-electron integrals computed using PRISM.
 PrsmSu:  requested number of processors reduced to:   6 ShMem   1 Linda.
 NBasis=   172 RedAO= T  NBF=   172
 NBsUse=   172 1.00D-06 NBFU=   172
 Precomputing XC quadrature grid using
 IXCGrd= 2 IRadAn=           5 IRanWt=          -1 IRanGd=           0.
 NRdTot=    1182 NPtTot=      317294 NUsed=      325625 NTot=      325657
 NSgBfM=   177   177   177   177.
 Leave Link  302 at Thu Apr 16 13:57:53 2009, MaxMem=    6291456 cpu:       5.8
 (Enter /opt//g03/l303.exe)
 DipDrv:  MaxL=1.
 Leave Link  303 at Thu Apr 16 13:57:53 2009, MaxMem=    6291456 cpu:       0.5
 (Enter /opt//g03/l401.exe)
 SCF N**3 symmetry information disabled.
 Harris functional with IExCor= 1614 diagonalized for initial guess.
 ExpMin= 3.31D-02 ExpMax= 6.94D+04 ExpMxC= 2.33D+03 IAcc=3 IRadAn=         5 AccDes= 0.00D+00
 HarFok:  IExCor=1614 AccDes= 0.00D+00 IRadAn=         5 IDoV=1
 ScaDFX=  1.000000  1.000000  1.000000  1.000000
 CalDSu:  requested number of processors reduced to:   4 ShMem   1 Linda.
 Harris En= -474.709554500349    
 <S**2> of initial guess= 1.0000
 Leave Link  401 at Thu Apr 16 13:57:57 2009, MaxMem=    6291456 cpu:      12.7
 (Enter /opt//g03/l502.exe)
 UHF open shell SCF:
 Requested convergence on RMS density matrix=1.00D-08 within 128 cycles.
 Requested convergence on MAX density matrix=1.00D-06.
 Requested convergence on             energy=1.00D-06.
 No special actions if energy rises.
 Using DIIS extrapolation, IDIIS=  1040.
 Two-electron integral symmetry not used.
       325624 words used for storage of precomputed grid.
 IEnd=    454801 IEndB=    454801 NGot=   6291456 MDV=   5884802
 LenX=   5884802
 Fock matrices will be formed incrementally for  20 cycles.

 Cycle   1  Pass 1  IDiag  1:
 Symmetry not used in FoFDir.
 MinBra= 0 MaxBra= 2 Meth= 1.
 IRaf=       0 NMat=   1 IRICut=       1 DoRegI=T DoRafI=F ISym2E= 0 JSym2E=0.
 PrsmSu:  requested number of processors reduced to:   6 ShMem   1 Linda.
 CalDSu:  requested number of processors reduced to:   5 ShMem   1 Linda.
 E= -483.989891255739    
 DIIS: error= 9.67D-02 at cycle   1 NSaved=   1.
 NSaved= 1 IEnMin= 1 EnMin= -483.989891255739     IErMin= 1 ErrMin= 9.67D-02
 ErrMax= 9.67D-02 EMaxC= 1.00D-01 BMatC= 4.30D+00 BMatP= 4.30D+00
 IDIUse=3 WtCom= 3.28D-02 WtEn= 9.67D-01
 Coeff-Com:  0.100D+01
 Coeff-En:   0.100D+01
 Coeff:      0.100D+01
 Gap=     0.033 Goal=   None    Shift=    0.000
 Gap=     0.113 Goal=   None    Shift=    0.000
 GapD=    0.033 DampG=0.250 DampE=0.500 DampFc=0.2500 IDamp=-1.
 Damping current iteration by 2.50D-01
 RMSDP=1.15D-01 MaxDP=1.94D+01              OVMax= 8.67D-01

 Cycle   2  Pass 1  IDiag  1:
 RMSU=  3.85D-03    CP:  7.55D-01
 PrsmSu:  requested number of processors reduced to:   6 ShMem   1 Linda.
 CalDSu:  requested number of processors reduced to:   5 ShMem   1 Linda.
 E= -484.131176692428     Delta-E=       -0.141285436690 Rises=F Damp=T
 DIIS: error= 6.68D-02 at cycle   2 NSaved=   2.
 NSaved= 2 IEnMin= 2 EnMin= -484.131176692428     IErMin= 2 ErrMin= 6.68D-02
 ErrMax= 6.68D-02 EMaxC= 1.00D-01 BMatC= 1.71D+00 BMatP= 4.30D+00
 IDIUse=3 WtCom= 3.32D-01 WtEn= 6.68D-01
 Coeff-Com: -0.878D+00 0.188D+01
 Coeff-En:   0.000D+00 0.100D+01
 Coeff:     -0.292D+00 0.129D+01
 Gap=     0.345 Goal=   None    Shift=    0.000
 Gap=    -0.002 Goal=   None    Shift=    0.000
 RMSDP=8.58D-02 MaxDP=1.45D+01 DE=-1.41D-01 OVMax= 7.91D-01

 Cycle   3  Pass 1  IDiag  1:
 RMSU=  5.53D-03    CP:  2.46D-02  3.00D+00
 PrsmSu:  requested number of processors reduced to:   6 ShMem   1 Linda.
 CalDSu:  requested number of processors reduced to:   5 ShMem   1 Linda.
 E= -484.385908260650     Delta-E=       -0.254731568222 Rises=F Damp=F
 DIIS: error= 2.07D-02 at cycle   3 NSaved=   3.
 NSaved= 3 IEnMin= 3 EnMin= -484.385908260650     IErMin= 3 ErrMin= 2.07D-02
 ErrMax= 2.07D-02 EMaxC= 1.00D-01 BMatC= 2.30D-01 BMatP= 1.71D+00
 IDIUse=3 WtCom= 7.93D-01 WtEn= 2.07D-01
 Coeff-Com: -0.290D+00 0.581D+00 0.709D+00
 Coeff-En:   0.000D+00 0.000D+00 0.100D+01
 Coeff:     -0.230D+00 0.461D+00 0.769D+00
 Gap=     0.305 Goal=   None    Shift=    0.000
 Gap=     0.093 Goal=   None    Shift=    0.000
 RMSDP=1.96D-03 MaxDP=8.21D-02 DE=-2.55D-01 OVMax= 6.04D-02

 Cycle   4  Pass 1  IDiag  1:
 RMSU=  1.72D-03    CP:  1.92D-02  3.00D+00  8.79D-01
 PrsmSu:  requested number of processors reduced to:   6 ShMem   1 Linda.
 CalDSu:  requested number of processors reduced to:   5 ShMem   1 Linda.
 E= -484.411111023831     Delta-E=       -0.025202763181 Rises=F Damp=F
 DIIS: error= 8.58D-03 at cycle   4 NSaved=   4.
 NSaved= 4 IEnMin= 4 EnMin= -484.411111023831     IErMin= 4 ErrMin= 8.58D-03
 ErrMax= 8.58D-03 EMaxC= 1.00D-01 BMatC= 5.35D-02 BMatP= 2.30D-01
 IDIUse=3 WtCom= 9.14D-01 WtEn= 8.58D-02
 Coeff-Com: -0.686D-01 0.123D+00 0.343D+00 0.603D+00
 Coeff-En:   0.000D+00 0.000D+00 0.198D+00 0.802D+00
 Coeff:     -0.627D-01 0.112D+00 0.330D+00 0.620D+00
 Gap=     0.285 Goal=   None    Shift=    0.000
 Gap=     0.108 Goal=   None    Shift=    0.000
 RMSDP=6.03D-04 MaxDP=2.88D-02 DE=-2.52D-02 OVMax= 4.10D-02

 Cycle   5  Pass 1  IDiag  1:
 RMSU=  5.30D-04    CP:  1.92D-02  3.00D+00  8.98D-01  8.45D-01
 PrsmSu:  requested number of processors reduced to:   6 ShMem   1 Linda.
 CalDSu:  requested number of processors reduced to:   5 ShMem   1 Linda.
 E= -484.420952271011     Delta-E=       -0.009841247180 Rises=F Damp=F
 DIIS: error= 2.38D-03 at cycle   5 NSaved=   5.
 NSaved= 5 IEnMin= 5 EnMin= -484.420952271011     IErMin= 5 ErrMin= 2.38D-03
 ErrMax= 2.38D-03 EMaxC= 1.00D-01 BMatC= 2.56D-03 BMatP= 5.35D-02
 IDIUse=3 WtCom= 9.76D-01 WtEn= 2.38D-02
 Coeff-Com: -0.158D-01 0.210D-01 0.609D-01 0.228D+00 0.706D+00
 Coeff-En:   0.000D+00 0.000D+00 0.000D+00 0.000D+00 0.100D+01
 Coeff:     -0.154D-01 0.205D-01 0.594D-01 0.223D+00 0.713D+00
 Gap=     0.290 Goal=   None    Shift=    0.000
 Gap=     0.109 Goal=   None    Shift=    0.000
 RMSDP=1.59D-04 MaxDP=5.11D-03 DE=-9.84D-03 OVMax= 1.11D-02

 Cycle   6  Pass 1  IDiag  1:
 RMSU=  9.59D-05    CP:  1.90D-02  3.00D+00  8.91D-01  9.15D-01  9.74D-01
 PrsmSu:  requested number of processors reduced to:   6 ShMem   1 Linda.
 CalDSu:  requested number of processors reduced to:   5 ShMem   1 Linda.
 E= -484.421595528575     Delta-E=       -0.000643257564 Rises=F Damp=F
 DIIS: error= 7.17D-04 at cycle   6 NSaved=   6.
 NSaved= 6 IEnMin= 6 EnMin= -484.421595528575     IErMin= 6 ErrMin= 7.17D-04
 ErrMax= 7.17D-04 EMaxC= 1.00D-01 BMatC= 2.12D-04 BMatP= 2.56D-03
 IDIUse=3 WtCom= 9.93D-01 WtEn= 7.17D-03
 Coeff-Com: -0.314D-02 0.232D-02-0.346D-01-0.410D-01 0.148D+00 0.929D+00
 Coeff-En:   0.000D+00 0.000D+00 0.000D+00 0.000D+00 0.000D+00 0.100D+01
 Coeff:     -0.312D-02 0.230D-02-0.343D-01-0.407D-01 0.146D+00 0.929D+00
 Gap=     0.290 Goal=   None    Shift=    0.000
 Gap=     0.110 Goal=   None    Shift=    0.000
 RMSDP=7.80D-05 MaxDP=2.52D-03 DE=-6.43D-04 OVMax= 1.22D-02

 Cycle   7  Pass 1  IDiag  1:
 RMSU=  6.53D-05    CP:  1.90D-02  3.00D+00  8.88D-01  9.29D-01  1.02D+00
                    CP:  1.10D+00
 PrsmSu:  requested number of processors reduced to:   6 ShMem   1 Linda.
 CalDSu:  requested number of processors reduced to:   5 ShMem   1 Linda.
 E= -484.421690963407     Delta-E=       -0.000095434832 Rises=F Damp=F
 DIIS: error= 2.80D-04 at cycle   7 NSaved=   7.
 NSaved= 7 IEnMin= 7 EnMin= -484.421690963407     IErMin= 7 ErrMin= 2.80D-04
 ErrMax= 2.80D-04 EMaxC= 1.00D-01 BMatC= 5.15D-05 BMatP= 2.12D-04
 IDIUse=3 WtCom= 9.97D-01 WtEn= 2.80D-03
 Coeff-Com: -0.297D-03-0.158D-03-0.223D-01-0.482D-01-0.329D-01 0.437D+00
 Coeff-Com:  0.667D+00
 Coeff-En:   0.000D+00 0.000D+00 0.000D+00 0.000D+00 0.000D+00 0.000D+00
 Coeff-En:   0.100D+01
 Coeff:     -0.296D-03-0.158D-03-0.223D-01-0.481D-01-0.328D-01 0.436D+00
 Coeff:      0.668D+00
 Gap=     0.291 Goal=   None    Shift=    0.000
 Gap=     0.111 Goal=   None    Shift=    0.000
 RMSDP=3.84D-05 MaxDP=1.63D-03 DE=-9.54D-05 OVMax= 7.38D-03

 Cycle   8  Pass 1  IDiag  1:
 RMSU=  2.85D-05    CP:  1.90D-02  3.00D+00  8.87D-01  9.29D-01  1.04D+00
                    CP:  1.33D+00  1.13D+00
 PrsmSu:  requested number of processors reduced to:   6 ShMem   1 Linda.
 CalDSu:  requested number of processors reduced to:   5 ShMem   1 Linda.
 E= -484.421728495754     Delta-E=       -0.000037532348 Rises=F Damp=F
 DIIS: error= 2.86D-04 at cycle   8 NSaved=   8.
 NSaved= 8 IEnMin= 8 EnMin= -484.421728495754     IErMin= 7 ErrMin= 2.80D-04
 ErrMax= 2.86D-04 EMaxC= 1.00D-01 BMatC= 9.14D-06 BMatP= 5.15D-05
 IDIUse=3 WtCom= 9.97D-01 WtEn= 2.80D-03
 Coeff-Com:  0.587D-03-0.767D-03-0.226D-02-0.748D-02-0.253D-01 0.235D-01
 Coeff-Com:  0.160D+00 0.851D+00
 Coeff-En:   0.000D+00 0.000D+00 0.000D+00 0.000D+00 0.000D+00 0.000D+00
 Coeff-En:   0.000D+00 0.100D+01
 Coeff:      0.585D-03-0.765D-03-0.225D-02-0.746D-02-0.252D-01 0.234D-01
 Coeff:      0.160D+00 0.852D+00
 Gap=     0.291 Goal=   None    Shift=    0.000
 Gap=     0.111 Goal=   None    Shift=    0.000
 RMSDP=3.44D-05 MaxDP=1.75D-03 DE=-3.75D-05 OVMax= 9.35D-03

 Cycle   9  Pass 1  IDiag  1:
 RMSU=  1.61D-05    CP:  1.90D-02  3.00D+00  8.87D-01  9.28D-01  1.05D+00
                    CP:  1.44D+00  1.45D+00  1.68D+00
 PrsmSu:  requested number of processors reduced to:   6 ShMem   1 Linda.
 CalDSu:  requested number of processors reduced to:   5 ShMem   1 Linda.
 E= -484.421756947475     Delta-E=       -0.000028451721 Rises=F Damp=F
 DIIS: error= 2.74D-04 at cycle   9 NSaved=   9.
 NSaved= 9 IEnMin= 9 EnMin= -484.421756947475     IErMin= 9 ErrMin= 2.74D-04
 ErrMax= 2.74D-04 EMaxC= 1.00D-01 BMatC= 8.40D-06 BMatP= 9.14D-06
 IDIUse=3 WtCom= 9.97D-01 WtEn= 2.74D-03
 Coeff-Com:  0.528D-03-0.618D-03 0.168D-02 0.240D-02-0.100D-01-0.403D-01
 Coeff-Com: -0.163D-01 0.498D+00 0.564D+00
 Coeff-En:   0.000D+00 0.000D+00 0.000D+00 0.000D+00 0.000D+00 0.000D+00
 Coeff-En:   0.000D+00 0.000D+00 0.100D+01
 Coeff:      0.526D-03-0.616D-03 0.167D-02 0.239D-02-0.100D-01-0.402D-01
 Coeff:     -0.162D-01 0.497D+00 0.566D+00
 Gap=     0.291 Goal=   None    Shift=    0.000
 Gap=     0.111 Goal=   None    Shift=    0.000
 RMSDP=2.50D-05 MaxDP=1.29D-03 DE=-2.85D-05 OVMax= 6.76D-03

 Cycle  10  Pass 1  IDiag  1:
 RMSU=  5.30D-06    CP:  1.90D-02  3.00D+00  8.87D-01  9.28D-01  1.05D+00
                    CP:  1.51D+00  1.66D+00  2.22D+00  1.70D+00
 PrsmSu:  requested number of processors reduced to:   6 ShMem   1 Linda.
 CalDSu:  requested number of processors reduced to:   5 ShMem   1 Linda.
 E= -484.421778033150     Delta-E=       -0.000021085674 Rises=F Damp=F
 DIIS: error= 2.77D-04 at cycle  10 NSaved=  10.
 NSaved=10 IEnMin=10 EnMin= -484.421778033150     IErMin= 9 ErrMin= 2.74D-04
 ErrMax= 2.77D-04 EMaxC= 1.00D-01 BMatC= 7.45D-06 BMatP= 8.40D-06
 IDIUse=3 WtCom= 9.97D-01 WtEn= 2.74D-03
 Coeff-Com:  0.326D-03-0.380D-03 0.821D-03 0.118D-02-0.532D-02-0.142D-01
 Coeff-Com: -0.267D-01 0.246D+00 0.103D+00 0.695D+00
 Coeff-En:   0.000D+00 0.000D+00 0.000D+00 0.000D+00 0.000D+00 0.000D+00
 Coeff-En:   0.000D+00 0.000D+00 0.000D+00 0.100D+01
 Coeff:      0.325D-03-0.379D-03 0.818D-03 0.118D-02-0.531D-02-0.141D-01
 Coeff:     -0.267D-01 0.245D+00 0.103D+00 0.696D+00
 Gap=     0.291 Goal=   None    Shift=    0.000
 Gap=     0.111 Goal=   None    Shift=    0.000
 RMSDP=2.35D-05 MaxDP=1.20D-03 DE=-2.11D-05 OVMax= 6.44D-03

 Cycle  11  Pass 1  IDiag  1:
 RMSU=  1.30D-06    CP:  1.90D-02  3.00D+00  8.87D-01  9.28D-01  1.05D+00
                    CP:  1.57D+00  1.85D+00  2.72D+00  2.42D+00  1.68D+00
 PrsmSu:  requested number of processors reduced to:   6 ShMem   1 Linda.
 CalDSu:  requested number of processors reduced to:   5 ShMem   1 Linda.
 E= -484.421797743119     Delta-E=       -0.000019709969 Rises=F Damp=F
 DIIS: error= 2.77D-04 at cycle  11 NSaved=  11.
 NSaved=11 IEnMin=11 EnMin= -484.421797743119     IErMin= 9 ErrMin= 2.74D-04
 ErrMax= 2.77D-04 EMaxC= 1.00D-01 BMatC= 7.49D-06 BMatP= 7.45D-06
 IDIUse=3 WtCom= 9.97D-01 WtEn= 2.74D-03
 Coeff-Com:  0.336D-03-0.388D-03 0.100D-02 0.148D-02-0.492D-02-0.171D-01
 Coeff-Com: -0.319D-01 0.234D+00 0.144D+00 0.142D+01-0.747D+00
 Coeff-En:   0.000D+00 0.000D+00 0.000D+00 0.000D+00 0.000D+00 0.000D+00
 Coeff-En:   0.000D+00 0.000D+00 0.000D+00 0.000D+00 0.100D+01
 Coeff:      0.335D-03-0.387D-03 0.998D-03 0.147D-02-0.490D-02-0.171D-01
 Coeff:     -0.318D-01 0.234D+00 0.144D+00 0.142D+01-0.742D+00
 Gap=     0.291 Goal=   None    Shift=    0.000
 Gap=     0.111 Goal=   None    Shift=    0.000
 RMSDP=1.71D-05 MaxDP=8.74D-04 DE=-1.97D-05 OVMax= 4.68D-03

 Cycle  12  Pass 1  IDiag  1:
 RMSU=  2.30D-07    CP:  1.90D-02  3.00D+00  8.87D-01  9.28D-01  1.05D+00
                    CP:  1.53D+00  1.71D+00  2.35D+00  1.89D+00  1.16D+00
                    CP:  2.58D-01
 PrsmSu:  requested number of processors reduced to:   6 ShMem   1 Linda.
 CalDSu:  requested number of processors reduced to:   5 ShMem   1 Linda.
 E= -484.421783391315     Delta-E=        0.000014351803 Rises=F Damp=F
 DIIS: error= 2.77D-04 at cycle  12 NSaved=  12.
 NSaved=12 IEnMin=11 EnMin= -484.421797743119     IErMin= 9 ErrMin= 2.74D-04
 ErrMax= 2.77D-04 EMaxC= 1.00D-01 BMatC= 7.49D-06 BMatP= 7.45D-06
 IDIUse=3 WtCom= 9.97D-01 WtEn= 2.74D-03
 Rare condition: small coef for last iteration:  0.000D+00
 Coeff-Com:  0.423D-03-0.496D-03 0.114D-02 0.152D-02-0.674D-02-0.205D-01
 Coeff-Com: -0.218D-01 0.317D+00 0.264D+00 0.677D+00 0.784D+01-0.805D+01
 Coeff-En:   0.000D+00 0.000D+00 0.000D+00 0.000D+00 0.000D+00 0.000D+00
 Coeff-En:   0.000D+00 0.000D+00 0.000D+00 0.000D+00 0.000D+00 0.100D+01
 Coeff:      0.423D-03-0.496D-03 0.114D-02 0.152D-02-0.674D-02-0.205D-01
 Coeff:     -0.218D-01 0.317D+00 0.264D+00 0.677D+00 0.784D+01-0.805D+01
 Gap=     0.291 Goal=   None    Shift=    0.000
 Gap=     0.111 Goal=   None    Shift=    0.000
 RMSDP=1.42D-04 MaxDP=7.25D-03 DE= 1.44D-05 OVMax= 3.88D-02

 Cycle  13  Pass 1  IDiag  1:
 RMSU=  8.81D-05    CP:  1.90D-02  3.00D+00  8.87D-01  9.27D-01  1.07D+00
                    CP:  1.91D+00  2.84D+00  3.00D+00  3.00D+00  3.00D+00
                    CP:  3.00D+00 -3.00D+00
 PrsmSu:  requested number of processors reduced to:   6 ShMem   1 Linda.
 CalDSu:  requested number of processors reduced to:   5 ShMem   1 Linda.
 E= -484.421902294996     Delta-E=       -0.000118903680 Rises=F Damp=F
 DIIS: error= 2.76D-04 at cycle  13 NSaved=  13.
 NSaved=13 IEnMin=13 EnMin= -484.421902294996     IErMin= 9 ErrMin= 2.74D-04
 ErrMax= 2.76D-04 EMaxC= 1.00D-01 BMatC= 7.46D-06 BMatP= 7.45D-06
 IDIUse=3 WtCom= 9.97D-01 WtEn= 2.74D-03
 Coeff-Com:  0.385D-03-0.405D-03 0.221D-02 0.368D-02-0.226D-02-0.324D-01
 Coeff-Com: -0.491D-01 0.249D+00 0.325D+00 0.275D+01 0.670D+01-0.100D+02
 Coeff-Com:  0.105D+01
 Coeff-En:   0.000D+00 0.000D+00 0.000D+00 0.000D+00 0.000D+00 0.000D+00
 Coeff-En:   0.000D+00 0.000D+00 0.000D+00 0.000D+00 0.000D+00 0.000D+00
 Coeff-En:   0.100D+01
 Coeff:      0.384D-03-0.404D-03 0.221D-02 0.367D-02-0.226D-02-0.323D-01
 Coeff:     -0.490D-01 0.248D+00 0.324D+00 0.274D+01 0.668D+01-0.997D+01
 Coeff:      0.105D+01
 Gap=     0.291 Goal=   None    Shift=    0.000
 Gap=     0.112 Goal=   None    Shift=    0.000
 RMSDP=1.21D-04 MaxDP=6.17D-03 DE=-1.19D-04 OVMax= 3.29D-02

 Cycle  14  Pass 1  IDiag  1:
 RMSU=  5.15D-05    CP:  1.90D-02  3.00D+00  8.86D-01  9.26D-01  1.08D+00
                    CP:  2.24D+00  3.00D+00  3.00D+00  3.00D+00  3.00D+00
                    CP:  3.00D+00 -3.00D+00  2.11D+00
 PrsmSu:  requested number of processors reduced to:   6 ShMem   1 Linda.
 CalDSu:  requested number of processors reduced to:   5 ShMem   1 Linda.
 E= -484.422002780708     Delta-E=       -0.000100485712 Rises=F Damp=F
 DIIS: error= 2.74D-04 at cycle  14 NSaved=  14.
 NSaved=14 IEnMin=14 EnMin= -484.422002780708     IErMin=14 ErrMin= 2.74D-04
 ErrMax= 2.74D-04 EMaxC= 1.00D-01 BMatC= 7.45D-06 BMatP= 7.45D-06
 IDIUse=3 WtCom= 9.97D-01 WtEn= 2.74D-03
 Coeff-Com:  0.267D-03-0.257D-03 0.262D-02 0.536D-02 0.310D-02-0.364D-01
 Coeff-Com: -0.774D-01 0.122D+00 0.937D-01 0.309D+01-0.578D+01 0.480D+01
 Coeff-Com: -0.315D+01 0.193D+01
 Coeff-En:   0.000D+00 0.000D+00 0.000D+00 0.000D+00 0.000D+00 0.000D+00
 Coeff-En:   0.000D+00 0.000D+00 0.000D+00 0.000D+00 0.000D+00 0.000D+00
 Coeff-En:   0.000D+00 0.100D+01
 Coeff:      0.266D-03-0.256D-03 0.261D-02 0.534D-02 0.309D-02-0.363D-01
 Coeff:     -0.771D-01 0.121D+00 0.935D-01 0.308D+01-0.576D+01 0.479D+01
 Coeff:     -0.315D+01 0.193D+01
 Gap=     0.291 Goal=   None    Shift=    0.000
 Gap=     0.108 Goal=   None    Shift=    0.000
 RMSDP=2.88D-04 MaxDP=1.48D-02 DE=-1.00D-04 OVMax= 7.89D-02

 Cycle  15  Pass 1  IDiag  1:
 RMSU=  4.64D-06    CP:  1.90D-02  3.00D+00  8.87D-01  9.28D-01  1.04D+00
                    CP:  1.45D+00  1.51D+00  1.81D+00  1.08D+00  4.29D-01
                    CP: -8.02D-01  2.03D-01 -6.11D-04 -7.99D-04
 PrsmSu:  requested number of processors reduced to:   6 ShMem   1 Linda.
 CalDSu:  requested number of processors reduced to:   5 ShMem   1 Linda.
 E= -484.421761628143     Delta-E=        0.000241152565 Rises=F Damp=F
 DIIS: error= 2.77D-04 at cycle  15 NSaved=  15.
 NSaved=15 IEnMin=14 EnMin= -484.422002780708     IErMin=14 ErrMin= 2.74D-04
 ErrMax= 2.77D-04 EMaxC= 1.00D-01 BMatC= 8.12D-06 BMatP= 7.45D-06
 IDIUse=3 WtCom= 9.97D-01 WtEn= 2.74D-03
 Large coefficients: NSaved= 15 BigCof=   20.11 CofMax=   10.00 Det=-1.24D-10
 Inversion failed.  Reducing to 14 matrices.
 Large coefficients: NSaved= 14 BigCof=   14.32 CofMax=   10.00 Det=-1.40D-10
 Inversion failed.  Reducing to 13 matrices.
 Large coefficients: NSaved= 13 BigCof=   13.07 CofMax=   10.00 Det=-1.42D-10
 Inversion failed.  Reducing to 12 matrices.
 Large coefficients: NSaved= 12 BigCof=   13.21 CofMax=   10.00 Det=-1.45D-10
 Inversion failed.  Reducing to 11 matrices.
 Large coefficients: NSaved= 11 BigCof=   14.15 CofMax=   10.00 Det=-1.48D-10
 Inversion failed.  Reducing to 10 matrices.
 Large coefficients: NSaved= 10 BigCof=   14.70 CofMax=   10.00 Det=-1.56D-10
 Inversion failed.  Reducing to  9 matrices.
 Rare condition: small coef for last iteration:  0.000D+00
 Coeff-Com: -0.743D-01-0.308D+00-0.985D-01 0.619D+01-0.738D+01-0.625D+01
 Coeff-Com: -0.646D+01 0.990D+01 0.549D+01
 Coeff-En:   0.000D+00 0.000D+00 0.000D+00 0.000D+00 0.000D+00 0.000D+00
 Coeff-En:   0.000D+00 0.000D+00 0.100D+01
 Coeff:     -0.743D-01-0.308D+00-0.985D-01 0.619D+01-0.738D+01-0.625D+01
 Coeff:     -0.646D+01 0.990D+01 0.549D+01
 Gap=     0.294 Goal=   None    Shift=    0.000
 Gap=     0.100 Goal=   None    Shift=    0.000
 RMSDP=1.27D-03 MaxDP=6.39D-02 DE= 2.41D-04 OVMax= 3.24D-01

 Cycle  16  Pass 1  IDiag  1:
 RMSU=  8.58D-04    CP:  1.90D-02  3.00D+00  8.59D-01  9.09D-01  1.13D+00
                    CP:  3.00D+00  3.00D+00  3.00D+00  3.00D+00  3.00D+00
                    CP:  3.00D+00 -3.00D+00  3.00D+00  3.00D+00 -3.00D+00
 PrsmSu:  requested number of processors reduced to:   6 ShMem   1 Linda.
 CalDSu:  requested number of processors reduced to:   5 ShMem   1 Linda.
 E= -484.422619353583     Delta-E=       -0.000857725440 Rises=F Damp=F
 DIIS: error= 1.68D-03 at cycle  16 NSaved=  10.
 NSaved=10 IEnMin=10 EnMin= -484.422619353583     IErMin= 8 ErrMin= 2.74D-04
 ErrMax= 1.68D-03 EMaxC= 1.00D-01 BMatC= 3.41D-04 BMatP= 7.45D-06
 IDIUse=3 WtCom= 9.97D-01 WtEn= 2.74D-03
 Coeff-Com: -0.786D-02-0.192D+00-0.112D+00-0.602D+00 0.700D+01-0.753D+01
 Coeff-Com: -0.654D+01 0.492D+01 0.395D+01 0.124D+00
 Coeff-En:   0.000D+00 0.000D+00 0.000D+00 0.000D+00 0.000D+00 0.000D+00
 Coeff-En:   0.000D+00 0.000D+00 0.000D+00 0.100D+01
 Coeff:     -0.783D-02-0.192D+00-0.112D+00-0.600D+00 0.698D+01-0.751D+01
 Coeff:     -0.653D+01 0.490D+01 0.394D+01 0.127D+00
 Gap=     0.293 Goal=   None    Shift=    0.000
 Gap=     0.104 Goal=   None    Shift=    0.000
 RMSDP=6.74D-04 MaxDP=3.24D-02 DE=-8.58D-04 OVMax= 1.82D-01

 Cycle  17  Pass 1  IDiag  1:
 RMSU=  5.92D-05    CP:  1.90D-02  3.00D+00  8.81D-01  9.21D-01  1.12D+00
                    CP:  3.00D+00  3.00D+00  3.00D+00  3.00D+00  3.00D+00
                    CP:  3.00D+00 -3.00D+00  3.00D+00  3.00D+00  3.00D+00
                    CP:  2.33D-01
 PrsmSu:  requested number of processors reduced to:   6 ShMem   1 Linda.
 CalDSu:  requested number of processors reduced to:   5 ShMem   1 Linda.
 E= -484.422275950681     Delta-E=        0.000343402902 Rises=F Damp=F
 DIIS: error= 2.63D-04 at cycle  17 NSaved=  11.
 NSaved=11 IEnMin=10 EnMin= -484.422619353583     IErMin=11 ErrMin= 2.63D-04
 ErrMax= 2.63D-04 EMaxC= 1.00D-01 BMatC= 8.63D-06 BMatP= 7.45D-06
 IDIUse=3 WtCom= 9.97D-01 WtEn= 2.74D-03
 Rare condition: small coef for last iteration:  0.000D+00
 Coeff-Com: -0.622D-01-0.226D+00 0.171D+00 0.613D+01-0.102D+01-0.815D+01
 Coeff-Com: -0.422D+01 0.393D+01 0.296D+01 0.143D+00 0.136D+01
 Coeff-En:   0.000D+00 0.000D+00 0.000D+00 0.000D+00 0.000D+00 0.000D+00
 Coeff-En:   0.000D+00 0.000D+00 0.000D+00 0.000D+00 0.100D+01
 Coeff:     -0.622D-01-0.226D+00 0.171D+00 0.613D+01-0.102D+01-0.815D+01
 Coeff:     -0.422D+01 0.393D+01 0.296D+01 0.143D+00 0.136D+01
 Gap=     0.291 Goal=   None    Shift=    0.000
 Gap=     0.118 Goal=   None    Shift=    0.000
 RMSDP=6.55D-04 MaxDP=3.09D-02 DE= 3.43D-04 OVMax= 1.72D-01

 Cycle  18  Pass 1  IDiag  1:
 RMSU=  3.59D-05    CP:  1.90D-02  3.00D+00  8.60D-01  9.08D-01  1.14D+00
                    CP:  3.00D+00  3.00D+00  3.00D+00  3.00D+00  3.00D+00
                    CP:  3.00D+00 -3.00D+00  3.00D+00  3.00D+00 -2.51D+00
                    CP:  9.80D-01  2.38D-01
 PrsmSu:  requested number of processors reduced to:   6 ShMem   1 Linda.
 CalDSu:  requested number of processors reduced to:   5 ShMem   1 Linda.
 E= -484.422699219272     Delta-E=       -0.000423268591 Rises=F Damp=F
 DIIS: error= 1.04D-03 at cycle  18 NSaved=  12.
 NSaved=12 IEnMin=12 EnMin= -484.422699219272     IErMin=11 ErrMin= 2.63D-04
 ErrMax= 1.04D-03 EMaxC= 1.00D-01 BMatC= 1.22D-04 BMatP= 7.45D-06
 IDIUse=3 WtCom= 9.97D-01 WtEn= 2.74D-03
 Large coefficients: NSaved= 12 BigCof=   20.76 CofMax=   10.00 Det=-1.53D-10
 Inversion failed.  Reducing to 11 matrices.
 Coeff-Com:  0.178D+00 0.137D+00 0.295D+01-0.676D+01 0.507D+01 0.492D+00
 Coeff-Com: -0.318D+01-0.702D+00-0.562D+00 0.214D+01 0.124D+01
 Coeff-En:   0.000D+00 0.000D+00 0.000D+00 0.000D+00 0.000D+00 0.000D+00
 Coeff-En:   0.000D+00 0.000D+00 0.000D+00 0.000D+00 0.100D+01
 Coeff:      0.178D+00 0.136D+00 0.294D+01-0.674D+01 0.506D+01 0.491D+00
 Coeff:     -0.317D+01-0.700D+00-0.560D+00 0.214D+01 0.124D+01
 Gap=     0.292 Goal=   None    Shift=    0.000
 Gap=     0.112 Goal=   None    Shift=    0.000
 RMSDP=7.31D-05 MaxDP=2.03D-03 DE=-4.23D-04 OVMax= 9.18D-03

 Cycle  19  Pass 1  IDiag  1:
 RMSU=  1.78D-05    CP:  1.90D-02  3.00D+00  8.60D-01  9.03D-01  1.15D+00
                    CP:  3.00D+00  3.00D+00  3.00D+00  3.00D+00  3.00D+00
                    CP:  3.00D+00 -3.00D+00  3.00D+00  3.00D+00  3.00D+00
                    CP:  1.01D+00  4.52D-01  2.33D+00
 PrsmSu:  requested number of processors reduced to:   6 ShMem   1 Linda.
 CalDSu:  requested number of processors reduced to:   5 ShMem   1 Linda.
 E= -484.422765048617     Delta-E=       -0.000065829345 Rises=F Damp=F
 DIIS: error= 2.11D-04 at cycle  19 NSaved=  12.
 NSaved=12 IEnMin=12 EnMin= -484.422765048617     IErMin=12 ErrMin= 2.11D-04
 ErrMax= 2.11D-04 EMaxC= 1.00D-01 BMatC= 4.30D-06 BMatP= 7.45D-06
 IDIUse=3 WtCom= 9.98D-01 WtEn= 2.11D-03
 Coeff-Com: -0.140D-01-0.338D+00-0.263D+00-0.347D+01 0.798D+01 0.115D+01
 Coeff-Com: -0.549D+01-0.155D+01-0.571D+00 0.518D+00 0.112D+01 0.194D+01
 Coeff-En:   0.000D+00 0.000D+00 0.000D+00 0.000D+00 0.000D+00 0.000D+00
 Coeff-En:   0.000D+00 0.000D+00 0.000D+00 0.000D+00 0.000D+00 0.100D+01
 Coeff:     -0.140D-01-0.338D+00-0.263D+00-0.347D+01 0.796D+01 0.114D+01
 Coeff:     -0.548D+01-0.155D+01-0.570D+00 0.517D+00 0.112D+01 0.194D+01
 Gap=     0.292 Goal=   None    Shift=    0.000
 Gap=     0.117 Goal=   None    Shift=    0.000
 RMSDP=8.58D-04 MaxDP=3.53D-02 DE=-6.58D-05 OVMax= 2.21D-01

 Cycle  20  Pass 1  IDiag  1:
 Restarting incremental Fock formation.
 PrsmSu:  requested number of processors reduced to:   6 ShMem   1 Linda.
 CalDSu:  requested number of processors reduced to:   5 ShMem   1 Linda.
 E= -484.423065590766     Delta-E=       -0.000300542149 Rises=F Damp=F
 DIIS: error= 1.44D-03 at cycle  20 NSaved=  13.
 NSaved=13 IEnMin=13 EnMin= -484.423065590766     IErMin=12 ErrMin= 2.11D-04
 ErrMax= 1.44D-03 EMaxC= 1.00D-01 BMatC= 2.24D-04 BMatP= 4.30D-06
 IDIUse=3 WtCom= 9.98D-01 WtEn= 2.11D-03
 Coeff-Com:  0.802D-01-0.139D+00 0.148D+01 0.141D+01-0.617D+01 0.962D+01
 Coeff-Com: -0.493D+01-0.313D+01-0.588D+00 0.883D+00 0.585D+00 0.160D+01
 Coeff-Com:  0.295D+00
 Coeff-En:   0.000D+00 0.000D+00 0.000D+00 0.000D+00 0.000D+00 0.000D+00
 Coeff-En:   0.000D+00 0.000D+00 0.000D+00 0.000D+00 0.000D+00 0.000D+00
 Coeff-En:   0.100D+01
 Coeff:      0.800D-01-0.138D+00 0.148D+01 0.141D+01-0.616D+01 0.960D+01
 Coeff:     -0.492D+01-0.313D+01-0.587D+00 0.881D+00 0.583D+00 0.160D+01
 Coeff:      0.296D+00
 Gap=     0.279 Goal=   None    Shift=    0.000
 Gap=     0.192 Goal=   None    Shift=    0.000
 RMSDP=3.38D-04 MaxDP=1.12D-02 DE=-3.01D-04 OVMax= 4.81D-02

 Cycle  21  Pass 1  IDiag  1:
 RMSU=  3.38D-04    CP:  1.00D+00
 PrsmSu:  requested number of processors reduced to:   6 ShMem   1 Linda.
 CalDSu:  requested number of processors reduced to:   5 ShMem   1 Linda.
 E= -484.421573138539     Delta-E=        0.001492452227 Rises=F Damp=F
 DIIS: error= 6.77D-03 at cycle  21 NSaved=  14.
 NSaved=14 IEnMin=13 EnMin= -484.423065590766     IErMin=12 ErrMin= 2.11D-04
 ErrMax= 6.77D-03 EMaxC= 1.00D-01 BMatC= 4.39D-03 BMatP= 4.30D-06
 IDIUse=3 WtCom= 9.98D-01 WtEn= 2.11D-03
 Rare condition: small coef for last iteration:  0.000D+00
 Coeff-Com:  0.103D-01 0.134D+00 0.179D+01 0.289D+01-0.770D+01 0.592D+01
 Coeff-Com: -0.225D+01-0.152D+01-0.517D+00 0.135D+00 0.275D+00 0.868D+00
 Coeff-Com:  0.114D+01-0.177D+00
 Coeff-En:   0.000D+00 0.000D+00 0.000D+00 0.000D+00 0.000D+00 0.000D+00
 Coeff-En:   0.000D+00 0.000D+00 0.000D+00 0.000D+00 0.000D+00 0.000D+00
 Coeff-En:   0.000D+00 0.100D+01
 Coeff:      0.103D-01 0.134D+00 0.179D+01 0.289D+01-0.770D+01 0.592D+01
 Coeff:     -0.225D+01-0.152D+01-0.517D+00 0.135D+00 0.275D+00 0.868D+00
 Coeff:      0.114D+01-0.177D+00
 Gap=     0.282 Goal=   None    Shift=    0.000
 Gap=     0.169 Goal=   None    Shift=    0.000
 RMSDP=1.57D-04 MaxDP=7.05D-03 DE= 1.49D-03 OVMax= 2.66D-02

 Cycle  22  Pass 1  IDiag  1:
 RMSU=  1.57D-04    CP:  1.00D+00  9.92D-01
 PrsmSu:  requested number of processors reduced to:   6 ShMem   1 Linda.
 CalDSu:  requested number of processors reduced to:   5 ShMem   1 Linda.
 E= -484.422331138298     Delta-E=       -0.000757999759 Rises=F Damp=F
 DIIS: error= 4.97D-03 at cycle  22 NSaved=  15.
 NSaved=15 IEnMin=13 EnMin= -484.423065590766     IErMin=12 ErrMin= 2.11D-04
 ErrMax= 4.97D-03 EMaxC= 1.00D-01 BMatC= 2.33D-03 BMatP= 4.30D-06
 IDIUse=3 WtCom= 9.98D-01 WtEn= 2.11D-03
 Coeff-Com: -0.337D-01 0.140D+00 0.183D+01-0.248D+01-0.780D+00 0.555D+01
 Coeff-Com: -0.283D+01-0.190D+01-0.552D+00-0.961D-01 0.156D+00 0.941D+00
 Coeff-Com:  0.133D+01-0.213D-01-0.244D+00
 Coeff-En:   0.000D+00 0.000D+00 0.000D+00 0.000D+00 0.000D+00 0.000D+00
 Coeff-En:   0.000D+00 0.000D+00 0.000D+00 0.000D+00 0.000D+00 0.000D+00
 Coeff-En:   0.000D+00 0.000D+00 0.100D+01
 Coeff:     -0.336D-01 0.139D+00 0.182D+01-0.248D+01-0.779D+00 0.554D+01
 Coeff:     -0.283D+01-0.190D+01-0.551D+00-0.959D-01 0.156D+00 0.940D+00
 Coeff:      0.133D+01-0.212D-01-0.241D+00
 Gap=     0.286 Goal=   None    Shift=    0.000
 Gap=     0.152 Goal=   None    Shift=    0.000
 RMSDP=8.99D-05 MaxDP=2.83D-03 DE=-7.58D-04 OVMax= 9.72D-03

 Cycle  23  Pass 1  IDiag  1:
 RMSU=  1.13D-05    CP:  1.00D+00  7.52D-01  1.24D+00
 PrsmSu:  requested number of processors reduced to:   6 ShMem   1 Linda.
 CalDSu:  requested number of processors reduced to:   5 ShMem   1 Linda.
 E= -484.422823548176     Delta-E=       -0.000492409878 Rises=F Damp=F
 DIIS: error= 3.24D-03 at cycle  23 NSaved=  16.
 NSaved=16 IEnMin=13 EnMin= -484.423065590766     IErMin=12 ErrMin= 2.11D-04
 ErrMax= 3.24D-03 EMaxC= 1.00D-01 BMatC= 1.00D-03 BMatP= 4.30D-06
 IDIUse=3 WtCom= 9.98D-01 WtEn= 2.11D-03
 Coeff-Com:  0.138D-01 0.128D+00 0.134D+01-0.277D+01 0.786D+00 0.520D+01
 Coeff-Com: -0.309D+01-0.203D+01-0.615D+00-0.715D-01 0.222D+00 0.869D+00
 Coeff-Com:  0.712D+00 0.366D+00-0.155D+01 0.149D+01
 Coeff-En:   0.000D+00 0.000D+00 0.000D+00 0.000D+00 0.000D+00 0.000D+00
 Coeff-En:   0.000D+00 0.000D+00 0.000D+00 0.000D+00 0.000D+00 0.000D+00
 Coeff-En:   0.000D+00 0.000D+00 0.000D+00 0.100D+01
 Coeff:      0.138D-01 0.128D+00 0.134D+01-0.276D+01 0.784D+00 0.519D+01
 Coeff:     -0.309D+01-0.202D+01-0.614D+00-0.714D-01 0.222D+00 0.867D+00
 Coeff:      0.711D+00 0.365D+00-0.155D+01 0.149D+01
 Gap=     0.288 Goal=   None    Shift=    0.000
 Gap=     0.138 Goal=   None    Shift=    0.000
 RMSDP=6.69D-05 MaxDP=2.10D-03 DE=-4.92D-04 OVMax= 7.71D-03

 Cycle  24  Pass 1  IDiag  1:
 RMSU=  3.59D-06    CP:  1.00D+00  5.67D-01  1.38D+00  1.72D+00
 PrsmSu:  requested number of processors reduced to:   6 ShMem   1 Linda.
 CalDSu:  requested number of processors reduced to:   5 ShMem   1 Linda.
 E= -484.423056637432     Delta-E=       -0.000233089256 Rises=F Damp=F
 DIIS: error= 2.02D-03 at cycle  24 NSaved=  17.
 NSaved=17 IEnMin=13 EnMin= -484.423065590766     IErMin=12 ErrMin= 2.11D-04
 ErrMax= 2.02D-03 EMaxC= 1.00D-01 BMatC= 3.97D-04 BMatP= 4.30D-06
 IDIUse=3 WtCom= 9.98D-01 WtEn= 2.11D-03
 Coeff-Com: -0.127D-01-0.223D+00 0.353D+00-0.841D+01 0.705D+01-0.159D+01
 Coeff-Com:  0.274D+01 0.283D+00 0.306D+00-0.326D+00-0.746D+00 0.429D+00
 Coeff-Com: -0.166D+00 0.556D-01 0.125D+01-0.511D+01 0.511D+01
 Coeff-En:   0.000D+00 0.000D+00 0.000D+00 0.000D+00 0.000D+00 0.000D+00
 Coeff-En:   0.000D+00 0.000D+00 0.000D+00 0.000D+00 0.000D+00 0.000D+00
 Coeff-En:   0.000D+00 0.000D+00 0.000D+00 0.000D+00 0.100D+01
 Coeff:     -0.127D-01-0.223D+00 0.352D+00-0.839D+01 0.704D+01-0.159D+01
 Coeff:      0.274D+01 0.282D+00 0.305D+00-0.326D+00-0.745D+00 0.428D+00
 Coeff:     -0.166D+00 0.555D-01 0.125D+01-0.510D+01 0.510D+01
 Gap=     0.289 Goal=   None    Shift=    0.000
 Gap=     0.135 Goal=   None    Shift=    0.000
 RMSDP=2.18D-04 MaxDP=1.14D-02 DE=-2.33D-04 OVMax= 5.51D-02

 Cycle  25  Pass 1  IDiag  1:
 RMSU=  2.76D-05    CP:  9.99D-01  9.17D-01  2.54D+00  1.87D+00  1.12D+00
 PrsmSu:  requested number of processors reduced to:   6 ShMem   1 Linda.
 CalDSu:  requested number of processors reduced to:   5 ShMem   1 Linda.
 E= -484.423099585298     Delta-E=       -0.000042947866 Rises=F Damp=F
 DIIS: error= 1.88D-03 at cycle  25 NSaved=  18.
 NSaved=18 IEnMin=18 EnMin= -484.423099585298     IErMin=12 ErrMin= 2.11D-04
 ErrMax= 1.88D-03 EMaxC= 1.00D-01 BMatC= 3.36D-04 BMatP= 4.30D-06
 IDIUse=3 WtCom= 9.98D-01 WtEn= 2.11D-03
 Coeff-Com: -0.936D-01-0.110D+00-0.178D+00-0.177D+01 0.310D+01-0.263D+01
 Coeff-Com:  0.101D+01 0.525D+00-0.430D-02-0.152D+00 0.112D+00 0.221D+00
 Coeff-Com: -0.771D-01 0.318D+00 0.557D+00-0.420D+01 0.334D+01 0.104D+01
 Coeff-En:   0.000D+00 0.000D+00 0.000D+00 0.000D+00 0.000D+00 0.000D+00
 Coeff-En:   0.000D+00 0.000D+00 0.000D+00 0.000D+00 0.000D+00 0.000D+00
 Coeff-En:   0.000D+00 0.000D+00 0.000D+00 0.000D+00 0.000D+00 0.100D+01
 Coeff:     -0.934D-01-0.110D+00-0.177D+00-0.177D+01 0.309D+01-0.263D+01
 Coeff:      0.101D+01 0.524D+00-0.429D-02-0.152D+00 0.112D+00 0.221D+00
 Coeff:     -0.770D-01 0.318D+00 0.555D+00-0.420D+01 0.333D+01 0.104D+01
 Gap=     0.291 Goal=   None    Shift=    0.000
 Gap=     0.120 Goal=   None    Shift=    0.000
 RMSDP=8.83D-05 MaxDP=2.28D-03 DE=-4.29D-05 OVMax= 1.23D-02

 Cycle  26  Pass 1  IDiag  1:
 RMSU=  6.96D-06    CP:  9.99D-01  8.05D-01  3.00D+00  3.00D+00  2.40D+00
                    CP:  1.51D+00
 PrsmSu:  requested number of processors reduced to:   6 ShMem   1 Linda.
 CalDSu:  requested number of processors reduced to:   5 ShMem   1 Linda.
 E= -484.423227727059     Delta-E=       -0.000128141762 Rises=F Damp=F
 DIIS: error= 4.76D-04 at cycle  26 NSaved=  19.
 NSaved=19 IEnMin=19 EnMin= -484.423227727059     IErMin=12 ErrMin= 2.11D-04
 ErrMax= 4.76D-04 EMaxC= 1.00D-01 BMatC= 2.16D-05 BMatP= 4.30D-06
 IDIUse=3 WtCom= 9.98D-01 WtEn= 2.11D-03
 Coeff-Com: -0.170D-01-0.372D-01-0.151D+00-0.605D+00 0.105D+01-0.773D+00
 Coeff-Com:  0.316D+00 0.149D+00 0.319D-01-0.483D-01-0.151D-01 0.106D+00
 Coeff-Com:  0.993D-01 0.634D-01 0.286D+00-0.123D+01 0.668D+00 0.586D-01
 Coeff-Com:  0.105D+01
 Coeff-En:   0.000D+00 0.000D+00 0.000D+00 0.000D+00 0.000D+00 0.000D+00
 Coeff-En:   0.000D+00 0.000D+00 0.000D+00 0.000D+00 0.000D+00 0.000D+00
 Coeff-En:   0.000D+00 0.000D+00 0.000D+00 0.000D+00 0.000D+00 0.000D+00
 Coeff-En:   0.100D+01
 Coeff:     -0.169D-01-0.371D-01-0.151D+00-0.604D+00 0.105D+01-0.772D+00
 Coeff:      0.316D+00 0.148D+00 0.318D-01-0.482D-01-0.151D-01 0.106D+00
 Coeff:      0.991D-01 0.632D-01 0.285D+00-0.123D+01 0.666D+00 0.585D-01
 Coeff:      0.105D+01
 Gap=     0.291 Goal=   None    Shift=    0.000
 Gap=     0.118 Goal=   None    Shift=    0.000
 RMSDP=2.28D-05 MaxDP=1.03D-03 DE=-1.28D-04 OVMax= 5.46D-03

 Cycle  27  Pass 1  IDiag  1:
 RMSU=  1.78D-05    CP:  9.99D-01  8.13D-01  3.00D+00  3.00D+00  2.54D+00
                    CP:  1.71D+00  2.85D+00
 PrsmSu:  requested number of processors reduced to:   6 ShMem   1 Linda.
 CalDSu:  requested number of processors reduced to:   5 ShMem   1 Linda.
 E= -484.423233681414     Delta-E=       -0.000005954355 Rises=F Damp=F
 DIIS: error= 2.83D-04 at cycle  27 NSaved=  20.
 NSaved=20 IEnMin=20 EnMin= -484.423233681414     IErMin=12 ErrMin= 2.11D-04
 ErrMax= 2.83D-04 EMaxC= 1.00D-01 BMatC= 7.71D-06 BMatP= 4.30D-06
 IDIUse=3 WtCom= 9.98D-01 WtEn= 2.11D-03
 Matrix for removal 14 Erem= -484.421573138539     Crem= 0.000D+00
 Coeff-Com: -0.278D-02 0.244D-02 0.941D-01-0.678D+00 0.794D+00 0.339D-01
 Coeff-Com: -0.196D+00-0.523D-01-0.137D-01-0.723D-02 0.159D-01 0.253D-01
 Coeff-Com: -0.226D-01 0.968D-02-0.795D-01 0.322D+00-0.213D+00-0.290D+00
 Coeff-Com: -0.278D+00 0.154D+01
 Coeff-En:   0.000D+00 0.000D+00 0.000D+00 0.000D+00 0.000D+00 0.000D+00
 Coeff-En:   0.000D+00 0.000D+00 0.000D+00 0.000D+00 0.000D+00 0.000D+00
 Coeff-En:   0.000D+00 0.000D+00 0.000D+00 0.000D+00 0.000D+00 0.000D+00
 Coeff-En:   0.000D+00 0.100D+01
 Coeff:     -0.277D-02 0.243D-02 0.939D-01-0.677D+00 0.792D+00 0.339D-01
 Coeff:     -0.196D+00-0.522D-01-0.136D-01-0.722D-02 0.159D-01 0.252D-01
 Coeff:     -0.226D-01 0.966D-02-0.793D-01 0.322D+00-0.213D+00-0.290D+00
 Coeff:     -0.278D+00 0.154D+01
 Gap=     0.293 Goal=   None    Shift=    0.000
 Gap=     0.111 Goal=   None    Shift=    0.000
 RMSDP=3.38D-05 MaxDP=9.43D-04 DE=-5.95D-06 OVMax= 4.45D-03

 Cycle  28  Pass 1  IDiag  1:
 RMSU=  1.91D-05    CP:  9.99D-01  7.59D-01  3.00D+00  3.00D+00  3.00D+00
                    CP:  1.92D+00  3.00D+00  2.07D+00
 PrsmSu:  requested number of processors reduced to:   6 ShMem   1 Linda.
 CalDSu:  requested number of processors reduced to:   5 ShMem   1 Linda.
 E= -484.423234020229     Delta-E=       -0.000000338815 Rises=F Damp=F
 DIIS: error= 2.67D-04 at cycle  28 NSaved=  20.
 NSaved=20 IEnMin=20 EnMin= -484.423234020229     IErMin=12 ErrMin= 2.11D-04
 ErrMax= 2.67D-04 EMaxC= 1.00D-01 BMatC= 6.94D-06 BMatP= 4.30D-06
 IDIUse=3 WtCom= 9.98D-01 WtEn= 2.11D-03
 Matrix for removal  1 Erem= -484.421728495754     Crem= 0.000D+00
 Coeff-Com: -0.264D-02-0.475D-02-0.298D-01-0.205D+00 0.477D+00-0.116D+00
 Coeff-Com: -0.789D-01-0.226D-01-0.810D-02-0.406D-01 0.793D-02 0.230D-01
 Coeff-Com: -0.482D-02-0.605D-01 0.983D-01-0.109D-01 0.133D+00-0.525D+00
 Coeff-Com:  0.690D+00 0.681D+00
 Coeff-En:   0.000D+00 0.000D+00 0.000D+00 0.000D+00 0.000D+00 0.000D+00
 Coeff-En:   0.000D+00 0.000D+00 0.000D+00 0.000D+00 0.000D+00 0.000D+00
 Coeff-En:   0.000D+00 0.000D+00 0.000D+00 0.000D+00 0.000D+00 0.000D+00
 Coeff-En:   0.000D+00 0.100D+01
 Coeff:     -0.263D-02-0.474D-02-0.297D-01-0.205D+00 0.476D+00-0.115D+00
 Coeff:     -0.787D-01-0.226D-01-0.808D-02-0.405D-01 0.791D-02 0.230D-01
 Coeff:     -0.481D-02-0.603D-01 0.981D-01-0.109D-01 0.133D+00-0.524D+00
 Coeff:      0.688D+00 0.681D+00
 Gap=     0.292 Goal=   None    Shift=    0.000
 Gap=     0.112 Goal=   None    Shift=    0.000
 RMSDP=5.01D-06 MaxDP=1.48D-04 DE=-3.39D-07 OVMax= 7.08D-04

 Cycle  29  Pass 1  IDiag  1:
 RMSU=  4.68D-07    CP:  9.99D-01  7.70D-01  3.00D+00  3.00D+00  3.00D+00
                    CP:  1.90D+00  3.00D+00  1.96D+00  8.62D-01
 PrsmSu:  requested number of processors reduced to:   6 ShMem   1 Linda.
 CalDSu:  requested number of processors reduced to:   5 ShMem   1 Linda.
 E= -484.423235620957     Delta-E=       -0.000001600728 Rises=F Damp=F
 DIIS: error= 1.80D-04 at cycle  29 NSaved=  20.
 NSaved=20 IEnMin=20 EnMin= -484.423235620957     IErMin=20 ErrMin= 1.80D-04
 ErrMax= 1.80D-04 EMaxC= 1.00D-01 BMatC= 3.16D-06 BMatP= 4.30D-06
 IDIUse=3 WtCom= 9.98D-01 WtEn= 1.80D-03
 Matrix for removal  1 Erem= -484.421756947475     Crem= 0.000D+00
 Coeff-Com:  0.321D-02-0.614D-01 0.102D+00 0.157D+00-0.137D+00-0.945D-01
 Coeff-Com:  0.193D-01-0.135D-01-0.505D-02 0.381D-01-0.257D-02-0.541D-02
 Coeff-Com: -0.542D-01 0.107D+00-0.747D-01 0.148D+00-0.232D+00 0.127D+00
 Coeff-Com: -0.501D+00 0.148D+01
 Coeff-En:   0.000D+00 0.000D+00 0.000D+00 0.000D+00 0.000D+00 0.000D+00
 Coeff-En:   0.000D+00 0.000D+00 0.000D+00 0.000D+00 0.000D+00 0.000D+00
 Coeff-En:   0.000D+00 0.000D+00 0.000D+00 0.000D+00 0.000D+00 0.000D+00
 Coeff-En:   0.000D+00 0.100D+01
 Coeff:      0.321D-02-0.613D-01 0.102D+00 0.157D+00-0.136D+00-0.943D-01
 Coeff:      0.193D-01-0.134D-01-0.504D-02 0.381D-01-0.256D-02-0.540D-02
 Coeff:     -0.541D-01 0.106D+00-0.746D-01 0.148D+00-0.231D+00 0.127D+00
 Coeff:     -0.500D+00 0.148D+01
 Gap=     0.292 Goal=   None    Shift=    0.000
 Gap=     0.112 Goal=   None    Shift=    0.000
 RMSDP=1.76D-06 MaxDP=4.76D-05 DE=-1.60D-06 OVMax= 2.21D-04

 Cycle  30  Pass 1  IDiag  1:
 RMSU=  1.55D-07    CP:  9.99D-01  7.75D-01  3.00D+00  3.00D+00  3.00D+00
                    CP:  1.90D+00  3.00D+00  1.95D+00  8.33D-01  1.55D+00
 PrsmSu:  requested number of processors reduced to:   6 ShMem   1 Linda.
 CalDSu:  requested number of processors reduced to:   5 ShMem   1 Linda.
 E= -484.423235998561     Delta-E=       -0.000000377604 Rises=F Damp=F
 DIIS: error= 1.53D-04 at cycle  30 NSaved=  20.
 NSaved=20 IEnMin=20 EnMin= -484.423235998561     IErMin=20 ErrMin= 1.53D-04
 ErrMax= 1.53D-04 EMaxC= 1.00D-01 BMatC= 2.27D-06 BMatP= 3.16D-06
 IDIUse=3 WtCom= 9.98D-01 WtEn= 1.53D-03
 Matrix for removal  6 Erem= -484.421761628143     Crem= 0.000D+00
 Coeff-Com:  0.234D-01-0.236D-01-0.139D-02 0.227D-01-0.394D-01 0.256D-02
 Coeff-Com: -0.249D-02 0.167D-01 0.139D-01-0.705D-02-0.744D-02-0.626D-02
 Coeff-Com:  0.161D-01-0.198D-01 0.239D-01-0.266D-01 0.153D+00-0.603D+00
 Coeff-Com: -0.390D+00 0.185D+01
 Coeff-En:   0.000D+00 0.000D+00 0.000D+00 0.000D+00 0.000D+00 0.000D+00
 Coeff-En:   0.000D+00 0.000D+00 0.000D+00 0.000D+00 0.000D+00 0.000D+00
 Coeff-En:   0.000D+00 0.000D+00 0.000D+00 0.000D+00 0.000D+00 0.000D+00
 Coeff-En:   0.000D+00 0.100D+01
 Coeff:      0.234D-01-0.236D-01-0.139D-02 0.227D-01-0.393D-01 0.256D-02
 Coeff:     -0.248D-02 0.166D-01 0.139D-01-0.704D-02-0.743D-02-0.625D-02
 Coeff:      0.161D-01-0.198D-01 0.239D-01-0.266D-01 0.153D+00-0.602D+00
 Coeff:     -0.389D+00 0.185D+01
 Gap=     0.292 Goal=   None    Shift=    0.000
 Gap=     0.114 Goal=   None    Shift=    0.000
 RMSDP=8.61D-06 MaxDP=2.53D-04 DE=-3.78D-07 OVMax= 1.18D-03

 Cycle  31  Pass 1  IDiag  1:
 RMSU=  1.33D-07    CP:  9.99D-01  7.92D-01  3.00D+00  3.00D+00  2.90D+00
                    CP:  1.86D+00  3.00D+00  1.74D+00  5.83D-01  2.20D+00
                    CP:  2.41D+00
 PrsmSu:  requested number of processors reduced to:   6 ShMem   1 Linda.
 CalDSu:  requested number of processors reduced to:   5 ShMem   1 Linda.
 E= -484.423236957947     Delta-E=       -0.000000959386 Rises=F Damp=F
 DIIS: error= 6.38D-06 at cycle  31 NSaved=  20.
 NSaved=20 IEnMin=20 EnMin= -484.423236957947     IErMin=20 ErrMin= 6.38D-06
 ErrMax= 6.38D-06 EMaxC= 1.00D-01 BMatC= 3.87D-09 BMatP= 2.27D-06
 IDIUse=1 WtCom= 1.00D+00 WtEn= 0.00D+00
 Coeff-Com:  0.123D-01-0.400D-01 0.175D-01 0.176D-01-0.942D-02 0.495D-04
 Coeff-Com:  0.580D-02 0.112D-02-0.377D-02-0.506D-02-0.702D-02 0.256D-01
 Coeff-Com: -0.133D-01-0.114D-01-0.199D-01 0.721D-01-0.301D-01-0.217D+00
 Coeff-Com:  0.295D+00 0.910D+00
 Coeff:      0.123D-01-0.400D-01 0.175D-01 0.176D-01-0.942D-02 0.495D-04
 Coeff:      0.580D-02 0.112D-02-0.377D-02-0.506D-02-0.702D-02 0.256D-01
 Coeff:     -0.133D-01-0.114D-01-0.199D-01 0.721D-01-0.301D-01-0.217D+00
 Coeff:      0.295D+00 0.910D+00
 Gap=     0.292 Goal=   None    Shift=    0.000
 Gap=     0.114 Goal=   None    Shift=    0.000
 RMSDP=2.34D-07 MaxDP=5.98D-06 DE=-9.59D-07 OVMax= 3.58D-05

 Cycle  32  Pass 1  IDiag  1:
 RMSU=  2.69D-08    CP:  9.99D-01  7.91D-01  3.00D+00  3.00D+00  2.91D+00
                    CP:  1.86D+00  3.00D+00  1.74D+00  5.86D-01  2.20D+00
                    CP:  2.41D+00  1.16D+00
 PrsmSu:  requested number of processors reduced to:   6 ShMem   1 Linda.
 CalDSu:  requested number of processors reduced to:   5 ShMem   1 Linda.
 E= -484.423236955688     Delta-E=        0.000000002259 Rises=F Damp=F
 DIIS: error= 9.80D-06 at cycle  32 NSaved=  20.
 NSaved=20 IEnMin=19 EnMin= -484.423236957947     IErMin=19 ErrMin= 6.38D-06
 ErrMax= 9.80D-06 EMaxC= 1.00D-01 BMatC= 9.34D-09 BMatP= 3.87D-09
 IDIUse=1 WtCom= 1.00D+00 WtEn= 0.00D+00
 Coeff-Com: -0.184D-02 0.248D-03 0.135D-02 0.733D-03 0.264D-03-0.982D-03
 Coeff-Com: -0.924D-03 0.745D-03 0.208D-02 0.184D-02-0.505D-02 0.100D-02
 Coeff-Com: -0.454D-04 0.769D-02 0.393D-02 0.735D-03-0.518D-02-0.470D-01
 Coeff-Com:  0.190D-01 0.102D+01
 Coeff:     -0.184D-02 0.248D-03 0.135D-02 0.733D-03 0.264D-03-0.982D-03
 Coeff:     -0.924D-03 0.745D-03 0.208D-02 0.184D-02-0.505D-02 0.100D-02
 Coeff:     -0.454D-04 0.769D-02 0.393D-02 0.735D-03-0.518D-02-0.470D-01
 Coeff:      0.190D-01 0.102D+01
 Gap=     0.292 Goal=   None    Shift=    0.000
 Gap=     0.114 Goal=   None    Shift=    0.000
 RMSDP=7.38D-07 MaxDP=2.06D-05 DE= 2.26D-09 OVMax= 9.67D-05

 Cycle  33  Pass 1  IDiag  1:
 RMSU=  2.26D-08    CP:  9.99D-01  7.92D-01  3.00D+00  3.00D+00  2.89D+00
                    CP:  1.85D+00  3.00D+00  1.71D+00  5.63D-01  2.16D+00
                    CP:  2.44D+00  1.21D+00  1.01D+00
 PrsmSu:  requested number of processors reduced to:   6 ShMem   1 Linda.
 CalDSu:  requested number of processors reduced to:   5 ShMem   1 Linda.
 E= -484.423236959436     Delta-E=       -0.000000003748 Rises=F Damp=F
 DIIS: error= 2.21D-06 at cycle  33 NSaved=  20.
 NSaved=20 IEnMin=20 EnMin= -484.423236959436     IErMin=20 ErrMin= 2.21D-06
 ErrMax= 2.21D-06 EMaxC= 1.00D-01 BMatC= 4.70D-10 BMatP= 3.87D-09
 IDIUse=1 WtCom= 1.00D+00 WtEn= 0.00D+00
 Coeff-Com:  0.712D-03-0.741D-03 0.320D-03-0.834D-04-0.625D-03-0.162D-04
 Coeff-Com:  0.356D-03 0.545D-03 0.162D-03-0.499D-03-0.367D-03 0.547D-03
 Coeff-Com:  0.259D-02-0.781D-02 0.384D-02 0.346D-01-0.505D-01-0.839D-01
 Coeff-Com:  0.217D+00 0.884D+00
 Coeff:      0.712D-03-0.741D-03 0.320D-03-0.834D-04-0.625D-03-0.162D-04
 Coeff:      0.356D-03 0.545D-03 0.162D-03-0.499D-03-0.367D-03 0.547D-03
 Coeff:      0.259D-02-0.781D-02 0.384D-02 0.346D-01-0.505D-01-0.839D-01
 Coeff:      0.217D+00 0.884D+00
 Gap=     0.292 Goal=   None    Shift=    0.000
 Gap=     0.114 Goal=   None    Shift=    0.000
 RMSDP=1.22D-07 MaxDP=3.57D-06 DE=-3.75D-09 OVMax= 1.68D-05

 Cycle  34  Pass 1  IDiag  1:
 RMSU=  2.04D-09    CP:  9.99D-01  7.92D-01  3.00D+00  3.00D+00  2.90D+00
                    CP:  1.85D+00  3.00D+00  1.72D+00  5.66D-01  2.16D+00
                    CP:  2.42D+00  1.21D+00  1.10D+00  8.94D-01
 PrsmSu:  requested number of processors reduced to:   6 ShMem   1 Linda.
 CalDSu:  requested number of processors reduced to:   5 ShMem   1 Linda.
 E= -484.423236959635     Delta-E=       -0.000000000199 Rises=F Damp=F
 DIIS: error= 1.25D-07 at cycle  34 NSaved=  20.
 NSaved=20 IEnMin=20 EnMin= -484.423236959635     IErMin=20 ErrMin= 1.25D-07
 ErrMax= 1.25D-07 EMaxC= 1.00D-01 BMatC= 1.52D-12 BMatP= 4.70D-10
 IDIUse=1 WtCom= 1.00D+00 WtEn= 0.00D+00
 Coeff-Com: -0.132D-03 0.157D-03 0.226D-05-0.928D-05-0.162D-04 0.669D-05
 Coeff-Com: -0.117D-03-0.305D-04 0.903D-04 0.171D-03-0.158D-03-0.377D-03
 Coeff-Com: -0.953D-03 0.172D-02 0.180D-02-0.473D-02-0.664D-02-0.193D-01
 Coeff-Com:  0.677D-01 0.961D+00
 Coeff:     -0.132D-03 0.157D-03 0.226D-05-0.928D-05-0.162D-04 0.669D-05
 Coeff:     -0.117D-03-0.305D-04 0.903D-04 0.171D-03-0.158D-03-0.377D-03
 Coeff:     -0.953D-03 0.172D-02 0.180D-02-0.473D-02-0.664D-02-0.193D-01
 Coeff:      0.677D-01 0.961D+00
 Gap=     0.292 Goal=   None    Shift=    0.000
 Gap=     0.114 Goal=   None    Shift=    0.000
 RMSDP=8.42D-09 MaxDP=2.18D-07 DE=-1.99D-10 OVMax= 1.15D-06

 SCF Done:  E(UB97-1+HF-B97-1) =  -484.423236960     A.U. after   34 cycles
             Convg  =    0.8425D-08             -V/T =  2.0023
             S**2   =   0.7542
 KE= 4.832970225908D+02 PE=-1.620289378643D+03 EE= 4.148878180481D+02
 Annihilation of the first spin contaminant:
 S**2 before annihilation     0.7542,   after     0.7500
 Leave Link  502 at Thu Apr 16 14:05:36 2009, MaxMem=    6291456 cpu:    1904.2
 (Enter /opt//g03/l601.exe)
 Copying SCF densities to generalized density rwf, ISCF=1 IROHF=0.

 **********************************************************************

            Population analysis using the SCF density.

 **********************************************************************

 Alpha  occ. eigenvalues --  -66.12635 -19.16996 -10.17581 -10.16392 -10.16390
 Alpha  occ. eigenvalues --   -5.29594  -3.64375  -3.64136  -3.64081  -0.97653
 Alpha  occ. eigenvalues --   -0.73066  -0.70256  -0.69600  -0.48060  -0.43288
 Alpha  occ. eigenvalues --   -0.42819  -0.42757  -0.41505  -0.40609  -0.39574
 Alpha  occ. eigenvalues --   -0.38749  -0.36226  -0.34892  -0.31530  -0.29526
 Alpha virt. eigenvalues --   -0.00326   0.02726   0.02981   0.04369   0.05619
 Alpha virt. eigenvalues --    0.06303   0.06328   0.07485   0.07648   0.08213
 Alpha virt. eigenvalues --    0.10543   0.10656   0.10996   0.11001   0.11363
 Alpha virt. eigenvalues --    0.11614   0.12904   0.13399   0.13936   0.16152
 Alpha virt. eigenvalues --    0.17596   0.17770   0.19340   0.19628   0.19723
 Alpha virt. eigenvalues --    0.21748   0.27261   0.27547   0.28611   0.29765
 Alpha virt. eigenvalues --    0.30222   0.31251   0.32646   0.33011   0.33322
 Alpha virt. eigenvalues --    0.36768   0.37375   0.37518   0.49618   0.50160
 Alpha virt. eigenvalues --    0.50813   0.51481   0.51857   0.52236   0.52825
 Alpha virt. eigenvalues --    0.61481   0.62670   0.62994   0.64877   0.65130
 Alpha virt. eigenvalues --    0.65484   0.67608   0.68700   0.69340   0.73368
 Alpha virt. eigenvalues --    0.74400   0.74800   0.84162   0.84885   0.86900
 Alpha virt. eigenvalues --    0.90850   0.91016   0.91796   1.03576   1.06152
 Alpha virt. eigenvalues --    1.06474   1.12181   1.14070   1.15834   1.19539
 Alpha virt. eigenvalues --    1.20327   1.20482   1.40686   1.44643   1.44955
 Alpha virt. eigenvalues --    1.45770   1.46374   1.46411   1.55163   1.55424
 Alpha virt. eigenvalues --    1.56642   1.58489   1.60455   1.60582   1.61736
 Alpha virt. eigenvalues --    1.65641   1.69793   1.70587   1.71131   1.76453
 Alpha virt. eigenvalues --    1.76672   1.80007   1.80133   1.84377   2.02493
 Alpha virt. eigenvalues --    2.06523   2.06559   2.17714   2.18133   2.18236
 Alpha virt. eigenvalues --    2.23873   2.24188   2.25425   2.44662   2.45059
 Alpha virt. eigenvalues --    2.45618   2.45815   2.46332   2.51910   2.52483
 Alpha virt. eigenvalues --    2.53139   2.54212   2.56687   2.56900   2.59025
 Alpha virt. eigenvalues --    2.62650   2.63091   2.65421   2.76925   2.76954
 Alpha virt. eigenvalues --    2.77439   2.86074   2.89872   2.90998   2.92416
 Alpha virt. eigenvalues --    3.07869   3.29725   3.29752   3.32982   3.75025
 Alpha virt. eigenvalues --    3.75567   3.76053   3.78855   3.79033   3.79888
 Alpha virt. eigenvalues --    4.98244   5.03471   5.06967   5.79999  11.48018
 Alpha virt. eigenvalues --   11.53282  11.53337  23.98893  23.99718  24.01440
 Alpha virt. eigenvalues --   49.89785 141.26947
  Beta  occ. eigenvalues --  -66.12660 -19.15078 -10.17461 -10.16371 -10.16370
  Beta  occ. eigenvalues --   -5.29619  -3.64418  -3.64167  -3.64102  -0.90955
  Beta  occ. eigenvalues --   -0.72694  -0.70010  -0.69539  -0.47177  -0.42867
  Beta  occ. eigenvalues --   -0.42632  -0.42052  -0.40934  -0.40509  -0.39541
  Beta  occ. eigenvalues --   -0.34267  -0.33691  -0.32759  -0.28005
  Beta virt. eigenvalues --   -0.16602  -0.00279   0.02997   0.03014   0.04442
  Beta virt. eigenvalues --    0.05762   0.06302   0.06423   0.07653   0.07654
  Beta virt. eigenvalues --    0.08360   0.10572   0.10674   0.11043   0.11295
  Beta virt. eigenvalues --    0.11625   0.11667   0.12856   0.13463   0.13941
  Beta virt. eigenvalues --    0.16300   0.17829   0.18320   0.19522   0.19751
  Beta virt. eigenvalues --    0.20065   0.21785   0.27666   0.27759   0.28837
  Beta virt. eigenvalues --    0.30344   0.30508   0.31314   0.32675   0.33084
  Beta virt. eigenvalues --    0.33319   0.36882   0.37342   0.37683   0.49676
  Beta virt. eigenvalues --    0.50228   0.50829   0.51477   0.51944   0.52332
  Beta virt. eigenvalues --    0.52845   0.61534   0.62751   0.63043   0.65096
  Beta virt. eigenvalues --    0.65196   0.65505   0.67673   0.69174   0.69371
  Beta virt. eigenvalues --    0.73461   0.74519   0.74823   0.84456   0.84916
  Beta virt. eigenvalues --    0.87089   0.91028   0.91554   0.91825   1.03674
  Beta virt. eigenvalues --    1.06761   1.07547   1.12773   1.16415   1.17415
  Beta virt. eigenvalues --    1.20126   1.20749   1.20921   1.41118   1.44753
  Beta virt. eigenvalues --    1.44970   1.45779   1.46419   1.46419   1.55199
  Beta virt. eigenvalues --    1.55605   1.56937   1.59711   1.60608   1.60630
  Beta virt. eigenvalues --    1.61802   1.66254   1.69996   1.70677   1.71167
  Beta virt. eigenvalues --    1.76653   1.76717   1.80054   1.80204   1.84995
  Beta virt. eigenvalues --    2.02633   2.06605   2.06685   2.17814   2.18279
  Beta virt. eigenvalues --    2.18325   2.24030   2.24234   2.25517   2.44736
  Beta virt. eigenvalues --    2.45086   2.45721   2.45920   2.46371   2.51980
  Beta virt. eigenvalues --    2.52731   2.53202   2.54282   2.56801   2.57051
  Beta virt. eigenvalues --    2.59083   2.62751   2.63111   2.65431   2.77084
  Beta virt. eigenvalues --    2.84144   2.85087   2.90612   2.91531   2.93533
  Beta virt. eigenvalues --    2.93744   3.08541   3.29932   3.31048   3.35344
  Beta virt. eigenvalues --    3.75093   3.75731   3.76093   3.78945   3.79067
  Beta virt. eigenvalues --    3.79954   5.05884   5.08472   5.09408   5.80061
  Beta virt. eigenvalues --   11.47999  11.53257  11.53314  23.98957  23.99731
  Beta virt. eigenvalues --   24.01462  49.91392 141.26920
     Alpha Molecular Orbital Coefficients
                          20        21        22        23        24
                           O         O         O         O         O
     EIGENVALUES --    -0.39574  -0.38749  -0.36226  -0.34892  -0.31530
   1 1   Si 1S          0.00000  -0.00063   0.00394   0.00000   0.00066
   2        2S          0.00000  -0.00174   0.01088   0.00000   0.00182
   3        3S          0.00000   0.00404  -0.02558   0.00001  -0.00420
   4        4S          0.00000   0.00641  -0.03801   0.00001  -0.00696
   5        5S          0.00000  -0.00981   0.05394  -0.00002   0.01310
   6        6S          0.00000  -0.01998   0.09000  -0.00005   0.01052
   7        7PX         0.00001  -0.01688  -0.00134  -0.00002   0.05588
   8        7PY        -0.00423   0.00001   0.00000  -0.04437  -0.00003
   9        7PZ         0.00000  -0.00241   0.04881  -0.00001   0.00317
  10        8PX         0.00001  -0.02963  -0.00243  -0.00004   0.09908
  11        8PY        -0.00743   0.00001   0.00000  -0.07799  -0.00005
  12        8PZ         0.00000  -0.00429   0.08822  -0.00001   0.00551
  13        9PX        -0.00001   0.03412   0.00342   0.00005  -0.13467
  14        9PY         0.00867  -0.00001   0.00001   0.09542   0.00007
  15        9PZ         0.00000   0.00560  -0.12023   0.00002  -0.00676
  16       10PX        -0.00003   0.07466   0.00431   0.00009  -0.19058
  17       10PY         0.01852  -0.00003   0.00001   0.18723   0.00009
  18       10PZ         0.00000   0.00834  -0.16619   0.00002  -0.01274
  19       11PX        -0.00001   0.03921   0.00017   0.00003   0.05493
  20       11PY         0.00662  -0.00002   0.00000   0.07102  -0.00003
  21       11PZ         0.00000   0.00273   0.00638   0.00000   0.00601
  22       12S          0.00001  -0.00551  -0.01343   0.00001  -0.00038
  23       12PX         0.00000   0.00570  -0.00387   0.00001   0.04117
  24       12PY         0.00438   0.00000   0.00000   0.01265  -0.00002
  25       12PZ         0.00000  -0.00298   0.03860  -0.00001   0.00030
  26       13D 0        0.00000  -0.00041  -0.08765   0.00000   0.00518
  27       13D+1        0.00000   0.02028   0.00221   0.00001   0.05143
  28       13D-1       -0.00282  -0.00001   0.00000   0.01742  -0.00002
  29       13D+2        0.00000   0.01663   0.00073   0.00002  -0.06368
  30       13D-2        0.00204   0.00001   0.00000  -0.03315  -0.00003
  31 2   O  1S          0.00000  -0.00031  -0.01404   0.00000  -0.00040
  32        2S          0.00000  -0.00051  -0.02287   0.00000  -0.00065
  33        2PX        -0.00004   0.22190   0.00284   0.00010   0.11880
  34        2PY         0.00578  -0.00011   0.00002   0.21446  -0.00006
  35        2PZ         0.00000  -0.00580   0.23108  -0.00002  -0.00241
  36        3S          0.00000   0.00167   0.06977   0.00000   0.00201
  37        3PX        -0.00007   0.33266   0.00413   0.00015   0.17648
[...]
 Predicted change in Energy=-2.922162D-11
 Optimization completed.
    -- Stationary point found.
                           ----------------------------
                           !   Optimized Parameters   !
                           ! (Angstroms and Degrees)  !
 --------------------------                            --------------------------
 ! Name  Definition              Value          Derivative Info.                !
 --------------------------------------------------------------------------------
 ! R1    R(1,2)                  1.681          -DE/DX =    0.0                 !
 ! R2    R(1,3)                  1.8962         -DE/DX =    0.0                 !
 ! R3    R(1,4)                  1.8804         -DE/DX =    0.0                 !
 ! R4    R(1,5)                  1.8804         -DE/DX =    0.0                 !
 ! R5    R(3,6)                  1.0975         -DE/DX =    0.0                 !
 ! R6    R(3,7)                  1.0933         -DE/DX =    0.0                 !
 ! R7    R(3,8)                  1.0933         -DE/DX =    0.0                 !
 ! R8    R(4,9)                  1.0969         -DE/DX =    0.0                 !
 ! R9    R(4,10)                 1.095          -DE/DX =    0.0                 !
 ! R10   R(4,11)                 1.0957         -DE/DX =    0.0                 !
 ! R11   R(5,12)                 1.0969         -DE/DX =    0.0                 !
 ! R12   R(5,13)                 1.0957         -DE/DX =    0.0                 !
 ! R13   R(5,14)                 1.095          -DE/DX =    0.0                 !
 ! A1    A(2,1,3)              100.3938         -DE/DX =    0.0                 !
 ! A2    A(2,1,4)              111.2579         -DE/DX =    0.0                 !
 ! A3    A(2,1,5)              111.2577         -DE/DX =    0.0                 !
 ! A4    A(3,1,4)              111.2771         -DE/DX =    0.0                 !
 ! A5    A(3,1,5)              111.2772         -DE/DX =    0.0                 !
 ! A6    A(4,1,5)              110.9703         -DE/DX =    0.0                 !
 ! A7    A(1,3,6)              108.0188         -DE/DX =    0.0                 !
 ! A8    A(1,3,7)              111.2322         -DE/DX =    0.0                 !
 ! A9    A(1,3,8)              111.2322         -DE/DX =    0.0                 !
 ! A10   A(6,3,7)              108.6865         -DE/DX =    0.0                 !
 ! A11   A(6,3,8)              108.6865         -DE/DX =    0.0                 !
 ! A12   A(7,3,8)              108.915          -DE/DX =    0.0                 !
 ! A13   A(1,4,9)              110.8889         -DE/DX =    0.0                 !
 ! A14   A(1,4,10)             110.9051         -DE/DX =    0.0                 !
 ! A15   A(1,4,11)             111.0915         -DE/DX =    0.0                 !
 ! A16   A(9,4,10)             108.2731         -DE/DX =    0.0                 !
 ! A17   A(9,4,11)             107.611          -DE/DX =    0.0                 !
 ! A18   A(10,4,11)            107.9369         -DE/DX =    0.0                 !
 ! A19   A(1,5,12)             110.8888         -DE/DX =    0.0                 !
 ! A20   A(1,5,13)             111.0915         -DE/DX =    0.0                 !
 ! A21   A(1,5,14)             110.9051         -DE/DX =    0.0                 !
 ! A22   A(12,5,13)            107.611          -DE/DX =    0.0                 !
 ! A23   A(12,5,14)            108.2731         -DE/DX =    0.0                 !
 ! A24   A(13,5,14)            107.9369         -DE/DX =    0.0                 !
 ! D1    D(2,1,3,6)            179.9995         -DE/DX =    0.0                 !
 ! D2    D(2,1,3,7)            -60.8025         -DE/DX =    0.0                 !
 ! D3    D(2,1,3,8)             60.8016         -DE/DX =    0.0                 !
 ! D4    D(4,1,3,6)             62.1592         -DE/DX =    0.0                 !
 ! D5    D(4,1,3,7)           -178.6428         -DE/DX =    0.0                 !
 ! D6    D(4,1,3,8)            -57.0388         -DE/DX =    0.0                 !
 ! D7    D(5,1,3,6)            -62.1604         -DE/DX =    0.0                 !
 ! D8    D(5,1,3,7)             57.0376         -DE/DX =    0.0                 !
 ! D9    D(5,1,3,8)            178.6416         -DE/DX =    0.0                 !
 ! D10   D(2,1,4,9)           -176.5931         -DE/DX =    0.0                 !
 ! D11   D(2,1,4,10)           -56.26           -DE/DX =    0.0                 !
 ! D12   D(2,1,4,11)            63.7841         -DE/DX =    0.0                 !
 ! D13   D(3,1,4,9)            -65.5392         -DE/DX =    0.0                 !
 ! D14   D(3,1,4,10)            54.7939         -DE/DX =    0.0                 !
 ! D15   D(3,1,4,11)           174.838          -DE/DX =    0.0                 !
 ! D16   D(5,1,4,9)             58.9535         -DE/DX =    0.0                 !
 ! D17   D(5,1,4,10)           179.2866         -DE/DX =    0.0                 !
 ! D18   D(5,1,4,11)           -60.6693         -DE/DX =    0.0                 !
 ! D19   D(2,1,5,12)           176.5931         -DE/DX =    0.0                 !
 ! D20   D(2,1,5,13)           -63.7841         -DE/DX =    0.0                 !
 ! D21   D(2,1,5,14)            56.26           -DE/DX =    0.0                 !
 ! D22   D(3,1,5,12)            65.5393         -DE/DX =    0.0                 !
 ! D23   D(3,1,5,13)          -174.8379         -DE/DX =    0.0                 !
 ! D24   D(3,1,5,14)           -54.7938         -DE/DX =    0.0                 !
 ! D25   D(4,1,5,12)           -58.9534         -DE/DX =    0.0                 !
 ! D26   D(4,1,5,13)            60.6694         -DE/DX =    0.0                 !
 ! D27   D(4,1,5,14)          -179.2865         -DE/DX =    0.0                 !
 --------------------------------------------------------------------------------
 GradGradGradGradGradGradGradGradGradGradGradGradGradGradGradGradGradGrad

 Leave Link  103 at Thu Apr 16 15:31:46 2009, MaxMem=    6291456 cpu:      15.9
 (Enter /opt//g03/l9999.exe)
 1\1\GINC-CONSTABLE\Freq\UB971\6-311+G(d,p)\C3H9O1Si1(2)\SS663\16-Apr-2
 009\0\\#P Geom=AllCheck Guess=Read SCRF=Check GenChk UB971/6-311+G(d,p
 ) Freq\\#NewComb uB971/6-311+G(d,p)\\0,2\Si,-0.0195334403,0.0000000875
 ,0.0154886586\O,0.0718067563,-0.000080391,1.6940508417\C,1.8242168444,
 0.0000194245,-0.427446674\C,-0.8741787816,-1.5494035897,-0.6208709346\
 C,-0.8741751504,1.5494697894,-0.6207156717\H,1.9105205307,0.0000629375
 ,-1.521519939\H,2.3253321166,0.8896163763,-0.0365066857\H,2.3253346539
 ,-0.8896074345,-0.0365779779\H,-0.876931596,-1.5721392328,-1.717512549
 7\H,-0.3681398696,-2.4509194106,-0.2600465521\H,-1.9166110363,-1.59056
 59047,-0.2858128123\H,-0.8769290973,1.5723135998,-1.7173550291\H,-1.91
 66068812,1.5906015841,-0.2856522649\H,-0.3681330493,2.4509481644,-0.25
 98024091\\Version=AM64L-G03RevE.01\HF=-484.4242284\S2=0.754643\S2-1=0.
 \S2A=0.750016\RMSD=2.844e-09\RMSF=5.760e-07\ZeroPoint=0.1120031\Therma
 l=0.1206096\Dipole=0.0007138,0.000051,-1.0172724\DipoleDeriv=1.3248774
 ,0.,0.377494,-0.0000106,1.2169912,0.0000276,0.4647095,0.0000275,0.7750
 354,-0.4904775,-0.0000066,-0.0791396,0.0000106,-0.3028327,-0.0000005,-
 0.3448056,-0.0000027,-0.3025245,-0.2609649,0.0000063,-0.2698606,-0.000
 0024,-0.2478251,-0.0000033,0.0362009,-0.0000109,-0.2054276,-0.3216723,
 -0.030602,-0.0807981,-0.1089671,-0.3125599,-0.0134154,-0.0734754,-0.18
 68774,-0.1762661,-0.3216666,0.0306019,-0.0807933,0.1089629,-0.3125717,
 0.0133958,-0.0734712,0.186869,-0.1762445,0.0174472,-0.0000012,0.116357
 2,0.000001,0.0507878,0.0000049,-0.0132521,0.0000041,-0.0709434,-0.0094
 358,-0.1053605,0.0042227,-0.0725225,-0.0211712,-0.031685,-0.0091657,-0
 .0196064,0.0564061,-0.0094363,0.1053594,0.004232,0.0725235,-0.0211747,
 0.0316783,-0.0091599,0.0196011,0.0564107,0.0756424,-0.0336903,-0.00825
 9,-0.0113304,-0.0030266,-0.0164077,-0.0072962,-0.0268098,-0.1049797,0.
 0542994,0.0502943,-0.0191322,0.0751691,-0.0910289,0.0439847,-0.0179835
 ,0.0259594,0.0676579,-0.0942766,-0.0270767,0.0315342,-0.0338738,0.0692
 348,-0.0236688,0.0364911,0.0064841,0.0590991,0.0756407,0.0336937,-0.00
 82567,0.0113357,-0.0030341,0.016419,-0.0072959,0.0268202,-0.1049748,-0
 .0942762,0.0270743,0.0315365,0.0338709,0.0692329,0.0236706,0.036495,-0
 .0064829,0.0591003,0.0542991,-0.0502926,-0.0191372,-0.075167,-0.091021
 9,-0.044,-0.0179911,-0.0259752,0.0676509\Polar=67.2264087,-0.0000595,7
 2.0313949,-2.3374739,0.000275,65.986516\PG=C01 [X(C3H9O1Si1)]\NImag=0\
 \0.29098499,-0.00000157,0.30954276,0.05853462,-0.00000143,0.35797657,-
 0.01711831,0.00000020,-0.02132033,0.01782443,0.00000126,-0.01872007,0.
 00000919,-0.00000064,0.01484042,-0.04275976,0.00000898,-0.21119831,0.0
 2292496,-0.00001115,0.24679609,-0.11385453,0.00000020,-0.01152151,-0.0
 0516328,-0.00000102,0.02723431,0.35964016,-0.00000141,-0.03648211,0.00
 000005,-0.00000041,0.00155925,0.00000038,-0.00000199,0.52047455,0.0277
 5177,-0.00000056,-0.03848974,0.00987295,0.00000073,-0.00620715,0.04673
 043,0.00000167,0.48641225,-0.05991853,-0.03680658,-0.01970163,0.001677
 52,-0.00280115,0.00248438,-0.00832166,-0.01515690,-0.00722017,0.479130
 26,-0.04090540,-0.10737351,-0.02413237,-0.00047331,-0.00230452,-0.0027
 7374,0.00127309,0.00117917,-0.00182385,-0.04994801,0.41975136,-0.02229
 292,-0.03523925,-0.04404064,-0.00655634,-0.00878219,-0.01544498,0.0065
 6244,0.00392483,0.00555557,-0.01369409,-0.03533253,0.48281370,-0.05991
 781,0.03680791,-0.01969765,0.00167724,0.00280121,0.00248452,-0.0083218
 3,0.01515761,-0.00721897,0.00759869,-0.00664107,0.00189406,0.47913045,
 0.04090647,-0.10737915,0.02412540,0.00047460,-0.00230591,0.00277536,-0
 .00127334,0.00117926,0.00182399,0.00664098,-0.01368524,0.00930379,0.04
 994976,0.41974380,-0.02228961,0.03523320,-0.04403437,-0.00655570,0.008
 78315,-0.01544394,0.00656270,-0.00392527,0.00555585,0.00189477,-0.0093
 0611,0.00910631,-0.01368885,0.03532645,0.48282029,-0.00767464,-0.00000
 097,0.02975824,-0.00146023,0.00000008,-0.00506942,-0.03270025,-0.00000
 142,0.03464508,0.00215499,0.00032308,-0.00268986,0.00215502,-0.0003230
 7,-0.00269009,0.03812831,0.00000015,-0.00287200,0.00000013,-0.00000010
 ,0.00147357,0.00000011,-0.00000077,-0.04154554,0.00001036,0.00050408,0
 .00064101,-0.00102016,-0.00050411,0.00064093,0.00102022,0.00000088,0.0
 4162732,-0.00202752,0.00000007,-0.00590301,0.00158027,0.00000014,-0.00
 113243,0.01775387,0.00001040,-0.30310927,0.00019343,0.00014950,0.00032
 050,0.00019342,-0.00014944,0.00032058,-0.02196361,-0.00001145,0.329356
 41,-0.00946444,-0.01790778,-0.00496785,0.00091124,0.00129214,-0.002655
 30,-0.09577080,-0.11175969,-0.05285195,-0.00433079,0.00074128,0.000965
 18,0.00152833,0.00110067,0.00029718,0.00010860,0.00324927,0.00194702,0
 .09982117,0.00050052,-0.00085630,0.00125782,0.00046972,0.00042317,-0.0
 0039362,-0.09987039,-0.22199839,-0.07859762,0.00043420,0.00045500,-0.0
 0028464,-0.00029166,0.00025524,0.00011471,0.00098240,0.00047565,0.0011
 0287,0.11061504,0.24038323,0.00334893,0.00563851,-0.00115556,-0.000044
 43,-0.00041663,0.00095266,-0.04582681,-0.07576329,-0.07456130,0.001202
 21,-0.00023134,0.00040843,-0.00040203,-0.00041230,-0.00047181,-0.01560
 736,-0.02572937,-0.01020822,0.05089506,0.08672921,0.08090361,-0.009464
 44,0.01790807,-0.00496635,0.00091127,-0.00129187,-0.00265543,-0.095771
 42,0.11176429,-0.05284321,0.00152826,-0.00110071,0.00029709,-0.0043307
 6,-0.00074132,0.00096509,0.00010860,-0.00324940,0.00194677,0.00718300,
 -0.01307482,0.00639862,0.09982179,-0.00050076,-0.00085569,-0.00125789,
 -0.00046973,0.00042311,0.00039362,0.09987436,-0.22201014,0.07858563,0.
 00029171,0.00025520,-0.00011464,-0.00043429,0.00045495,0.00028467,-0.0
 0098113,0.00047366,-0.00110201,0.01307439,-0.01945251,0.00966934,-0.11
 061954,0.24039649,0.00334897,-0.00563844,-0.00115608,-0.00004452,0.000
 41654,0.00095271,-0.04581908,0.07575134,-0.07454894,-0.00040202,0.0004
 1234,-0.00047175,0.00120222,0.00023131,0.00040843,-0.01560751,0.025730
 22,-0.01020629,0.00639971,-0.00967117,0.00365085,0.05088643,-0.0867162
 7,0.08088975,-0.00188495,-0.00005505,-0.00990744,-0.00039627,-0.001283
 83,-0.00199916,0.00057702,0.00069817,0.00109683,-0.03878360,0.00348623
 ,-0.00780091,-0.00023844,0.00120003,0.00128554,-0.00073151,-0.00042962
 ,0.00016774,0.00015461,-0.00006104,0.00022778,0.00013698,-0.00006263,-
 0.00015969,0.04139827,0.00030712,-0.00295107,-0.01752775,-0.00158647,-
 0.00020826,-0.00318746,0.00148015,0.00075761,0.00156766,0.00389406,-0.
 03553150,-0.01888690,-0.00018121,0.00263746,0.00334903,-0.00099860,-0.
 00043119,0.00016976,0.00008801,-0.00014309,0.00029217,0.00023588,-0.00
 000289,-0.00011788,-0.00234534,0.03807002,0.00112766,0.00155933,-0.007
 04073,-0.00063905,-0.00073088,-0.00090963,0.00023018,-0.00008714,0.000
 42180,0.00080560,-0.00289928,-0.30685509,-0.00030427,0.00046484,0.0005
 0714,-0.00046295,-0.00019594,0.00016745,-0.00007771,-0.00008243,0.0001
 8549,0.00014523,0.00000126,-0.00004612,-0.00009859,0.00469713,0.331992
 06,0.00406318,-0.00858343,0.00446783,0.00001263,0.00082635,0.00049747,
 0.00048544,0.00099353,0.00026114,-0.09413543,0.09828135,-0.03710302,-0
 .00118677,-0.00225212,-0.00135389,-0.00002952,-0.00005279,-0.00003882,
 0.00022607,0.00015872,-0.00013670,-0.00049105,-0.00005817,-0.00005644,
 -0.00118157,-0.00091671,0.00026954,0.10520219,0.01093293,-0.01484089,0
 .00767690,-0.00037459,0.00217737,0.00005853,0.00002439,0.00142404,0.00
 004022,0.11021503,-0.22660143,0.07822372,-0.00305153,-0.00279034,-0.00
 195389,0.00008525,-0.00004732,-0.00010936,0.00022741,0.00021610,-0.000
 24008,-0.00086072,0.00000208,0.00002577,-0.00197147,0.00104759,-0.0015
 6539,-0.11375406,0.23869789,0.00451435,-0.00659634,0.00107570,0.000127
 53,0.00096828,0.00037756,0.00024545,0.00055519,-0.00011431,-0.03712063
 ,0.07018345,-0.06818823,-0.00128054,-0.00161770,-0.00055412,0.00001696
 ,0.00011287,-0.00003134,0.00019020,-0.00001832,-0.00007800,-0.00013285
 ,0.00006442,0.00017427,-0.01469438,0.02727762,-0.00956530,0.04380953,-
 0.08131946,0.07405413,-0.00896426,0.00165553,0.00238058,0.00075364,0.0
 0011925,0.00050750,-0.00093069,-0.00185289,-0.00079102,-0.28554707,-0.
 00602991,0.08048470,0.00037255,0.00005867,0.00000190,0.00035086,0.0000
 4468,0.00005923,-0.00043913,0.00006768,0.00022040,0.00042620,0.0000511
 9,-0.00005952,0.00067840,-0.00021324,-0.00107693,-0.01347677,-0.002088
 91,0.00428991,0.30639859,-0.01601112,0.00029061,0.00509846,0.00092383,
 0.00033636,0.00193547,-0.00259334,-0.00335961,-0.00189123,-0.01928464,
 -0.03751107,0.00976417,0.00121556,0.00087834,0.00016119,0.00077351,0.0
 0002122,-0.00002185,-0.00120665,0.00024155,0.00018357,0.00013888,0.000
 00117,-0.00018809,0.00122107,-0.00164490,-0.00068164,0.02594501,0.0012
 1094,-0.00917951,0.00846714,0.03992316,-0.00744946,0.00080616,-0.00003
 478,0.00058303,-0.00004584,0.00089468,-0.00131386,-0.00174433,-0.00061
 123,0.07272276,0.00483645,-0.06284687,0.00041997,0.00023546,-0.0003099
 2,0.00005825,-0.00002642,0.00014475,-0.00049621,-0.00007389,0.00029985
 ,0.00034224,0.00001724,-0.00005416,0.03170039,0.00189968,-0.00942208,-
 0.01065862,-0.00135082,0.00227936,-0.08594206,-0.00483171,0.06960007,-
 0.00188520,0.00005625,-0.00990748,-0.00039614,0.00128393,-0.00199899,0
 .00057709,-0.00069829,0.00109688,-0.00023844,-0.00120020,0.00128544,-0
 .03878353,-0.00348559,-0.00780158,-0.00073154,0.00042961,0.00016779,0.
 00013697,0.00006264,-0.00015970,0.00015462,0.00006102,0.00022777,0.000
 42181,0.00057967,0.00015305,-0.00017565,-0.00013185,-0.00003341,0.0000
 2490,-0.00005133,0.00006231,0.04139826,-0.00030667,-0.00295291,0.01752
 830,0.00158622,-0.00020851,0.00318747,-0.00148037,0.00075778,-0.001567
 89,0.00018118,0.00263786,-0.00334881,-0.00389427,-0.03553350,0.0189138
 2,0.00099875,-0.00043121,-0.00016983,-0.00023589,-0.00000290,0.0001179
 0,-0.00008800,-0.00014308,-0.00029219,-0.00057969,-0.00193534,-0.00046
 596,0.00032244,0.00030786,-0.00015472,0.00002089,0.00002770,0.00015352
 ,0.00234539,0.03807089,0.00112752,-0.00155887,-0.00703919,-0.00063883,
 0.00073092,-0.00090925,0.00023006,0.00008717,0.00042172,-0.00030424,-0
 .00046463,0.00050676,0.00080497,0.00292600,-0.30685301,-0.00046285,0.0
 0019588,0.00016744,0.00014520,-0.00000125,-0.00004612,-0.00007772,0.00
 008240,0.00018547,0.00015299,0.00046572,0.00041798,-0.00005116,0.00009
 678,0.00019279,-0.00002058,-0.00008287,-0.00004576,-0.00009808,-0.0047
 2610,0.33199121,-0.00896425,-0.00165571,0.00238034,0.00075365,-0.00011
 930,0.00050752,-0.00093069,0.00185294,-0.00079082,0.00037255,-0.000058
 66,0.00000189,-0.28554690,0.00602254,0.08048556,0.00035083,-0.00004468
 ,0.00005923,0.00042621,-0.00005118,-0.00005953,-0.00043912,-0.00006770
 ,0.00022040,0.00002490,-0.00002089,-0.00002058,0.00009833,-0.00004174,
 -0.00012885,0.00025446,0.00034181,0.00007478,0.00067842,0.00021335,-0.
 00107692,0.30639841,0.01601187,0.00029115,-0.00509836,-0.00092387,0.00
 033652,-0.00193557,0.00259347,-0.00335997,0.00189097,-0.00121561,0.000
 87837,-0.00016106,0.01927802,-0.03750970,-0.00976192,-0.00077350,0.000
 02122,0.00002183,-0.00013894,0.00000116,0.00018809,0.00120669,0.000241
 56,-0.00018359,0.00005132,0.00002772,0.00008287,-0.00012025,0.00036629
 ,0.00031228,-0.00034183,-0.00078176,-0.00004636,-0.00122419,-0.0016447
 7,0.00068241,-0.00845930,0.03992224,-0.00744780,-0.00080608,-0.0000354
 2,0.00058289,0.00004580,0.00089453,-0.00131363,0.00174403,-0.00061089,
 0.00041985,-0.00023535,-0.00030995,0.07272495,-0.00483415,-0.06284850,
 0.00005818,0.00002642,0.00014475,0.00034223,-0.00001723,-0.00005414,-0
 .00049608,0.00007389,0.00029984,0.00006232,-0.00015351,-0.00004576,-0.
 00010353,-0.00017081,-0.00009755,0.00007474,0.00004626,0.00020363,0.03
 170025,-0.00189899,-0.00942223,-0.08594319,0.00482899,0.06960126,0.004
 06318,0.00858294,0.00446864,0.00001262,-0.00082638,0.00049739,0.000485
 44,-0.00099354,0.00026104,-0.00118676,0.00225224,-0.00135366,-0.094136
 24,-0.09827828,-0.03711301,-0.00002951,0.00005279,-0.00003882,-0.00049
 105,0.00005817,-0.00005643,0.00022606,-0.00015872,-0.00013672,-0.00017
 565,-0.00032243,-0.00005119,0.00058892,0.00078985,0.00019675,0.0000983
 3,0.00012026,-0.00010352,-0.00118157,0.00091668,0.00026964,-0.01347683
 ,-0.02594389,-0.01066117,0.10520306,-0.01093338,-0.01484083,-0.0076784
 4,0.00037455,0.00217749,-0.00005838,-0.00002444,0.00142410,-0.00004009
 ,0.00305166,-0.00279070,0.00195368,-0.11021194,-0.22658614,-0.07823926
 ,-0.00008526,-0.00004731,0.00010937,0.00086074,0.00000210,-0.00002579,
 -0.00022743,0.00021608,0.00024011,0.00013185,0.00030785,-0.00009677,-0
 .00078987,-0.00117018,-0.00058805,0.00004175,0.00036630,0.00017086,0.0
 0197294,0.00105012,0.00156644,0.00208853,0.00120997,0.00135074,0.11375
 030,0.23868116,0.00451326,0.00659471,0.00107555,0.00012757,-0.00096806
 ,0.00037747,0.00024545,-0.00055504,-0.00011438,-0.00128022,0.00161748,
 -0.00055377,-0.03713180,-0.07019901,-0.06820292,0.00001696,-0.00011287
 ,-0.00003134,-0.00013276,-0.00006444,0.00017426,0.00019018,0.00001835,
 -0.00007797,-0.00003340,0.00015473,0.00019279,0.00019667,0.00058788,0.
 00047503,-0.00012885,-0.00031223,-0.00009756,-0.01469426,-0.02727652,-
 0.00956781,0.00429017,0.00917942,0.00228042,0.04382106,0.08133559,0.07
 407022\\0.00000066,-0.00000001,0.00000206,-0.00000035,0.,-0.00000116,0
 .,0.,-0.00000044,0.00000025,0.00000041,-0.00000128,0.00000024,-0.00000
 040,-0.00000126,0.00000037,0.,0.00000069,-0.00000024,-0.00000033,-0.00
 000029,-0.00000023,0.00000035,-0.00000028,-0.00000012,-0.00000015,0.00
 000093,-0.00000058,0.00000013,0.,0.00000034,-0.00000018,0.00000006,-0.
 00000012,0.00000015,0.00000093,0.00000034,0.00000018,0.00000006,-0.000
 00058,-0.00000013,0.\\\@


     SCHOPENHAUER'S LAW OF ENTROPY
 IF YOU PUT A SPOONFUL OF WINE IN A BARREL FULL
 OF SEWAGE, YOU GET SEWAGE.
 IF YOU PUT A SPOONFUL OF SEWAGE IN A BARREL FULL
 OF WINE, YOU GET SEWAGE.
 Job cpu time:  0 days  2 hours 30 minutes 30.6 seconds.
 File lengths (MBytes):  RWF=    101 Int=      0 D2E=      0 Chk=      8 Scr=      1
 Normal termination of Gaussian 03 at Thu Apr 16 15:31:47 2009.
