 Entering Link 1 = C:\G03W\l1.exe PID=      2224.
  
 Copyright (c) 1988,1990,1992,1993,1995,1998,2003, Gaussian, Inc.
                  All Rights Reserved.
  
 This is the Gaussian(R) 03 program.  It is based on the
 the Gaussian(R) 98 system (copyright 1998, Gaussian, Inc.),
 the Gaussian(R) 94 system (copyright 1995, Gaussian, Inc.),
 the Gaussian 92(TM) system (copyright 1992, Gaussian, Inc.),
 the Gaussian 90(TM) system (copyright 1990, Gaussian, Inc.),
 the Gaussian 88(TM) system (copyright 1988, Gaussian, Inc.),
 the Gaussian 86(TM) system (copyright 1986, Carnegie Mellon
 University), and the Gaussian 82(TM) system (copyright 1983,
 Carnegie Mellon University). Gaussian is a federally registered
 trademark of Gaussian, Inc.
  
 This software contains proprietary and confidential information,
 including trade secrets, belonging to Gaussian, Inc.
  
 This software is provided under written license and may be
 used, copied, transmitted, or stored only in accord with that
 written license.
  
 The following legend is applicable only to US Government
 contracts under DFARS:
  
                    RESTRICTED RIGHTS LEGEND
  
 Use, duplication or disclosure by the US Government is subject
 to restrictions as set forth in subparagraph (c)(1)(ii) of the
 Rights in Technical Data and Computer Software clause at DFARS
 252.227-7013.
  
 Gaussian, Inc.
 Carnegie Office Park, Building 6, Pittsburgh, PA 15106 USA
  
 The following legend is applicable only to US Government
 contracts under FAR:
  
                    RESTRICTED RIGHTS LEGEND
  
 Use, reproduction and disclosure by the US Government is subject
 to restrictions as set forth in subparagraph (c) of the
 Commercial Computer Software - Restricted Rights clause at FAR
 52.227-19.
  
 Gaussian, Inc.
 Carnegie Office Park, Building 6, Pittsburgh, PA 15106 USA
  
  
 ---------------------------------------------------------------
 Warning -- This program may not be used in any manner that
 competes with the business of Gaussian, Inc. or will provide
 assistance to any competitor of Gaussian, Inc.  The licensee
 of this program is prohibited from giving any competitor of
 Gaussian, Inc. access to this program.  By using this program,
 the user acknowledges that Gaussian, Inc. is engaged in the
 business of creating and licensing software in the field of
 computational chemistry and represents and warrants to the
 licensee that it is not a competitor of Gaussian, Inc. and that
 it will not use this program in any manner prohibited above.
 ---------------------------------------------------------------
  

 Cite this work as:
 Gaussian 03, Revision B.05,
 M. J. Frisch, G. W. Trucks, H. B. Schlegel, G. E. Scuseria, 
 M. A. Robb, J. R. Cheeseman, J. A. Montgomery, Jr., T. Vreven, 
 K. N. Kudin, J. C. Burant, J. M. Millam, S. S. Iyengar, J. Tomasi, 
 V. Barone, B. Mennucci, M. Cossi, G. Scalmani, N. Rega, 
 G. A. Petersson, H. Nakatsuji, M. Hada, M. Ehara, K. Toyota, 
 R. Fukuda, J. Hasegawa, M. Ishida, T. Nakajima, Y. Honda, O. Kitao, 
 H. Nakai, M. Klene, X. Li, J. E. Knox, H. P. Hratchian, J. B. Cross, 
 C. Adamo, J. Jaramillo, R. Gomperts, R. E. Stratmann, O. Yazyev, 
 A. J. Austin, R. Cammi, C. Pomelli, J. W. Ochterski, P. Y. Ayala, 
 K. Morokuma, G. A. Voth, P. Salvador, J. J. Dannenberg, 
 V. G. Zakrzewski, S. Dapprich, A. D. Daniels, M. C. Strain, 
 O. Farkas, D. K. Malick, A. D. Rabuck, K. Raghavachari, 
 J. B. Foresman, J. V. Ortiz, Q. Cui, A. G. Baboul, S. Clifford, 
 J. Cioslowski, B. B. Stefanov, G. Liu, A. Liashenko, P. Piskorz, 
 I. Komaromi, R. L. Martin, D. J. Fox, T. Keith, M. A. Al-Laham, 
 C. Y. Peng, A. Nanayakkara, M. Challacombe, P. M. W. Gill, 
 B. Johnson, W. Chen, M. W. Wong, C. Gonzalez, and J. A. Pople, 
 Gaussian, Inc., Pittsburgh PA, 2003.
 
 **********************************************
 Gaussian 03:  x86-Win32-G03RevB.05  8-Nov-2003
                  29-Dec-2006 
 **********************************************
 %mem=36000000
 --------------------
 #MP4/6-311+G(3df,2p)
 --------------------
 1/38=1/1;
 2/17=6,18=5,40=1/2;
 3/5=4,6=6,7=216,11=9,16=1,25=1,30=1/1,2,3;
 4//1;
 5/5=2,38=5/2;
 8/6=4,9=120000,10=2/1,4;
 9/5=5/13;
 6/7=2,8=2,9=2,10=2/1;
 99/5=1,9=1/99;
 ----------------------------------------------------
 oh Hydroxyl radical casno=3352576 method=36 basis=10
 ----------------------------------------------------
 Symbolic Z-matrix:
 Charge =  0 Multiplicity = 2
 O                     0.        0.        0.1065 
 H                     0.        0.       -0.852 
 
                          Input orientation:                          
 ---------------------------------------------------------------------
 Center     Atomic     Atomic              Coordinates (Angstroms)
 Number     Number      Type              X           Y           Z
 ---------------------------------------------------------------------
    1          8             0        0.000000    0.000000    0.106500
    2          1             0        0.000000    0.000000   -0.852000
 ---------------------------------------------------------------------
 Stoichiometry    HO(2)
 Framework group  C*V[C*(HO)]
 Deg. of freedom     1
 Full point group                 C*V     NOp   4
 Largest Abelian subgroup         C2V     NOp   4
 Largest concise Abelian subgroup C1      NOp   1
                         Standard orientation:                         
 ---------------------------------------------------------------------
 Center     Atomic     Atomic              Coordinates (Angstroms)
 Number     Number      Type              X           Y           Z
 ---------------------------------------------------------------------
    1          8             0        0.000000    0.000000    0.106500
    2          1             0        0.000000    0.000000   -0.852000
 ---------------------------------------------------------------------
 Rotational constants (GHZ):      0.0000000    580.2094497    580.2094497
 Standard basis: 6-311+G(3df,2p) (5D, 7F)
 There are    22 symmetry adapted basis functions of A1  symmetry.
 There are     4 symmetry adapted basis functions of A2  symmetry.
 There are    11 symmetry adapted basis functions of B1  symmetry.
 There are    11 symmetry adapted basis functions of B2  symmetry.
 Integral buffers will be    262144 words long.
 Raffenetti 2 integral format.
 Two-electron integral symmetry is turned on.
    48 basis functions,    69 primitive gaussians,    54 cartesian basis functions
     5 alpha electrons        4 beta electrons
       nuclear repulsion energy         4.4167111804 Hartrees.
 NAtoms=    2 NActive=    2 NUniq=    2 SFac= 1.00D+00 NAtFMM=   60 Big=F
 One-electron integrals computed using PRISM.
 NBasis=    48 RedAO= T  NBF=    22     4    11    11
 NBsUse=    48 1.00D-06 NBFU=    22     4    11    11
 Harris functional with IExCor=  205 diagonalized for initial guess.
 ExpMin= 8.45D-02 ExpMax= 8.59D+03 ExpMxC= 1.30D+03 IAcc=2 IRadAn=         4 AccDes= 0.00D+00
 HarFok:  IExCor= 205 AccDes= 0.00D+00 IRadAn=         4 IDoV=1
 ScaDFX=  1.000000  1.000000  1.000000  1.000000
 Initial guess orbital symmetries:
 Alpha Orbitals:
       Occupied  (SG) (SG) (SG) (PI) (PI)
       Virtual   (SG) (SG) (PI) (PI) (SG) (SG) (PI) (PI) (DLTA)
                 (DLTA) (SG) (PI) (PI) (SG) (PI) (PI) (SG) (SG)
                 (SG) (PI) (PI) (DLTA) (DLTA) (SG) (PI) (PI) (SG)
                 (PI) (PI) (DLTA) (DLTA) (PHI) (PHI) (SG) (PI)
                 (PI) (SG) (DLTA) (DLTA) (PI) (PI) (SG) (SG)
 Beta  Orbitals:
       Occupied  (SG) (SG) (SG) (PI)
       Virtual   (PI) (SG) (SG) (PI) (PI) (SG) (SG) (PI) (PI) (DLTA)
                 (DLTA) (SG) (PI) (PI) (SG) (PI) (PI) (SG) (SG)
                 (SG) (PI) (PI) (DLTA) (DLTA) (SG) (PI) (PI) (SG)
                 (PI) (PI) (DLTA) (DLTA) (PHI) (PHI) (SG) (PI)
                 (PI) (SG) (DLTA) (DLTA) (PI) (PI) (SG) (SG)
 <S**2> of initial guess= 0.7500
 Requested convergence on RMS density matrix=1.00D-08 within 128 cycles.
 Requested convergence on MAX density matrix=1.00D-06.
 Requested convergence on             energy=1.00D-06.
 No special actions if energy rises.
 Keep R1 and R2 integrals in memory in canonical form, NReq=     3455581.
 SCF Done:  E(UHF) =  -75.4186235436     A.U. after   12 cycles
             Convg  =    0.3529D-08             -V/T =  2.0003
             S**2   =   0.7568
 Annihilation of the first spin contaminant:
 S**2 before annihilation     0.7568,   after     0.7500
 ExpMin= 8.45D-02 ExpMax= 8.59D+03 ExpMxC= 1.30D+03 IAcc=3 IRadAn=         5 AccDes= 0.00D+00
 HarFok:  IExCor= 205 AccDes= 0.00D+00 IRadAn=         5 IDoV=1
 ScaDFX=  1.000000  1.000000  1.000000  1.000000
 Range of M.O.s used for correlation:     2    48
 NBasis=    48 NAE=     5 NBE=     4 NFC=     1 NFV=     0
 NROrb=     47 NOA=     4 NOB=     3 NVA=    43 NVB=    44

 **** Warning!!: The largest alpha MO coefficient is  0.11051433D+02


 **** Warning!!: The largest beta MO coefficient is  0.11135129D+02

 Spin components of T(2) and E(2):
     alpha-alpha T2 =       0.7169295955D-02 E2=     -0.3219680198D-01
     alpha-beta  T2 =       0.3362843070D-01 E2=     -0.1517965625D+00
     beta-beta   T2 =       0.3651895881D-02 E2=     -0.1485634864D-01
 ANorm=    0.1021983181D+01
 E2=       -0.1988497131D+00 EUMP2=       -0.75617473256652D+02
 (S**2,0)=  0.75675D+00           (S**2,1)=  0.75118D+00
 E(PUHF)=      -0.75421900537D+02        E(PMP2)=      -0.75619401070D+02
 R2 and R3 integrals will be kept in memory, NReq=     3346710.
 DD1Dir will call FoFMem   1 times, MxPair=        34
 NAB=    12 NAA=     6 NBB=     3.
 E(PMP3)=      -0.75630428232D+02
 MP4(D)= -0.33118966D-02
 MP4(S)= -0.11925111D-02
 MP4(R+Q)=  0.30231025D-02
 Time for triples=        3.00 seconds.
 MP4(T)=   -0.50841793D-02
 E3=       -0.11853897D-01        EUMP3=      -0.75629327154D+02
 E4(DQ)=   -0.28879419D-03        UMP4(DQ)=   -0.75629615948D+02
 E4(SDQ)=  -0.14813053D-02        UMP4(SDQ)=  -0.75630808459D+02
 E4(SDTQ)= -0.65654845D-02        UMP4(SDTQ)= -0.75635892638D+02
 Largest amplitude= 3.25D-02

 S**2, projected HF & approx projected MPn energies after annihilation of
 unwanted spin states (see manual for definitions):

 spins       (S**2,0) (S**2,1)    PUHF        PMP2        PMP3        PMP4
 annihilated
 s+1         0.74998  0.75001  -75.421901  -75.619401  -75.630428  -75.636994
 s+1,s+2     0.75000  0.75000  -75.421895  -75.619396  -75.630423  -75.636989
 s+1 to s+3  0.75000  0.75000  -75.421895  -75.619396  -75.630423  -75.636989


 **********************************************************************

            Population analysis using the SCF density.

 **********************************************************************

 Orbital symmetries:
 Alpha Orbitals:
       Occupied  (SG) (SG) (SG) (PI) (PI)
       Virtual   (SG) (PI) (SG) (PI) (SG) (SG) (PI) (PI) (?A) (?A)
                 (?A) (?B) (?A) (?B) (?B) (?B) (SG) (SG) (SG) (PI)
                 (PI) (?C) (?C) (?C) (PI) (PI) (SG) (?D) (?E) (?E)
                 (?D) (?D) (?D) (?E) (PI) (PI) (SG) (?F) (?F) (PI)
                 (PI) (?F) (SG)
 Beta  Orbitals:
       Occupied  (SG) (SG) (SG) (?A)
       Virtual   (?A) (SG) (SG) (?A) (SG) (?A) (SG) (PI) (PI) (?B)
                 (?B) (?B) (SG) (?A) (?A) (?A) (?A) (SG) (SG) (SG)
                 (PI) (PI) (?C) (?C) (?C) (PI) (PI) (SG) (?D) (?D)
                 (?E) (?E) (?E) (?E) (?D) (PI) (PI) (SG) (DLTA)
                 (DLTA) (PI) (PI) (SG) (SG)
 Unable to determine electronic state:  an orbital has unidentified symmetry.
 Alpha  occ. eigenvalues --  -20.63986  -1.39345  -0.68719  -0.65962  -0.56285
 Alpha virt. eigenvalues --    0.14741   0.22361   0.22954   0.23880   0.27675
 Alpha virt. eigenvalues --    0.63637   0.80178   0.82472   0.93067   0.93200
 Alpha virt. eigenvalues --    1.03576   1.16568   1.20715   1.21404   1.30532
 Alpha virt. eigenvalues --    1.33030   1.56997   1.85005   2.89380   3.37884
 Alpha virt. eigenvalues --    3.42354   3.63966   3.65423   3.70779   4.30659
 Alpha virt. eigenvalues --    4.34122   5.08920   5.37015   5.38593   5.39043
 Alpha virt. eigenvalues --    5.39483   5.41913   5.47128   5.67510   5.92030
 Alpha virt. eigenvalues --    5.96949   7.41043  14.86697  14.86911  14.92473
 Alpha virt. eigenvalues --   14.98571  15.45778  51.48707
  Beta  occ. eigenvalues --  -20.59950  -1.23596  -0.64311  -0.51470
  Beta virt. eigenvalues --    0.07149   0.15628   0.23402   0.24302   0.27845
  Beta virt. eigenvalues --    0.30664   0.64897   0.82296   0.83585   0.97064
  Beta virt. eigenvalues --    0.97101   1.04943   1.22465   1.22991   1.28570
  Beta virt. eigenvalues --    1.33297   1.34830   1.60376   1.86070   2.89891
  Beta virt. eigenvalues --    3.43357   3.45104   3.71794   3.76042   3.76455
  Beta virt. eigenvalues --    4.34694   4.35158   5.10379   5.43346   5.43390
  Beta virt. eigenvalues --    5.46091   5.46207   5.49035   5.52364   5.70321
  Beta virt. eigenvalues --    5.96539   5.97797   7.42571  14.94281  14.94284
  Beta virt. eigenvalues --   14.99828  15.00375  15.49236  51.51012
          Condensed to atoms (all electrons):
              1          2
     1  O    8.090744   0.157102
     2  H    0.157102   0.595051
 Mulliken atomic charges:
              1
     1  O   -0.247847
     2  H    0.247847
 Sum of Mulliken charges=   0.00000
 Atomic charges with hydrogens summed into heavy atoms:
              1
     1  O    0.000000
     2  H    0.000000
 Sum of Mulliken charges=   0.00000
          Atomic-Atomic Spin Densities.
              1          2
     1  O    1.039707   0.018225
     2  H    0.018225  -0.076158
 Mulliken atomic spin densities:
              1
     1  O    1.057932
     2  H   -0.057932
 Sum of Mulliken spin densities=   1.00000
 Electronic spatial extent (au):  <R**2>=    15.3144
 Charge=     0.0000 electrons
 Dipole moment (field-independent basis, Debye):
    X=     0.0000    Y=     0.0000    Z=    -1.7684  Tot=     1.7684
 Quadrupole moment (field-independent basis, Debye-Ang):
   XX=    -6.7387   YY=    -5.3973   ZZ=    -4.5398
   XY=     0.0000   XZ=     0.0000   YZ=     0.0000
 Traceless Quadrupole moment (field-independent basis, Debye-Ang):
   XX=    -1.1801   YY=     0.1613   ZZ=     1.0188
   XY=     0.0000   XZ=     0.0000   YZ=     0.0000
 Octapole moment (field-independent basis, Debye-Ang**2):
  XXX=     0.0000  YYY=     0.0000  ZZZ=    -2.0733  XYY=     0.0000
  XXY=     0.0000  XXZ=    -0.2610  XZZ=     0.0000  YZZ=     0.0000
  YYZ=    -0.1785  XYZ=     0.0000
 Hexadecapole moment (field-independent basis, Debye-Ang**3):
 XXXX=    -5.7336 YYYY=    -3.6974 ZZZZ=    -5.1991 XXXY=     0.0000
 XXXZ=     0.0000 YYYX=     0.0000 YYYZ=     0.0000 ZZZX=     0.0000
 ZZZY=     0.0000 XXYY=    -1.5713 XXZZ=    -2.0897 YYZZ=    -1.7269
 XXYZ=     0.0000 YYXZ=     0.0000 ZZXY=     0.0000
 N-N= 4.416711180386D+00 E-N=-1.881304857672D+02  KE= 7.539604501194D+01
 Symmetry A1   KE= 6.820596981998D+01
 Symmetry A2   KE= 9.550410874674D-35
 Symmetry B1   KE= 4.677598375322D+00
 Symmetry B2   KE= 2.512476816639D+00
 1|1|UNPC-UNK|SP|UMP4SDTQ-FC|6-311+G(3df,2p)|H1O1(2)|PCUSER|29-Dec-2006
 |0||#MP4/6-311+G(3DF,2P)||oh Hydroxyl radical casno=3352576 method=36 
 basis=10||0,2|O,0,0.,0.,0.1065|H,0,0.,0.,-0.852||Version=x86-Win32-G03
 RevB.05|HF=-75.4186235|MP2=-75.6174733|MP3=-75.6293272|MP4D=-75.632639
 1|MP4DQ=-75.6296159|MP4SDQ=-75.6308085|MP4SDTQ=-75.6358926|PUHF=-75.42
 19005|PMP2-0=-75.6194011|PMP3-0=-75.6304282|S2=0.756753|S2-1=0.751179|
 S2A=0.750028|RMSD=3.529e-009|PG=C*V [C*(H1O1)]||@


 The hours that make us happy make us wise.
                         -- John Masefield
 Job cpu time:  0 days  0 hours  0 minutes 14.0 seconds.
 File lengths (MBytes):  RWF=     21 Int=      0 D2E=      0 Chk=      7 Scr=      1
 Normal termination of Gaussian 03 at Fri Dec 29 16:38:03 2006.