 Entering Gaussian System, Link 0=g09
 Initial command:
 /usr/local/Cluster-Apps/gaussian/g09/l1.exe "/rds/user/am2145/hpc-work/scratch/26034830/Gau-4164.inp" -scrdir="/rds/user/am2145/hpc-work/scratch/26034830/"
 Entering Link 1 = /usr/local/Cluster-Apps/gaussian/g09/l1.exe PID=      4165.
  
 Copyright (c) 1988,1990,1992,1993,1995,1998,2003,2009,2013,
            Gaussian, Inc.  All Rights Reserved.
  
 This is part of the Gaussian(R) 09 program.  It is based on
 the Gaussian(R) 03 system (copyright 2003, Gaussian, Inc.),
 the Gaussian(R) 98 system (copyright 1998, Gaussian, Inc.),
 the Gaussian(R) 94 system (copyright 1995, Gaussian, Inc.),
 the Gaussian 92(TM) system (copyright 1992, Gaussian, Inc.),
 the Gaussian 90(TM) system (copyright 1990, Gaussian, Inc.),
 the Gaussian 88(TM) system (copyright 1988, Gaussian, Inc.),
 the Gaussian 86(TM) system (copyright 1986, Carnegie Mellon
 University), and the Gaussian 82(TM) system (copyright 1983,
 Carnegie Mellon University). Gaussian is a federally registered
 trademark of Gaussian, Inc.
  
 This software contains proprietary and confidential information,
 including trade secrets, belonging to Gaussian, Inc.
  
 This software is provided under written license and may be
 used, copied, transmitted, or stored only in accord with that
 written license.
  
 The following legend is applicable only to US Government
 contracts under FAR:
  
                    RESTRICTED RIGHTS LEGEND
  
 Use, reproduction and disclosure by the US Government is
 subject to restrictions as set forth in subparagraphs (a)
 and (c) of the Commercial Computer Software - Restricted
 Rights clause in FAR 52.227-19.
  
 Gaussian, Inc.
 340 Quinnipiac St., Bldg. 40, Wallingford CT 06492
  
  
 ---------------------------------------------------------------
 Warning -- This program may not be used in any manner that
 competes with the business of Gaussian, Inc. or will provide
 assistance to any competitor of Gaussian, Inc.  The licensee
 of this program is prohibited from giving any competitor of
 Gaussian, Inc. access to this program.  By using this program,
 the user acknowledges that Gaussian, Inc. is engaged in the
 business of creating and licensing software in the field of
 computational chemistry and represents and warrants to the
 licensee that it is not a competitor of Gaussian, Inc. and that
 it will not use this program in any manner prohibited above.
 ---------------------------------------------------------------
  

 Cite this work as:
 Gaussian 09, Revision D.01,
 M. J. Frisch, G. W. Trucks, H. B. Schlegel, G. E. Scuseria, 
 M. A. Robb, J. R. Cheeseman, G. Scalmani, V. Barone, B. Mennucci, 
 G. A. Petersson, H. Nakatsuji, M. Caricato, X. Li, H. P. Hratchian, 
 A. F. Izmaylov, J. Bloino, G. Zheng, J. L. Sonnenberg, M. Hada, 
 M. Ehara, K. Toyota, R. Fukuda, J. Hasegawa, M. Ishida, T. Nakajima, 
 Y. Honda, O. Kitao, H. Nakai, T. Vreven, J. A. Montgomery, Jr., 
 J. E. Peralta, F. Ogliaro, M. Bearpark, J. J. Heyd, E. Brothers, 
 K. N. Kudin, V. N. Staroverov, T. Keith, R. Kobayashi, J. Normand, 
 K. Raghavachari, A. Rendell, J. C. Burant, S. S. Iyengar, J. Tomasi, 
 M. Cossi, N. Rega, J. M. Millam, M. Klene, J. E. Knox, J. B. Cross, 
 V. Bakken, C. Adamo, J. Jaramillo, R. Gomperts, R. E. Stratmann, 
 O. Yazyev, A. J. Austin, R. Cammi, C. Pomelli, J. W. Ochterski, 
 R. L. Martin, K. Morokuma, V. G. Zakrzewski, G. A. Voth, 
 P. Salvador, J. J. Dannenberg, S. Dapprich, A. D. Daniels, 
 O. Farkas, J. B. Foresman, J. V. Ortiz, J. Cioslowski, 
 and D. J. Fox, Gaussian, Inc., Wallingford CT, 2013.
 
 ******************************************
 Gaussian 09:  ES64L-G09RevD.01 24-Apr-2013
                16-Jul-2020 
 ******************************************
 %NProcShared=20
 Will use up to   20 processors via shared memory.
 %mem=64GB
 %Chk=co2_backup.chk
 ----------
 #n CBS-QB3
 ----------
 1/14=-1,18=20,19=15,26=3,38=1/1,3;
 2/9=110,12=2,17=6,18=5,40=1/2;
 3/5=4,6=6,7=700,11=2,16=1,25=1,30=1,71=1,74=-5/1,2,3;
 4//1;
 5/5=2,38=5/2;
 6/7=2,8=2,9=2,10=2,28=1/1;
 7//1,2,3,16;
 1/14=-1,18=20,19=15,26=3/3(2);
 2/9=110/2;
 99//99;
 2/9=110/2;
 3/5=4,6=6,7=700,11=2,16=1,25=1,30=1,71=1,74=-5/1,2,3;
 4/5=5,16=3,69=1/1;
 5/5=2,38=5/2;
 7//1,2,3,16;
 1/14=-1,18=20,19=15,26=3/3(-5);
 2/9=110/2;
 6/7=2,8=2,9=2,10=2,19=2,28=1/1;
 99/9=1/99;
 ----------
 co2_backup
 ----------
 Symbolic Z-matrix:
 Charge =  0 Multiplicity = 1
 C                    -3.55536  -0.51345   0. 
 O                    -4.65534  -0.52079   0. 
 O                    -2.45539  -0.50613   0. 
 

 GradGradGradGradGradGradGradGradGradGradGradGradGradGradGradGradGradGrad
 Berny optimization.
 Initialization pass.
                           ----------------------------
                           !    Initial Parameters    !
                           ! (Angstroms and Degrees)  !
 --------------------------                            --------------------------
 ! Name  Definition              Value          Derivative Info.                !
 --------------------------------------------------------------------------------
 ! R1    R(1,2)                  1.1            estimate D2E/DX2                !
 ! R2    R(1,3)                  1.1            estimate D2E/DX2                !
 ! A1    L(2,1,3,-3,-1)        180.001          estimate D2E/DX2                !
 ! A2    L(2,1,3,-2,-2)        180.0            estimate D2E/DX2                !
 --------------------------------------------------------------------------------
 Trust Radius=3.00D-01 FncErr=1.00D-07 GrdErr=1.00D-06
 Number of steps in this run=     20 maximum allowed number of steps=    100.
 GradGradGradGradGradGradGradGradGradGradGradGradGradGradGradGradGradGrad

                          Input orientation:                          
 ---------------------------------------------------------------------
 Center     Atomic      Atomic             Coordinates (Angstroms)
 Number     Number       Type             X           Y           Z
 ---------------------------------------------------------------------
      1          6           0       -3.555360   -0.513450    0.000000
      2          8           0       -4.655340   -0.520790    0.000000
      3          8           0       -2.455390   -0.506130    0.000000
 ---------------------------------------------------------------------
                    Distance matrix (angstroms):
                    1          2          3
     1  C    0.000000
     2  O    1.100004   0.000000
     3  O    1.099994   2.199999   0.000000
 Stoichiometry    CO2
 Framework group  C*V[C*(OCO)]
 Deg. of freedom     2
 Full point group                 C*V     NOp   4
 Largest Abelian subgroup         C2V     NOp   4
 Largest concise Abelian subgroup C1      NOp   1
                         Standard orientation:                         
 ---------------------------------------------------------------------
 Center     Atomic      Atomic             Coordinates (Angstroms)
 Number     Number       Type             X           Y           Z
 ---------------------------------------------------------------------
      1          6           0        0.000000    0.000000   -0.000004
      2          8           0        0.000000    0.000000    1.100001
      3          8           0        0.000000    0.000000   -1.099998
 ---------------------------------------------------------------------
 Rotational constants (GHZ):      0.0000000     13.0563072     13.0563072
 Standard basis: 6-311G(2d,d,p) (5D, 7F)
 There are    30 symmetry adapted cartesian basis functions of A1  symmetry.
 There are     3 symmetry adapted cartesian basis functions of A2  symmetry.
 There are    12 symmetry adapted cartesian basis functions of B1  symmetry.
 There are    12 symmetry adapted cartesian basis functions of B2  symmetry.
 There are    27 symmetry adapted basis functions of A1  symmetry.
 There are     3 symmetry adapted basis functions of A2  symmetry.
 There are    12 symmetry adapted basis functions of B1  symmetry.
 There are    12 symmetry adapted basis functions of B2  symmetry.
    54 basis functions,    96 primitive gaussians,    57 cartesian basis functions
    11 alpha electrons       11 beta electrons
       nuclear repulsion energy        61.5770166006 Hartrees.
 NAtoms=    3 NActive=    3 NUniq=    3 SFac= 1.00D+00 NAtFMM=   60 NAOKFM=F Big=F
 Integral buffers will be    131072 words long.
 Raffenetti 2 integral format.
 Two-electron integral symmetry is turned on.
 One-electron integrals computed using PRISM.
 NBasis=    54 RedAO= T EigKep=  1.44D-02  NBF=    27     3    12    12
 NBsUse=    54 1.00D-06 EigRej= -1.00D+00 NBFU=    27     3    12    12
 ExpMin= 1.46D-01 ExpMax= 8.59D+03 ExpMxC= 1.30D+03 IAcc=1 IRadAn=         1 AccDes= 0.00D+00
 Harris functional with IExCor=  402 and IRadAn=       1 diagonalized for initial guess.
 HarFok:  IExCor=  402 AccDes= 0.00D+00 IRadAn=         1 IDoV= 1 UseB2=F ITyADJ=14
 ICtDFT=  3500011 ScaDFX=  1.000000  1.000000  1.000000  1.000000
 FoFCou: FMM=F IPFlag=           0 FMFlag=      100000 FMFlg1=           0
         NFxFlg=           0 DoJE=T BraDBF=F KetDBF=T FulRan=T
         wScrn=  0.000000 ICntrl=     500 IOpCl=  0 I1Cent=   200000004 NGrid=           0
         NMat0=    1 NMatS0=      1 NMatT0=    0 NMatD0=    1 NMtDS0=    0 NMtDT0=    0
 Petite list used in FoFCou.
 Initial guess orbital symmetries:
       Occupied  (SG) (SG) (SG) (SG) (SG) (SG) (SG) (PI) (PI) (PI)
                 (PI)
       Virtual   (PI) (PI) (SG) (SG) (PI) (PI) (SG) (SG) (SG) (PI)
                 (PI) (PI) (PI) (SG) (DLTA) (DLTA) (SG) (PI) (PI)
                 (SG) (PI) (PI) (DLTA) (DLTA) (SG) (DLTA) (DLTA)
                 (SG) (PI) (PI) (SG) (SG) (PI) (PI) (PI) (PI) (PI)
                 (PI) (SG) (SG) (SG) (SG) (SG)
 The electronic state of the initial guess is 1-SG.
 Keep R1 ints in memory in symmetry-blocked form, NReq=2015246.
 Requested convergence on RMS density matrix=1.00D-08 within 128 cycles.
 Requested convergence on MAX density matrix=1.00D-06.
 Requested convergence on             energy=1.00D-06.
 No special actions if energy rises.
 Integral accuracy reduced to 1.0D-05 until final iterations.
 Initial convergence to 1.0D-05 achieved.  Increase integral accuracy.
 SCF Done:  E(RB3LYP) =  -188.623901331     A.U. after   11 cycles
            NFock= 11  Conv=0.11D-08     -V/T= 1.9992

 **********************************************************************

            Population analysis using the SCF density.

 **********************************************************************

 Orbital symmetries:
       Occupied  (SG) (SG) (SG) (SG) (SG) (SG) (PI) (PI) (SG) (PI)
                 (PI)
       Virtual   (PI) (PI) (SG) (SG) (PI) (PI) (SG) (SG) (SG) (PI)
                 (PI) (PI) (PI) (DLTA) (DLTA) (SG) (SG) (PI) (PI)
                 (SG) (PI) (PI) (DLTA) (DLTA) (SG) (DLTA) (DLTA)
                 (SG) (PI) (PI) (SG) (SG) (PI) (PI) (PI) (PI) (PI)
                 (PI) (SG) (SG) (SG) (SG) (SG)
 The electronic state is 1-SG.
 Alpha  occ. eigenvalues --  -19.18784 -19.18783 -10.33490  -1.19480  -1.15771
 Alpha  occ. eigenvalues --   -0.55448  -0.54411  -0.54411  -0.52578  -0.37802
 Alpha  occ. eigenvalues --   -0.37802
 Alpha virt. eigenvalues --    0.07544   0.07544   0.08741   0.30194   0.34388
 Alpha virt. eigenvalues --    0.34388   0.55968   0.65234   0.68228   0.74713
 Alpha virt. eigenvalues --    0.74713   0.93854   0.93854   1.17891   1.17892
 Alpha virt. eigenvalues --    1.19550   1.26814   1.45188   1.45188   1.53430
 Alpha virt. eigenvalues --    2.47177   2.47177   2.73090   2.73090   2.80942
 Alpha virt. eigenvalues --    2.88220   2.88220   3.06165   3.09254   3.09254
 Alpha virt. eigenvalues --    3.59648   3.66322   3.73124   3.73124   4.85163
 Alpha virt. eigenvalues --    4.85163   5.02547   5.02547   5.42459   5.84181
 Alpha virt. eigenvalues --   24.70123  49.85080  50.21193
          Condensed to atoms (all electrons):
               1          2          3
     1  C    4.109496   0.702364   0.702370
     2  O    0.702364   7.607793  -0.067268
     3  O    0.702370  -0.067268   7.607779
 Mulliken charges:
               1
     1  C    0.485770
     2  O   -0.242889
     3  O   -0.242881
 Sum of Mulliken charges =   0.00000
 Mulliken charges with hydrogens summed into heavy atoms:
               1
     1  C    0.485770
     2  O   -0.242889
     3  O   -0.242881
 Electronic spatial extent (au):  <R**2>=            104.4372
 Charge=              0.0000 electrons
 Dipole moment (field-independent basis, Debye):
    X=              0.0000    Y=              0.0000    Z=             -0.0001  Tot=              0.0001
 Quadrupole moment (field-independent basis, Debye-Ang):
   XX=            -14.2555   YY=            -14.2555   ZZ=            -18.9707
   XY=              0.0000   XZ=              0.0000   YZ=              0.0000
 Traceless Quadrupole moment (field-independent basis, Debye-Ang):
   XX=              1.5718   YY=              1.5718   ZZ=             -3.1435
   XY=              0.0000   XZ=              0.0000   YZ=              0.0000
 Octapole moment (field-independent basis, Debye-Ang**2):
  XXX=              0.0000  YYY=              0.0000  ZZZ=             -0.0001  XYY=              0.0000
  XXY=              0.0000  XXZ=              0.0000  XZZ=              0.0000  YZZ=              0.0000
  YYZ=              0.0000  XYZ=              0.0000
 Hexadecapole moment (field-independent basis, Debye-Ang**3):
 XXXX=            -10.4142 YYYY=            -10.4142 ZZZZ=            -92.5844 XXXY=              0.0000
 XXXZ=              0.0000 YYYX=              0.0000 YYYZ=              0.0000 ZZZX=              0.0000
 ZZZY=              0.0000 XXYY=             -3.4714 XXZZ=            -16.5003 YYZZ=            -16.5003
 XXYZ=              0.0000 YYXZ=              0.0000 ZZXY=              0.0000
 N-N= 6.157701660058D+01 E-N=-5.680005372022D+02  KE= 1.887722737114D+02
 Symmetry A1   KE= 1.713015514699D+02
 Symmetry A2   KE= 5.674259878978D-36
 Symmetry B1   KE= 8.735361120786D+00
 Symmetry B2   KE= 8.735361120786D+00
 Calling FoFJK, ICntrl=      2127 FMM=F ISym2X=1 I1Cent= 0 IOpClX= 0 NMat=1 NMatS=1 NMatT=0.
 ***** Axes restored to original set *****
 -------------------------------------------------------------------
 Center     Atomic                   Forces (Hartrees/Bohr)
 Number     Number              X              Y              Z
 -------------------------------------------------------------------
      1        6          -0.000028947   -0.000000193    0.000000000
      2        8          -0.161869225   -0.001078662    0.000000000
      3        8           0.161898172    0.001078855    0.000000000
 -------------------------------------------------------------------
 Cartesian Forces:  Max     0.161898172 RMS     0.076314402

 GradGradGradGradGradGradGradGradGradGradGradGradGradGradGradGradGradGrad
 Berny optimization.
 FormGI is forming the generalized inverse of G from B-inverse, IUseBI=4.
 Internal  Forces:  Max     0.161901766 RMS     0.114471603
 Search for a local minimum.
 Step number   1 out of a maximum of   20
 All quantities printed in internal units (Hartrees-Bohrs-Radians)
 Mixed Optimization -- RFO/linear search
 Second derivative matrix not updated -- first step.
 The second derivative matrix:
                          R1        R2        A1        A2
           R1           1.76715
           R2           0.00000   1.76725
           A1           0.00000   0.00000   0.05660
           A2           0.00000   0.00000   0.00000   0.05660
 ITU=  0
     Eigenvalues ---    0.05660   0.05660   1.76715   1.76725
 RFO step:  Lambda=-2.91781092D-02 EMin= 5.66027984D-02
 Linear search not attempted -- first point.
 Iteration  1 RMS(Cart)=  0.06372347 RMS(Int)=  0.00000000
 Iteration  2 RMS(Cart)=  0.00000000 RMS(Int)=  0.00000001
 ClnCor:  largest displacement from symmetrization is 8.02D-10 for atom     1.
 Variable       Old X    -DE/DX   Delta X   Delta X   Delta X     New X
                                 (Linear)    (Quad)   (Total)
    R1        2.07871   0.16187   0.00000   0.09011   0.09011   2.16882
    R2        2.07869   0.16190   0.00000   0.09012   0.09012   2.16881
    A1        3.14159   0.00000   0.00000   0.00000   0.00000   3.14159
    A2        3.14159   0.00000   0.00000   0.00000   0.00000   3.14159
         Item               Value     Threshold  Converged?
 Maximum Force            0.161902     0.000450     NO 
 RMS     Force            0.114472     0.000300     NO 
 Maximum Displacement     0.090118     0.001800     NO 
 RMS     Displacement     0.063723     0.001200     NO 
 Predicted change in Energy=-1.482602D-02
 GradGradGradGradGradGradGradGradGradGradGradGradGradGradGradGradGradGrad

                          Input orientation:                          
 ---------------------------------------------------------------------
 Center     Atomic      Atomic             Coordinates (Angstroms)
 Number     Number       Type             X           Y           Z
 ---------------------------------------------------------------------
      1          6           0       -3.555362   -0.513457    0.000000
      2          8           0       -4.703027   -0.521105    0.000000
      3          8           0       -2.407701   -0.505809    0.000000
 ---------------------------------------------------------------------
                    Distance matrix (angstroms):
                    1          2          3
     1  C    0.000000
     2  O    1.147690   0.000000
     3  O    1.147686   2.295376   0.000000
 Stoichiometry    CO2
 Framework group  C*V[C*(OCO)]
 Deg. of freedom     2
 Full point group                 C*V     NOp   4
 Largest Abelian subgroup         C2V     NOp   4
 Largest concise Abelian subgroup C1      NOp   1
                         Standard orientation:                         
 ---------------------------------------------------------------------
 Center     Atomic      Atomic             Coordinates (Angstroms)
 Number     Number       Type             X           Y           Z
 ---------------------------------------------------------------------
      1          6           0        0.000000    0.000000   -0.000002
      2          8           0        0.000000    0.000000    1.147689
      3          8           0        0.000000    0.000000   -1.147688
 ---------------------------------------------------------------------
 Rotational constants (GHZ):      0.0000000     11.9938191     11.9938191
 Standard basis: 6-311G(2d,d,p) (5D, 7F)
 There are    30 symmetry adapted cartesian basis functions of A1  symmetry.
 There are     3 symmetry adapted cartesian basis functions of A2  symmetry.
 There are    12 symmetry adapted cartesian basis functions of B1  symmetry.
 There are    12 symmetry adapted cartesian basis functions of B2  symmetry.
 There are    27 symmetry adapted basis functions of A1  symmetry.
 There are     3 symmetry adapted basis functions of A2  symmetry.
 There are    12 symmetry adapted basis functions of B1  symmetry.
 There are    12 symmetry adapted basis functions of B2  symmetry.
    54 basis functions,    96 primitive gaussians,    57 cartesian basis functions
    11 alpha electrons       11 beta electrons
       nuclear repulsion energy        59.0183700119 Hartrees.
 NAtoms=    3 NActive=    3 NUniq=    3 SFac= 1.00D+00 NAtFMM=   60 NAOKFM=F Big=F
 Integral buffers will be    131072 words long.
 Raffenetti 2 integral format.
 Two-electron integral symmetry is turned on.
 One-electron integrals computed using PRISM.
 NBasis=    54 RedAO= T EigKep=  1.59D-02  NBF=    27     3    12    12
 NBsUse=    54 1.00D-06 EigRej= -1.00D+00 NBFU=    27     3    12    12
 Initial guess from the checkpoint file:  "co2_backup.chk"
 B after Tr=     0.000000    0.000000    0.000000
         Rot=    1.000000    0.000000    0.000000    0.000000 Ang=   0.00 deg.
 Initial guess orbital symmetries:
       Occupied  (SG) (SG) (SG) (SG) (SG) (SG) (PI) (PI) (SG) (PI)
                 (PI)
       Virtual   (SG) (SG) (SG) (SG) (SG) (SG) (SG) (SG) (SG) (DLTA)
                 (SG) (DLTA) (DLTA) (SG) (SG) (SG) (SG) (SG) (SG)
                 (SG) (DLTA) (DLTA) (DLTA) (PI) (PI) (PI) (PI)
                 (PI) (PI) (PI) (PI) (PI) (PI) (PI) (PI) (PI) (PI)
                 (PI) (PI) (PI) (PI) (PI) (PI)
 ExpMin= 1.46D-01 ExpMax= 8.59D+03 ExpMxC= 1.30D+03 IAcc=1 IRadAn=         1 AccDes= 0.00D+00
 Harris functional with IExCor=  402 and IRadAn=       1 diagonalized for initial guess.
 HarFok:  IExCor=  402 AccDes= 0.00D+00 IRadAn=         1 IDoV= 1 UseB2=F ITyADJ=14
 ICtDFT=  3500011 ScaDFX=  1.000000  1.000000  1.000000  1.000000
 FoFCou: FMM=F IPFlag=           0 FMFlag=      100000 FMFlg1=           0
         NFxFlg=           0 DoJE=T BraDBF=F KetDBF=T FulRan=T
         wScrn=  0.000000 ICntrl=     500 IOpCl=  0 I1Cent=   200000004 NGrid=           0
         NMat0=    1 NMatS0=      1 NMatT0=    0 NMatD0=    1 NMtDS0=    0 NMtDT0=    0
 Petite list used in FoFCou.
 Keep R1 ints in memory in symmetry-blocked form, NReq=2015246.
 Requested convergence on RMS density matrix=1.00D-08 within 128 cycles.
 Requested convergence on MAX density matrix=1.00D-06.
 Requested convergence on             energy=1.00D-06.
 No special actions if energy rises.
 Integral accuracy reduced to 1.0D-05 until final iterations.
 Initial convergence to 1.0D-05 achieved.  Increase integral accuracy.
 SCF Done:  E(RB3LYP) =  -188.640453448     A.U. after   11 cycles
            NFock= 11  Conv=0.72D-08     -V/T= 2.0020
 Calling FoFJK, ICntrl=      2127 FMM=F ISym2X=1 I1Cent= 0 IOpClX= 0 NMat=1 NMatS=1 NMatT=0.
 ***** Axes restored to original set *****
 -------------------------------------------------------------------
 Center     Atomic                   Forces (Hartrees/Bohr)
 Number     Number              X              Y              Z
 -------------------------------------------------------------------
      1        6          -0.000008788   -0.000000059    0.000000000
      2        8          -0.028854936   -0.000192283    0.000000000
      3        8           0.028863724    0.000192342    0.000000000
 -------------------------------------------------------------------
 Cartesian Forces:  Max     0.028863724 RMS     0.013604721

 GradGradGradGradGradGradGradGradGradGradGradGradGradGradGradGradGradGrad
 Berny optimization.
 Using GEDIIS/GDIIS optimizer.
 Internal  Forces:  Max     0.028864365 RMS     0.020407081
 Search for a local minimum.
 Step number   2 out of a maximum of   20
 All quantities printed in internal units (Hartrees-Bohrs-Radians)
 Mixed Optimization -- RFO/linear search
 Update second derivatives using D2CorX and points    1    2
 DE= -1.66D-02 DEPred=-1.48D-02 R= 1.12D+00
 TightC=F SS=  1.41D+00  RLast= 1.27D-01 DXNew= 5.0454D-01 3.8234D-01
 Trust test= 1.12D+00 RLast= 1.27D-01 DXMaxT set to 3.82D-01
 The second derivative matrix:
                          R1        R2        A1        A2
           R1           1.62167
           R2          -0.14553   1.62167
           A1           0.00000   0.00000   0.05660
           A2           0.00000   0.00000   0.00000   0.05660
 ITU=  1  0
 Use linear search instead of GDIIS.
     Eigenvalues ---    0.05660   0.05660   1.47614   1.76720
 RFO step:  Lambda= 0.00000000D+00 EMin= 5.66027984D-02
 Quartic linear search produced a step of  0.26925.
 Iteration  1 RMS(Cart)=  0.01715773 RMS(Int)=  0.00000001
 Iteration  2 RMS(Cart)=  0.00000001 RMS(Int)=  0.00000001
 ClnCor:  largest displacement from symmetrization is 1.53D-08 for atom     1.
 Variable       Old X    -DE/DX   Delta X   Delta X   Delta X     New X
                                 (Linear)    (Quad)   (Total)
    R1        2.16882   0.02886   0.02426   0.00000   0.02426   2.19308
    R2        2.16881   0.02886   0.02427   0.00000   0.02427   2.19308
    A1        3.14159   0.00000   0.00000   0.00000   0.00000   3.14159
    A2        3.14159   0.00000   0.00000   0.00000   0.00000   3.14159
         Item               Value     Threshold  Converged?
 Maximum Force            0.028864     0.000450     NO 
 RMS     Force            0.020407     0.000300     NO 
 Maximum Displacement     0.024265     0.001800     NO 
 RMS     Displacement     0.017158     0.001200     NO 
 Predicted change in Energy=-5.314441D-04
 GradGradGradGradGradGradGradGradGradGradGradGradGradGradGradGradGradGrad

                          Input orientation:                          
 ---------------------------------------------------------------------
 Center     Atomic      Atomic             Coordinates (Angstroms)
 Number     Number       Type             X           Y           Z
 ---------------------------------------------------------------------
      1          6           0       -3.555363   -0.513457    0.000000
      2          8           0       -4.715866   -0.521191    0.000000
      3          8           0       -2.394861   -0.505724    0.000000
 ---------------------------------------------------------------------
                    Distance matrix (angstroms):
                    1          2          3
     1  C    0.000000
     2  O    1.160529   0.000000
     3  O    1.160528   2.321057   0.000000
 Stoichiometry    CO2
 Framework group  C*V[C*(OCO)]
 Deg. of freedom     2
 Full point group                 C*V     NOp   4
 Largest Abelian subgroup         C2V     NOp   4
 Largest concise Abelian subgroup C1      NOp   1
                         Standard orientation:                         
 ---------------------------------------------------------------------
 Center     Atomic      Atomic             Coordinates (Angstroms)
 Number     Number       Type             X           Y           Z
 ---------------------------------------------------------------------
      1          6           0        0.000000    0.000000   -0.000001
      2          8           0        0.000000    0.000000    1.160529
      3          8           0        0.000000    0.000000   -1.160528
 ---------------------------------------------------------------------
 Rotational constants (GHZ):      0.0000000     11.7298833     11.7298833
 Standard basis: 6-311G(2d,d,p) (5D, 7F)
 There are    30 symmetry adapted cartesian basis functions of A1  symmetry.
 There are     3 symmetry adapted cartesian basis functions of A2  symmetry.
 There are    12 symmetry adapted cartesian basis functions of B1  symmetry.
 There are    12 symmetry adapted cartesian basis functions of B2  symmetry.
 There are    27 symmetry adapted basis functions of A1  symmetry.
 There are     3 symmetry adapted basis functions of A2  symmetry.
 There are    12 symmetry adapted basis functions of B1  symmetry.
 There are    12 symmetry adapted basis functions of B2  symmetry.
    54 basis functions,    96 primitive gaussians,    57 cartesian basis functions
    11 alpha electrons       11 beta electrons
       nuclear repulsion energy        58.3653788450 Hartrees.
 NAtoms=    3 NActive=    3 NUniq=    3 SFac= 1.00D+00 NAtFMM=   60 NAOKFM=F Big=F
 Integral buffers will be    131072 words long.
 Raffenetti 2 integral format.
 Two-electron integral symmetry is turned on.
 One-electron integrals computed using PRISM.
 NBasis=    54 RedAO= T EigKep=  1.63D-02  NBF=    27     3    12    12
 NBsUse=    54 1.00D-06 EigRej= -1.00D+00 NBFU=    27     3    12    12
 Initial guess from the checkpoint file:  "co2_backup.chk"
 B after Tr=     0.000000    0.000000    0.000000
         Rot=    1.000000    0.000000    0.000000    0.000000 Ang=   0.00 deg.
 Initial guess orbital symmetries:
       Occupied  (SG) (SG) (SG) (SG) (SG) (SG) (PI) (PI) (SG) (PI)
                 (PI)
       Virtual   (SG) (SG) (SG) (SG) (SG) (SG) (SG) (SG) (SG) (DLTA)
                 (SG) (DLTA) (DLTA) (SG) (SG) (SG) (SG) (SG) (SG)
                 (SG) (DLTA) (DLTA) (DLTA) (PI) (PI) (PI) (PI)
                 (PI) (PI) (PI) (PI) (PI) (PI) (PI) (PI) (PI) (PI)
                 (PI) (PI) (PI) (PI) (PI) (PI)
 ExpMin= 1.46D-01 ExpMax= 8.59D+03 ExpMxC= 1.30D+03 IAcc=1 IRadAn=         1 AccDes= 0.00D+00
 Harris functional with IExCor=  402 and IRadAn=       1 diagonalized for initial guess.
 HarFok:  IExCor=  402 AccDes= 0.00D+00 IRadAn=         1 IDoV= 1 UseB2=F ITyADJ=14
 ICtDFT=  3500011 ScaDFX=  1.000000  1.000000  1.000000  1.000000
 FoFCou: FMM=F IPFlag=           0 FMFlag=      100000 FMFlg1=           0
         NFxFlg=           0 DoJE=T BraDBF=F KetDBF=T FulRan=T
         wScrn=  0.000000 ICntrl=     500 IOpCl=  0 I1Cent=   200000004 NGrid=           0
         NMat0=    1 NMatS0=      1 NMatT0=    0 NMatD0=    1 NMtDS0=    0 NMtDT0=    0
 Petite list used in FoFCou.
 Keep R1 ints in memory in symmetry-blocked form, NReq=2015246.
 Requested convergence on RMS density matrix=1.00D-08 within 128 cycles.
 Requested convergence on MAX density matrix=1.00D-06.
 Requested convergence on             energy=1.00D-06.
 No special actions if energy rises.
 Integral accuracy reduced to 1.0D-05 until final iterations.
 Initial convergence to 1.0D-05 achieved.  Increase integral accuracy.
 SCF Done:  E(RB3LYP) =  -188.641138764     A.U. after   10 cycles
            NFock= 10  Conv=0.34D-08     -V/T= 2.0026
 Calling FoFJK, ICntrl=      2127 FMM=F ISym2X=1 I1Cent= 0 IOpClX= 0 NMat=1 NMatS=1 NMatT=0.
 ***** Axes restored to original set *****
 -------------------------------------------------------------------
 Center     Atomic                   Forces (Hartrees/Bohr)
 Number     Number              X              Y              Z
 -------------------------------------------------------------------
      1        6          -0.000002761   -0.000000018    0.000000000
      2        8           0.000187016    0.000001246    0.000000000
      3        8          -0.000184255   -0.000001228    0.000000000
 -------------------------------------------------------------------
 Cartesian Forces:  Max     0.000187016 RMS     0.000087518

 GradGradGradGradGradGradGradGradGradGradGradGradGradGradGradGradGradGrad
 Berny optimization.
 Using GEDIIS/GDIIS optimizer.
 Internal  Forces:  Max     0.000187020 RMS     0.000131270
 Search for a local minimum.
 Step number   3 out of a maximum of   20
 All quantities printed in internal units (Hartrees-Bohrs-Radians)
 Mixed Optimization -- En-DIIS/RFO-DIIS
 Update second derivatives using D2CorX and points    1    2    3
 DE= -6.85D-04 DEPred=-5.31D-04 R= 1.29D+00
 TightC=F SS=  1.41D+00  RLast= 3.43D-02 DXNew= 6.4302D-01 1.0295D-01
 Trust test= 1.29D+00 RLast= 3.43D-02 DXMaxT set to 3.82D-01
 The second derivative matrix:
                          R1        R2        A1        A2
           R1           1.48219
           R2          -0.28509   1.48205
           A1           0.00000   0.00000   0.05660
           A2           0.00000   0.00000   0.00000   0.05660
 ITU=  1  1  0
 Use linear search instead of GDIIS.
     Eigenvalues ---    0.05660   0.05660   1.19703   1.76720
 RFO step:  Lambda= 0.00000000D+00 EMin= 5.66027984D-02
 Quartic linear search produced a step of -0.00668.
 Iteration  1 RMS(Cart)=  0.00011470 RMS(Int)=  0.00000001
 Iteration  2 RMS(Cart)=  0.00000001 RMS(Int)=  0.00000001
 ClnCor:  largest displacement from symmetrization is 2.18D-08 for atom     1.
 Variable       Old X    -DE/DX   Delta X   Delta X   Delta X     New X
                                 (Linear)    (Quad)   (Total)
    R1        2.19308  -0.00019  -0.00016   0.00000  -0.00016   2.19292
    R2        2.19308  -0.00018  -0.00016   0.00000  -0.00016   2.19292
    A1        3.14159   0.00000   0.00000   0.00000   0.00000   3.14159
    A2        3.14159   0.00000   0.00000   0.00000   0.00000   3.14159
         Item               Value     Threshold  Converged?
 Maximum Force            0.000187     0.000450     YES
 RMS     Force            0.000131     0.000300     YES
 Maximum Displacement     0.000162     0.001800     YES
 RMS     Displacement     0.000115     0.001200     YES
 Predicted change in Energy=-2.872989D-08
 Optimization completed.
    -- Stationary point found.
                           ----------------------------
                           !   Optimized Parameters   !
                           ! (Angstroms and Degrees)  !
 --------------------------                            --------------------------
 ! Name  Definition              Value          Derivative Info.                !
 --------------------------------------------------------------------------------
 ! R1    R(1,2)                  1.1605         -DE/DX =   -0.0002              !
 ! R2    R(1,3)                  1.1605         -DE/DX =   -0.0002              !
 ! A1    L(2,1,3,-3,-1)        180.0            -DE/DX =    0.0                 !
 ! A2    L(2,1,3,-2,-2)        180.0            -DE/DX =    0.0                 !
 --------------------------------------------------------------------------------
 GradGradGradGradGradGradGradGradGradGradGradGradGradGradGradGradGradGrad

                          Input orientation:                          
 ---------------------------------------------------------------------
 Center     Atomic      Atomic             Coordinates (Angstroms)
 Number     Number       Type             X           Y           Z
 ---------------------------------------------------------------------
      1          6           0       -3.555363   -0.513457    0.000000
      2          8           0       -4.715866   -0.521191    0.000000
      3          8           0       -2.394861   -0.505724    0.000000
 ---------------------------------------------------------------------
                    Distance matrix (angstroms):
                    1          2          3
     1  C    0.000000
     2  O    1.160529   0.000000
     3  O    1.160528   2.321057   0.000000
 Stoichiometry    CO2
 Framework group  C*V[C*(OCO)]
 Deg. of freedom     2
 Full point group                 C*V     NOp   4
 Largest Abelian subgroup         C2V     NOp   4
 Largest concise Abelian subgroup C1      NOp   1
                         Standard orientation:                         
 ---------------------------------------------------------------------
 Center     Atomic      Atomic             Coordinates (Angstroms)
 Number     Number       Type             X           Y           Z
 ---------------------------------------------------------------------
      1          6           0        0.000000    0.000000   -0.000001
      2          8           0        0.000000    0.000000    1.160529
      3          8           0        0.000000    0.000000   -1.160528
 ---------------------------------------------------------------------
 Rotational constants (GHZ):      0.0000000     11.7298833     11.7298833

 **********************************************************************

            Population analysis using the SCF density.

 **********************************************************************

 Orbital symmetries:
       Occupied  (SG) (SG) (SG) (SG) (SG) (SG) (SG) (PI) (PI) (PI)
                 (PI)
       Virtual   (PI) (PI) (SG) (SG) (PI) (PI) (SG) (SG) (SG) (PI)
                 (PI) (PI) (PI) (SG) (DLTA) (DLTA) (SG) (PI) (PI)
                 (SG) (PI) (PI) (SG) (DLTA) (DLTA) (DLTA) (DLTA)
                 (PI) (PI) (SG) (SG) (SG) (PI) (PI) (PI) (PI) (PI)
                 (PI) (SG) (SG) (SG) (SG) (SG)
 The electronic state is 1-SG.
 Alpha  occ. eigenvalues --  -19.20314 -19.20314 -10.36037  -1.16819  -1.12898
 Alpha  occ. eigenvalues --   -0.56616  -0.52440  -0.52194  -0.52194  -0.37686
 Alpha  occ. eigenvalues --   -0.37686
 Alpha virt. eigenvalues --    0.02943   0.02943   0.06533   0.30326   0.35071
 Alpha virt. eigenvalues --    0.35071   0.49015   0.63685   0.69098   0.74700
 Alpha virt. eigenvalues --    0.74700   0.92379   0.92379   1.01052   1.18567
 Alpha virt. eigenvalues --    1.18568   1.25608   1.38351   1.38351   1.54354
 Alpha virt. eigenvalues --    2.43363   2.43363   2.61408   2.73543   2.73543
 Alpha virt. eigenvalues --    2.84576   2.84576   3.05673   3.05673   3.13345
 Alpha virt. eigenvalues --    3.55707   3.59155   3.61390   3.61390   4.82648
 Alpha virt. eigenvalues --    4.82648   4.90924   4.90924   5.43016   5.59343
 Alpha virt. eigenvalues --   24.35123  49.81173  50.03039
          Condensed to atoms (all electrons):
               1          2          3
     1  C    4.209695   0.646774   0.646775
     2  O    0.646774   7.653272  -0.051668
     3  O    0.646775  -0.051668   7.653270
 Mulliken charges:
               1
     1  C    0.496756
     2  O   -0.248378
     3  O   -0.248377
 Sum of Mulliken charges =   0.00000
 Mulliken charges with hydrogens summed into heavy atoms:
               1
     1  C    0.496756
     2  O   -0.248378
     3  O   -0.248377
 Electronic spatial extent (au):  <R**2>=            112.9195
 Charge=              0.0000 electrons
 Dipole moment (field-independent basis, Debye):
    X=              0.0000    Y=              0.0000    Z=              0.0000  Tot=              0.0000
 Quadrupole moment (field-independent basis, Debye-Ang):
   XX=            -14.5663   YY=            -14.5663   ZZ=            -19.2428
   XY=              0.0000   XZ=              0.0000   YZ=              0.0000
 Traceless Quadrupole moment (field-independent basis, Debye-Ang):
   XX=              1.5588   YY=              1.5588   ZZ=             -3.1177
   XY=              0.0000   XZ=              0.0000   YZ=              0.0000
 Octapole moment (field-independent basis, Debye-Ang**2):
  XXX=              0.0000  YYY=              0.0000  ZZZ=              0.0000  XYY=              0.0000
  XXY=              0.0000  XXZ=              0.0000  XZZ=              0.0000  YZZ=              0.0000
  YYZ=              0.0000  XYZ=              0.0000
 Hexadecapole moment (field-independent basis, Debye-Ang**3):
 XXXX=            -10.8958 YYYY=            -10.8958 ZZZZ=           -101.5577 XXXY=              0.0000
 XXXZ=              0.0000 YYYX=              0.0000 YYYZ=              0.0000 ZZZX=              0.0000
 ZZZY=              0.0000 XXYY=             -3.6319 XXZZ=            -18.1354 YYZZ=            -18.1354
 XXYZ=              0.0000 YYXZ=              0.0000 ZZXY=              0.0000
 N-N= 5.836537884499D+01 E-N=-5.611342488881D+02  KE= 1.881511316081D+02
 Symmetry A1   KE= 1.708398463257D+02
 Symmetry A2   KE= 2.248076800643D-34
 Symmetry B1   KE= 8.655642641213D+00
 Symmetry B2   KE= 8.655642641213D+00
 1\1\GINC-CPU-G-22\FOpt\RB3LYP\6-311G(2d,d,p)\C1O2\AM2145\16-Jul-2020\0
 \\#n CBS-QB3\\co2_backup\\0,1\C,-3.555362832,-0.5134572674,0.\O,-4.715
 8662625,-0.521190616,0.\O,-2.3948608934,-0.5057239287,0.\\Version=ES64
 L-G09RevD.01\State=1-SG\HF=-188.6411388\RMSD=3.416e-09\RMSF=8.752e-05\
 Dipole=0.0000033,0.,0.\Quadrupole=-2.3177601,1.1588029,1.1589573,-0.02
 31681,0.,0.\PG=C*V [C*(O1C1O1)]\\@


 SIGN SEEN IN A RESTAURANT-
 WE RESERVE THE RIGHT TO SERVE REFUSE TO ANYONE.
 Job cpu time:       0 days  0 hours 11 minutes 21.5 seconds.
 File lengths (MBytes):  RWF=      5 Int=      0 D2E=      0 Chk=      1 Scr=      1
 Normal termination of Gaussian 09 at Thu Jul 16 13:03:48 2020.
 Link1:  Proceeding to internal job step number  2.
 ---------------------------------------------------------
 #N Geom=AllCheck Guess=TCheck SCRF=Check B3LYP/CBSB7 Freq
 ---------------------------------------------------------
 1/10=4,29=7,30=1,38=1,40=1/1,3;
 2/12=2,40=1/2;
 3/5=4,6=6,7=700,11=2,14=-4,16=1,25=1,30=1,70=2,71=2,74=-5,116=-2,140=1/1,2,3;
 4/5=101/1;
 5/5=2,98=1/2;
 8/6=4,10=90,11=11/1;
 11/6=1,8=1,9=11,15=111,16=1/1,2,10;
 10/6=1/2;
 6/7=2,8=2,9=2,10=2,18=1,28=1/1;
 7/8=1,10=1,25=1/1,2,3,16;
 1/10=4,30=1/3;
 99//99;
 Structure from the checkpoint file:  "co2_backup.chk"
 ----------
 co2_backup
 ----------
 Charge =  0 Multiplicity = 1
 Redundant internal coordinates found in file.
 C,0,-3.555362832,-0.5134572674,0.
 O,0,-4.7158662625,-0.521190616,0.
 O,0,-2.3948608934,-0.5057239287,0.
 Recover connectivity data from disk.

 GradGradGradGradGradGradGradGradGradGradGradGradGradGradGradGradGradGrad
 Berny optimization.
 Initialization pass.
                           ----------------------------
                           !    Initial Parameters    !
                           ! (Angstroms and Degrees)  !
 --------------------------                            --------------------------
 ! Name  Definition              Value          Derivative Info.                !
 --------------------------------------------------------------------------------
 ! R1    R(1,2)                  1.1605         calculate D2E/DX2 analytically  !
 ! R2    R(1,3)                  1.1605         calculate D2E/DX2 analytically  !
 ! A1    L(2,1,3,-3,-1)        180.0            calculate D2E/DX2 analytically  !
 ! A2    L(2,1,3,-2,-2)        180.0            calculate D2E/DX2 analytically  !
 --------------------------------------------------------------------------------
 Trust Radius=3.00D-01 FncErr=1.00D-07 GrdErr=1.00D-07
 Number of steps in this run=      2 maximum allowed number of steps=      2.
 GradGradGradGradGradGradGradGradGradGradGradGradGradGradGradGradGradGrad

                          Input orientation:                          
 ---------------------------------------------------------------------
 Center     Atomic      Atomic             Coordinates (Angstroms)
 Number     Number       Type             X           Y           Z
 ---------------------------------------------------------------------
      1          6           0       -3.555363   -0.513457    0.000000
      2          8           0       -4.715866   -0.521191    0.000000
      3          8           0       -2.394861   -0.505724    0.000000
 ---------------------------------------------------------------------
                    Distance matrix (angstroms):
                    1          2          3
     1  C    0.000000
     2  O    1.160529   0.000000
     3  O    1.160528   2.321057   0.000000
 Stoichiometry    CO2
 Framework group  C*V[C*(OCO)]
 Deg. of freedom     2
 Full point group                 C*V     NOp   4
 Largest Abelian subgroup         C2V     NOp   4
 Largest concise Abelian subgroup C1      NOp   1
                         Standard orientation:                         
 ---------------------------------------------------------------------
 Center     Atomic      Atomic             Coordinates (Angstroms)
 Number     Number       Type             X           Y           Z
 ---------------------------------------------------------------------
      1          6           0        0.000000    0.000000   -0.000001
      2          8           0        0.000000    0.000000    1.160529
      3          8           0        0.000000    0.000000   -1.160528
 ---------------------------------------------------------------------
 Rotational constants (GHZ):      0.0000000     11.7298833     11.7298833
 Standard basis: 6-311G(2d,d,p) (5D, 7F)
 There are    30 symmetry adapted cartesian basis functions of A1  symmetry.
 There are     3 symmetry adapted cartesian basis functions of A2  symmetry.
 There are    12 symmetry adapted cartesian basis functions of B1  symmetry.
 There are    12 symmetry adapted cartesian basis functions of B2  symmetry.
 There are    27 symmetry adapted basis functions of A1  symmetry.
 There are     3 symmetry adapted basis functions of A2  symmetry.
 There are    12 symmetry adapted basis functions of B1  symmetry.
 There are    12 symmetry adapted basis functions of B2  symmetry.
    54 basis functions,    96 primitive gaussians,    57 cartesian basis functions
    11 alpha electrons       11 beta electrons
       nuclear repulsion energy        58.3653788450 Hartrees.
 NAtoms=    3 NActive=    3 NUniq=    3 SFac= 1.00D+00 NAtFMM=   60 NAOKFM=F Big=F
 Integral buffers will be    131072 words long.
 Raffenetti 2 integral format.
 Two-electron integral symmetry is turned on.
 One-electron integrals computed using PRISM.
 NBasis=    54 RedAO= T EigKep=  1.63D-02  NBF=    27     3    12    12
 NBsUse=    54 1.00D-06 EigRej= -1.00D+00 NBFU=    27     3    12    12
 Initial guess from the checkpoint file:  "co2_backup.chk"
 B after Tr=     0.000000    0.000000    0.000000
         Rot=    1.000000    0.000000    0.000000    0.000000 Ang=   0.00 deg.
 Initial guess orbital symmetries:
       Occupied  (SG) (SG) (SG) (SG) (SG) (SG) (SG) (PI) (PI) (PI)
                 (PI)
       Virtual   (PI) (PI) (SG) (SG) (PI) (PI) (SG) (SG) (SG) (PI)
                 (PI) (PI) (PI) (SG) (DLTA) (DLTA) (SG) (PI) (PI)
                 (SG) (PI) (PI) (SG) (DLTA) (DLTA) (DLTA) (DLTA)
                 (PI) (PI) (SG) (SG) (SG) (PI) (PI) (PI) (PI) (PI)
                 (PI) (SG) (SG) (SG) (SG) (SG)
 Keep R1 ints in memory in symmetry-blocked form, NReq=2015246.
 Requested convergence on RMS density matrix=1.00D-08 within 128 cycles.
 Requested convergence on MAX density matrix=1.00D-06.
 Requested convergence on             energy=1.00D-06.
 No special actions if energy rises.
 SCF Done:  E(RB3LYP) =  -188.641138764     A.U. after    1 cycles
            NFock=  1  Conv=0.91D-09     -V/T= 2.0026
 DoSCS=F DFT=T ScalE2(SS,OS)=  1.000000  1.000000
 Range of M.O.s used for correlation:     1    54
 NBasis=    54 NAE=    11 NBE=    11 NFC=     0 NFV=     0
 NROrb=     54 NOA=    11 NOB=    11 NVA=    43 NVB=    43
 Symmetrizing basis deriv contribution to polar:
 IMax=3 JMax=2 DiffMx= 0.00D+00
 G2DrvN: will do     4 centers at a time, making    1 passes.
 Calling FoFCou, ICntrl=  3107 FMM=F I1Cent=   0 AccDes= 0.00D+00.
 End of G2Drv F.D. properties file   721 does not exist.
 End of G2Drv F.D. properties file   722 does not exist.
 End of G2Drv F.D. properties file   788 does not exist.
          IDoAtm=111
          Differentiating once with respect to electric field.
                with respect to dipole field.
          Differentiating once with respect to nuclear coordinates.
 Keep R1 ints in memory in symmetry-blocked form, NReq=1985139.
          There are    12 degrees of freedom in the 1st order CPHF.  IDoFFX=6 NUNeed=     3.
      9 vectors produced by pass  0 Test12= 3.94D-15 8.33D-09 XBig12= 2.50D+01 3.35D+00.
 AX will form     9 AO Fock derivatives at one time.
      9 vectors produced by pass  1 Test12= 3.94D-15 8.33D-09 XBig12= 1.01D+01 1.46D+00.
      9 vectors produced by pass  2 Test12= 3.94D-15 8.33D-09 XBig12= 3.61D-02 6.85D-02.
      9 vectors produced by pass  3 Test12= 3.94D-15 8.33D-09 XBig12= 1.58D-04 4.55D-03.
      9 vectors produced by pass  4 Test12= 3.94D-15 8.33D-09 XBig12= 3.70D-07 1.90D-04.
      7 vectors produced by pass  5 Test12= 3.94D-15 8.33D-09 XBig12= 1.82D-09 1.78D-05.
      2 vectors produced by pass  6 Test12= 3.94D-15 8.33D-09 XBig12= 2.90D-11 2.64D-06.
      1 vectors produced by pass  7 Test12= 3.94D-15 8.33D-09 XBig12= 1.02D-13 9.54D-08.
 InvSVY:  IOpt=1 It=  1 EMax= 4.44D-16
 Solved reduced A of dimension    55 with     9 vectors.
 Isotropic polarizability for W=    0.000000       12.60 Bohr**3.
 End of Minotr F.D. properties file   721 does not exist.
 End of Minotr F.D. properties file   722 does not exist.
 End of Minotr F.D. properties file   788 does not exist.

 **********************************************************************

            Population analysis using the SCF density.

 **********************************************************************

 Orbital symmetries:
       Occupied  (SG) (SG) (SG) (SG) (SG) (SG) (SG) (PI) (PI) (PI)
                 (PI)
       Virtual   (PI) (PI) (SG) (SG) (PI) (PI) (SG) (SG) (SG) (PI)
                 (PI) (PI) (PI) (SG) (DLTA) (DLTA) (SG) (PI) (PI)
                 (SG) (PI) (PI) (SG) (DLTA) (DLTA) (DLTA) (DLTA)
                 (PI) (PI) (SG) (SG) (SG) (PI) (PI) (PI) (PI) (PI)
                 (PI) (SG) (SG) (SG) (SG) (SG)
 The electronic state is 1-SG.
 Alpha  occ. eigenvalues --  -19.20314 -19.20314 -10.36037  -1.16819  -1.12898
 Alpha  occ. eigenvalues --   -0.56616  -0.52440  -0.52194  -0.52194  -0.37686
 Alpha  occ. eigenvalues --   -0.37686
 Alpha virt. eigenvalues --    0.02943   0.02943   0.06533   0.30326   0.35071
 Alpha virt. eigenvalues --    0.35071   0.49015   0.63685   0.69098   0.74700
 Alpha virt. eigenvalues --    0.74700   0.92379   0.92379   1.01052   1.18567
 Alpha virt. eigenvalues --    1.18568   1.25608   1.38351   1.38351   1.54354
 Alpha virt. eigenvalues --    2.43363   2.43363   2.61408   2.73543   2.73543
 Alpha virt. eigenvalues --    2.84576   2.84576   3.05673   3.05673   3.13345
 Alpha virt. eigenvalues --    3.55707   3.59155   3.61390   3.61390   4.82648
 Alpha virt. eigenvalues --    4.82648   4.90924   4.90924   5.43016   5.59343
 Alpha virt. eigenvalues --   24.35123  49.81173  50.03039
          Condensed to atoms (all electrons):
               1          2          3
     1  C    4.209695   0.646774   0.646775
     2  O    0.646774   7.653272  -0.051668
     3  O    0.646775  -0.051668   7.653270
 Mulliken charges:
               1
     1  C    0.496756
     2  O   -0.248379
     3  O   -0.248377
 Sum of Mulliken charges =   0.00000
 Mulliken charges with hydrogens summed into heavy atoms:
               1
     1  C    0.496756
     2  O   -0.248379
     3  O   -0.248377
 APT charges:
               1
     1  C    1.145454
     2  O   -0.572727
     3  O   -0.572727
 Sum of APT charges =   0.00000
 APT charges with hydrogens summed into heavy atoms:
               1
     1  C    1.145454
     2  O   -0.572727
     3  O   -0.572727
 Electronic spatial extent (au):  <R**2>=            112.9195
 Charge=              0.0000 electrons
 Dipole moment (field-independent basis, Debye):
    X=              0.0000    Y=              0.0000    Z=              0.0000  Tot=              0.0000
 Quadrupole moment (field-independent basis, Debye-Ang):
   XX=            -14.5663   YY=            -14.5663   ZZ=            -19.2428
   XY=              0.0000   XZ=              0.0000   YZ=              0.0000
 Traceless Quadrupole moment (field-independent basis, Debye-Ang):
   XX=              1.5588   YY=              1.5588   ZZ=             -3.1177
   XY=              0.0000   XZ=              0.0000   YZ=              0.0000
 Octapole moment (field-independent basis, Debye-Ang**2):
  XXX=              0.0000  YYY=              0.0000  ZZZ=              0.0000  XYY=              0.0000
  XXY=              0.0000  XXZ=              0.0000  XZZ=              0.0000  YZZ=              0.0000
  YYZ=              0.0000  XYZ=              0.0000
 Hexadecapole moment (field-independent basis, Debye-Ang**3):
 XXXX=            -10.8958 YYYY=            -10.8958 ZZZZ=           -101.5577 XXXY=              0.0000
 XXXZ=              0.0000 YYYX=              0.0000 YYYZ=              0.0000 ZZZX=              0.0000
 ZZZY=              0.0000 XXYY=             -3.6319 XXZZ=            -18.1354 YYZZ=            -18.1354
 XXYZ=              0.0000 YYXZ=              0.0000 ZZXY=              0.0000
 N-N= 5.836537884499D+01 E-N=-5.611342481386D+02  KE= 1.881511312825D+02
 Symmetry A1   KE= 1.708398461318D+02
 Symmetry A2   KE= 8.315078095101D-35
 Symmetry B1   KE= 8.655642575338D+00
 Symmetry B2   KE= 8.655642575338D+00
  Exact polarizability:   7.742   0.000   7.742   0.000   0.000  22.323
 Approx polarizability:   9.619   0.000   9.619   0.000   0.000  45.297
 Calling FoFJK, ICntrl=    100127 FMM=F ISym2X=1 I1Cent= 0 IOpClX= 0 NMat=1 NMatS=1 NMatT=0.
 Full mass-weighted force constant matrix:
 Low frequencies ---   -0.0016   -0.0016    0.0002   14.3728   14.3728  666.8738
 Low frequencies ---  666.8738 1374.9931 2434.8919
 Diagonal vibrational polarizability:
        1.9839178       1.9839178       2.8073139
 Harmonic frequencies (cm**-1), IR intensities (KM/Mole), Raman scattering
 activities (A**4/AMU), depolarization ratios for plane and unpolarized
 incident light, reduced masses (AMU), force constants (mDyne/A),
 and normal coordinates:
                      1                      2                      3
                     PI                     PI                     SG
 Frequencies --    666.8738               666.8738              1374.9931
 Red. masses --     12.8774                12.8774                15.9949
 Frc consts  --      3.3742                 3.3742                17.8169
 IR Inten    --     32.7852                32.7852                 0.0000
  Atom  AN      X      Y      Z        X      Y      Z        X      Y      Z
     1   6    -0.35   0.81   0.00     0.81   0.35   0.00     0.00   0.00   0.00
     2   8     0.13  -0.30   0.00    -0.30  -0.13   0.00     0.00   0.00   0.71
     3   8     0.13  -0.30   0.00    -0.30  -0.13   0.00     0.00   0.00  -0.71
                      4
                     SG
 Frequencies --   2434.8919
 Red. masses --     12.8774
 Frc consts  --     44.9818
 IR Inten    --    618.4680
  Atom  AN      X      Y      Z
     1   6     0.00   0.00   0.88
     2   8     0.00   0.00  -0.33
     3   8     0.00   0.00  -0.33

 -------------------
 - Thermochemistry -
 -------------------
 Temperature   298.150 Kelvin.  Pressure   1.00000 Atm.
 Atom     1 has atomic number  6 and mass  12.00000
 Atom     2 has atomic number  8 and mass  15.99491
 Atom     3 has atomic number  8 and mass  15.99491
 Molecular mass:    43.98983 amu.
 Principal axes and moments of inertia in atomic units:
                           1         2         3
     Eigenvalues --     0.00000 153.85841 153.85841
           X            0.00000   0.99999  -0.00465
           Y            0.00000   0.00465   0.99999
           Z            1.00000   0.00000   0.00000
 This molecule is a prolate symmetric top.
 Rotational symmetry number  1.
 Rotational temperature (Kelvin)      0.56294
 Rotational constant (GHZ):          11.729883
 Zero-point vibrational energy      30765.8 (Joules/Mol)
                                    7.35319 (Kcal/Mol)
 Vibrational temperatures:    959.48   959.48  1978.31  3503.26
          (Kelvin)
 
 Zero-point correction=                           0.011718 (Hartree/Particle)
 Thermal correction to Energy=                    0.014340
 Thermal correction to Enthalpy=                  0.015284
 Thermal correction to Gibbs Free Energy=        -0.009630
 Sum of electronic and zero-point Energies=           -188.629421
 Sum of electronic and thermal Energies=              -188.626799
 Sum of electronic and thermal Enthalpies=            -188.625854
 Sum of electronic and thermal Free Energies=         -188.650769
 
                     E (Thermal)             CV                S
                      KCal/Mol        Cal/Mol-Kelvin    Cal/Mol-Kelvin
 Total                    8.999              6.873             52.437
 Electronic               0.000              0.000              0.000
 Translational            0.889              2.981             37.270
 Rotational               0.592              1.987             14.451
 Vibrational              7.517              1.905              0.716
                       Q            Log10(Q)             Ln(Q)
 Total Bot       0.268900D+05          4.429591         10.199510
 Total V=0       0.659951D+10          9.819512         22.610261
 Vib (Bot)       0.442730D-05         -5.353862        -12.327722
 Vib (V=0)       0.108657D+01          0.036059          0.083029
 Electronic      0.100000D+01          0.000000          0.000000
 Translational   0.114679D+08          7.059484         16.255062
 Rotational      0.529626D+03          2.723969          6.272170
 ***** Axes restored to original set *****
 -------------------------------------------------------------------
 Center     Atomic                   Forces (Hartrees/Bohr)
 Number     Number              X              Y              Z
 -------------------------------------------------------------------
      1        6          -0.000002757   -0.000000018    0.000000000
      2        8           0.000187047    0.000001246    0.000000000
      3        8          -0.000184290   -0.000001228    0.000000000
 -------------------------------------------------------------------
 Cartesian Forces:  Max     0.000187047 RMS     0.000087534
 FormGI is forming the generalized inverse of G from B-inverse, IUseBI=4.

 GradGradGradGradGradGradGradGradGradGradGradGradGradGradGradGradGradGrad
 Berny optimization.
 Internal  Forces:  Max     0.000187051 RMS     0.000131294
 Search for a local minimum.
 Step number   1 out of a maximum of    2
 All quantities printed in internal units (Hartrees-Bohrs-Radians)
 Second derivative matrix not updated -- analytic derivatives used.
 The second derivative matrix:
                          R1        R2        A1        A2
           R1           1.06167
           R2           0.08272   1.06168
           A1           0.00000   0.00000   0.17639
           A2           0.00000   0.00000   0.00000   0.17638
 ITU=  0
     Eigenvalues ---    0.17638   0.17639   0.97895   1.14439
 Angle between quadratic step and forces=   0.07 degrees.
 Linear search not attempted -- first point.
 Iteration  1 RMS(Cart)=  0.00011473 RMS(Int)=  0.00000001
 Iteration  2 RMS(Cart)=  0.00000001 RMS(Int)=  0.00000000
 ClnCor:  largest displacement from symmetrization is 1.54D-08 for atom     1.
 Variable       Old X    -DE/DX   Delta X   Delta X   Delta X     New X
                                 (Linear)    (Quad)   (Total)
    R1        2.19308  -0.00019   0.00000  -0.00016  -0.00016   2.19292
    R2        2.19308  -0.00018   0.00000  -0.00016  -0.00016   2.19292
    A1        3.14159   0.00000   0.00000   0.00000   0.00000   3.14159
    A2        3.14159   0.00000   0.00000   0.00000   0.00000   3.14159
         Item               Value     Threshold  Converged?
 Maximum Force            0.000187     0.000450     YES
 RMS     Force            0.000131     0.000300     YES
 Maximum Displacement     0.000163     0.001800     YES
 RMS     Displacement     0.000115     0.001200     YES
 Predicted change in Energy=-3.012641D-08
 Optimization completed.
    -- Stationary point found.
                           ----------------------------
                           !   Optimized Parameters   !
                           ! (Angstroms and Degrees)  !
 --------------------------                            --------------------------
 ! Name  Definition              Value          Derivative Info.                !
 --------------------------------------------------------------------------------
 ! R1    R(1,2)                  1.1605         -DE/DX =   -0.0002              !
 ! R2    R(1,3)                  1.1605         -DE/DX =   -0.0002              !
 ! A1    L(2,1,3,-3,-1)        180.0            -DE/DX =    0.0                 !
 ! A2    L(2,1,3,-2,-2)        180.0            -DE/DX =    0.0                 !
 --------------------------------------------------------------------------------
 GradGradGradGradGradGradGradGradGradGradGradGradGradGradGradGradGradGrad

 1\1\GINC-CPU-G-22\Freq\RB3LYP\6-311G(2d,d,p)\C1O2\AM2145\16-Jul-2020\0
 \\#N Geom=AllCheck Guess=TCheck SCRF=Check B3LYP/CBSB7 Freq\\co2_backu
 p\\0,1\C,-3.555362832,-0.5134572674,0.\O,-4.7158662625,-0.521190616,0.
 \O,-2.3948608934,-0.5057239287,0.\\Version=ES64L-G09RevD.01\State=1-SG
 \HF=-188.6411388\RMSD=9.108e-10\RMSF=8.753e-05\ZeroPoint=0.0117181\The
 rmal=0.0143403\Dipole=0.0000033,0.,0.\DipoleDeriv=2.3528193,0.0120687,
 0.,0.0120687,0.5418115,0.,0.,0.,0.5417311,-1.1764085,-0.0060343,0.,-0.
 0060343,-0.2709063,0.,0.,0.,-0.2708661,-1.1764108,-0.0060344,0.,-0.006
 0344,-0.2709052,0.,0.,0.,-0.270865\Polar=22.322165,0.0971617,7.7422543
 ,0.,0.,7.7416069\PG=C*V [C*(O1C1O1)]\NImag=0\\1.95782496,0.01206785,0.
 14694587,0.,0.,0.14686545,-0.97890700,-0.00603388,0.,1.06162083,-0.006
 03388,-0.07347352,0.,0.00682933,0.03682498,0.,0.,-0.07343331,0.,0.,0.0
 3677947,-0.97891796,-0.00603397,0.,-0.08271383,-0.00079544,0.,1.061631
 79,-0.00603397,-0.07347235,0.,-0.00079544,0.03664854,0.,0.00682941,0.0
 3682381,0.,0.,-0.07343215,0.,0.,0.03665384,0.,0.,0.03677830\\0.0000027
 6,0.00000002,0.,-0.00018705,-0.00000125,0.,0.00018429,0.00000123,0.\\\
 @


 THERE IS SOMETHING FASCINATING ABOUT SCIENCE.
 ONE GETS SUCH WHOLESALE CONJECTURE OUT OF SUCH TRIFLING INVESTMENTS.

                                                       -- MARK TWAIN
 Job cpu time:       0 days  0 hours  4 minutes  0.4 seconds.
 File lengths (MBytes):  RWF=      5 Int=      0 D2E=      0 Chk=      1 Scr=      1
 Normal termination of Gaussian 09 at Thu Jul 16 13:04:06 2020.
 Link1:  Proceeding to internal job step number  3.
 -----------------------------------------------------------
 #N Geom=AllCheck Guess=TCheck SCRF=Check CCSD(T)/6-31+G(d')
 -----------------------------------------------------------
 1/29=7,38=1,40=1/1;
 2/12=2,40=1/2;
 3/5=11,6=6,7=11,11=9,14=-4,16=1,25=1,30=1,70=2,116=-2/1,2,3;
 4/5=101/1;
 5/5=2/2;
 8/6=4,9=120000,10=1/1,4;
 9/5=7,14=2/13;
 6/7=2,8=2,9=2,10=2/1;
 99/5=1,9=1/99;
 Structure from the checkpoint file:  "co2_backup.chk"
 ----------
 co2_backup
 ----------
 Charge =  0 Multiplicity = 1
 Redundant internal coordinates found in file.
 C,0,-3.555362832,-0.5134572674,0.
 O,0,-4.7158662625,-0.521190616,0.
 O,0,-2.3948608934,-0.5057239287,0.
 Recover connectivity data from disk.
                          Input orientation:                          
 ---------------------------------------------------------------------
 Center     Atomic      Atomic             Coordinates (Angstroms)
 Number     Number       Type             X           Y           Z
 ---------------------------------------------------------------------
      1          6           0       -3.555363   -0.513457    0.000000
      2          8           0       -4.715866   -0.521191    0.000000
      3          8           0       -2.394861   -0.505724    0.000000
 ---------------------------------------------------------------------
                    Distance matrix (angstroms):
                    1          2          3
     1  C    0.000000
     2  O    1.160529   0.000000
     3  O    1.160528   2.321057   0.000000
 Stoichiometry    CO2
 Framework group  C*V[C*(OCO)]
 Deg. of freedom     2
 Full point group                 C*V     NOp   4
 Largest Abelian subgroup         C2V     NOp   4
 Largest concise Abelian subgroup C1      NOp   1
                         Standard orientation:                         
 ---------------------------------------------------------------------
 Center     Atomic      Atomic             Coordinates (Angstroms)
 Number     Number       Type             X           Y           Z
 ---------------------------------------------------------------------
      1          6           0        0.000000    0.000000   -0.000001
      2          8           0        0.000000    0.000000    1.160529
      3          8           0        0.000000    0.000000   -1.160528
 ---------------------------------------------------------------------
 Rotational constants (GHZ):      0.0000000     11.7298833     11.7298833
 Standard basis: 6-31+(d') (6D, 7F)
 There are    30 symmetry adapted cartesian basis functions of A1  symmetry.
 There are     3 symmetry adapted cartesian basis functions of A2  symmetry.
 There are    12 symmetry adapted cartesian basis functions of B1  symmetry.
 There are    12 symmetry adapted cartesian basis functions of B2  symmetry.
 There are    30 symmetry adapted basis functions of A1  symmetry.
 There are     3 symmetry adapted basis functions of A2  symmetry.
 There are    12 symmetry adapted basis functions of B1  symmetry.
 There are    12 symmetry adapted basis functions of B2  symmetry.
    57 basis functions,    96 primitive gaussians,    57 cartesian basis functions
    11 alpha electrons       11 beta electrons
       nuclear repulsion energy        58.3653788450 Hartrees.
 NAtoms=    3 NActive=    3 NUniq=    3 SFac= 1.00D+00 NAtFMM=   60 NAOKFM=F Big=F
 Integral buffers will be    131072 words long.
 Raffenetti 1 integral format.
 Two-electron integral symmetry is turned on.
 One-electron integrals computed using PRISM.
 NBasis=    57 RedAO= T EigKep=  2.93D-03  NBF=    30     3    12    12
 NBsUse=    57 1.00D-06 EigRej= -1.00D+00 NBFU=    30     3    12    12
 Initial guess from the checkpoint file:  "co2_backup.chk"
 B after Tr=     0.000000    0.000000    0.000000
         Rot=    1.000000    0.000000    0.000000    0.000000 Ang=   0.00 deg.
 Initial guess orbital symmetries:
       Occupied  (SG) (SG) (SG) (SG) (SG) (SG) (SG) (PI) (PI) (PI)
                 (PI)
       Virtual   (PI) (PI) (SG) (SG) (PI) (PI) (SG) (SG) (SG) (PI)
                 (PI) (PI) (PI) (SG) (DLTA) (DLTA) (SG) (PI) (PI)
                 (SG) (PI) (PI) (SG) (DLTA) (DLTA) (DLTA) (DLTA)
                 (PI) (PI) (SG) (SG) (SG) (PI) (PI) (PI) (PI) (PI)
                 (PI) (SG) (SG) (SG) (SG) (SG) (SG) (SG) (SG)
 Keep R1 ints in memory in symmetry-blocked form, NReq=2235840.
 Requested convergence on RMS density matrix=1.00D-08 within 128 cycles.
 Requested convergence on MAX density matrix=1.00D-06.
 Requested convergence on             energy=1.00D-06.
 No special actions if energy rises.
 SCF Done:  E(RHF) =  -187.640935496     A.U. after   10 cycles
            NFock= 10  Conv=0.11D-08     -V/T= 2.0028
 ExpMin= 4.38D-02 ExpMax= 5.48D+03 ExpMxC= 8.25D+02 IAcc=3 IRadAn=         5 AccDes= 0.00D+00
 HarFok:  IExCor=  205 AccDes= 0.00D+00 IRadAn=         5 IDoV=-2 UseB2=F ITyADJ=14
 ICtDFT= 12500011 ScaDFX=  1.000000  1.000000  1.000000  1.000000
 Range of M.O.s used for correlation:     4    57
 NBasis=    57 NAE=    11 NBE=    11 NFC=     3 NFV=     0
 NROrb=     54 NOA=     8 NOB=     8 NVA=    46 NVB=    46
 Semi-Direct transformation.
 ModeAB=           2 MOrb=             8 LenV=    8589729742
 LASXX=       149814 LTotXX=      149814 LenRXX=      149814
 LTotAB=      160728 MaxLAS=      714096 LenRXY=      714096
 NonZer=      756432 LenScr=     1701888 LnRSAI=           0
 LnScr1=           0 LExtra=           0 Total=      2565798
 MaxDsk=          -1 SrtSym=           F ITran=            4
 JobTyp=0 Pass  1:  I=   1 to   8.
 (rs|ai) integrals will be sorted in core.
 Spin components of T(2) and E(2):
     alpha-alpha T2 =       0.2070425767D-01 E2=     -0.6924879407D-01
     alpha-beta  T2 =       0.1032752053D+00 E2=     -0.3569259549D+00
     beta-beta   T2 =       0.2070425767D-01 E2=     -0.6924879407D-01
 ANorm=    0.1069898930D+01
 E2 =    -0.4954235430D+00 EUMP2 =    -0.18813635903859D+03
 Keep R2 and R3 ints in memory in symmetry-blocked form, NReq=2193684.
 Iterations=  50 Convergence= 0.100D-06
 Iteration Nr.   1
 **********************
 DD1Dir will call FoFMem   1 times, MxPair=        72
 NAB=    36 NAA=     0 NBB=     0.
 MP4(R+Q)=  0.80819314D-02
 E3=        0.16372305D-01        EUMP3=      -0.18811998673D+03
 E4(DQ)=   -0.45139336D-02        UMP4(DQ)=   -0.18812450067D+03
 E4(SDQ)=  -0.15150435D-01        UMP4(SDQ)=  -0.18813513717D+03
 DE(Corr)= -0.47012998     E(Corr)=     -188.11106548    
 NORM(A)=   0.10644736D+01
 Iteration Nr.   2
 **********************
 DD1Dir will call FoFMem   1 times, MxPair=        72
 NAB=    36 NAA=     0 NBB=     0.
 DE(Corr)= -0.49016314     E(CORR)=     -188.13109863     Delta=-2.00D-02
 NORM(A)=   0.10712734D+01
 Iteration Nr.   3
 **********************
 DD1Dir will call FoFMem   1 times, MxPair=        72
 NAB=    36 NAA=     0 NBB=     0.
 DE(Corr)= -0.48855036     E(CORR)=     -188.12948586     Delta= 1.61D-03
 NORM(A)=   0.10735300D+01
 Iteration Nr.   4
 **********************
 DD1Dir will call FoFMem   1 times, MxPair=        72
 NAB=    36 NAA=     0 NBB=     0.
 DE(Corr)= -0.49052346     E(CORR)=     -188.13145896     Delta=-1.97D-03
 NORM(A)=   0.10740385D+01
 Iteration Nr.   5
 **********************
 DD1Dir will call FoFMem   1 times, MxPair=        72
 NAB=    36 NAA=     0 NBB=     0.
 DE(Corr)= -0.49065399     E(CORR)=     -188.13158949     Delta=-1.31D-04
 NORM(A)=   0.10741293D+01
 Iteration Nr.   6
 **********************
 DD1Dir will call FoFMem   1 times, MxPair=        72
 NAB=    36 NAA=     0 NBB=     0.
 DE(Corr)= -0.49066044     E(CORR)=     -188.13159594     Delta=-6.45D-06
 NORM(A)=   0.10741322D+01
 Iteration Nr.   7
 **********************
 DD1Dir will call FoFMem   1 times, MxPair=        72
 NAB=    36 NAA=     0 NBB=     0.
 DE(Corr)= -0.49066081     E(CORR)=     -188.13159631     Delta=-3.72D-07
 NORM(A)=   0.10741322D+01
 Iteration Nr.   8
 **********************
 DD1Dir will call FoFMem   1 times, MxPair=        72
 NAB=    36 NAA=     0 NBB=     0.
 DE(Corr)= -0.49065933     E(CORR)=     -188.13159482     Delta= 1.49D-06
 NORM(A)=   0.10741331D+01
 Iteration Nr.   9
 **********************
 DD1Dir will call FoFMem   1 times, MxPair=        72
 NAB=    36 NAA=     0 NBB=     0.
 DE(Corr)= -0.49066040     E(CORR)=     -188.13159590     Delta=-1.08D-06
 NORM(A)=   0.10741335D+01
 Iteration Nr.  10
 **********************
 DD1Dir will call FoFMem   1 times, MxPair=        72
 NAB=    36 NAA=     0 NBB=     0.
 DE(Corr)= -0.49066001     E(CORR)=     -188.13159550     Delta= 3.96D-07
 NORM(A)=   0.10741336D+01
 Iteration Nr.  11
 **********************
 DD1Dir will call FoFMem   1 times, MxPair=        72
 NAB=    36 NAA=     0 NBB=     0.
 DE(Corr)= -0.49066027     E(CORR)=     -188.13159577     Delta=-2.64D-07
 NORM(A)=   0.10741337D+01
 Iteration Nr.  12
 **********************
 DD1Dir will call FoFMem   1 times, MxPair=        72
 NAB=    36 NAA=     0 NBB=     0.
 DE(Corr)= -0.49066026     E(CORR)=     -188.13159576     Delta= 8.02D-09
 NORM(A)=   0.10741338D+01
 Largest amplitude= 5.68D-02
 Time for triples=       17.69 seconds.
 T4(CCSD)= -0.21876321D-01
 T5(CCSD)=  0.23876178D-02
 CCSD(T)= -0.18815108446D+03
 Discarding MO integrals.

 **********************************************************************

            Population analysis using the SCF density.

 **********************************************************************

 Orbital symmetries:
       Occupied  (SG) (SG) (SG) (SG) (SG) (SG) (SG) (PI) (PI) (PI)
                 (PI)
       Virtual   (SG) (PI) (PI) (SG) (PI) (PI) (SG) (PI) (PI) (SG)
                 (SG) (PI) (PI) (SG) (SG) (PI) (PI) (SG) (SG) (SG)
                 (SG) (PI) (PI) (DLTA) (DLTA) (PI) (PI) (SG) (PI)
                 (PI) (SG) (SG) (SG) (DLTA) (DLTA) (DLTA) (DLTA)
                 (PI) (PI) (SG) (PI) (PI) (SG) (SG) (SG) (SG)
 The electronic state is 1-SG.
 Alpha  occ. eigenvalues --  -20.66533 -20.66530 -11.47542  -1.53882  -1.48520
 Alpha  occ. eigenvalues --   -0.80349  -0.74607  -0.71739  -0.71739  -0.54634
 Alpha  occ. eigenvalues --   -0.54634
 Alpha virt. eigenvalues --    0.05658   0.09567   0.09567   0.10171   0.20725
 Alpha virt. eigenvalues --    0.20725   0.24229   0.28084   0.28084   0.28586
 Alpha virt. eigenvalues --    0.32520   0.35094   0.35094   0.39289   0.52178
 Alpha virt. eigenvalues --    0.86720   0.86720   0.89726   1.18881   1.23844
 Alpha virt. eigenvalues --    1.33431   1.36606   1.36606   1.41304   1.41304
 Alpha virt. eigenvalues --    1.51293   1.51293   1.61708   1.66422   1.66422
 Alpha virt. eigenvalues --    1.77022   2.47064   3.05434   3.09879   3.09879
 Alpha virt. eigenvalues --    3.21808   3.21808   3.31549   3.31549   3.85473
 Alpha virt. eigenvalues --    4.09987   4.09987   4.30449   4.50880   6.82555
 Alpha virt. eigenvalues --    6.99025
          Condensed to atoms (all electrons):
               1          2          3
     1  C    4.592928   0.411519   0.411519
     2  O    0.411519   8.015202  -0.134703
     3  O    0.411519  -0.134703   8.015199
 Mulliken charges:
               1
     1  C    0.584033
     2  O   -0.292018
     3  O   -0.292016
 Sum of Mulliken charges =   0.00000
 Mulliken charges with hydrogens summed into heavy atoms:
               1
     1  C    0.584033
     2  O   -0.292018
     3  O   -0.292016
 Electronic spatial extent (au):  <R**2>=            114.2285
 Charge=              0.0000 electrons
 Dipole moment (field-independent basis, Debye):
    X=              0.0000    Y=              0.0000    Z=              0.0000  Tot=              0.0000
 Quadrupole moment (field-independent basis, Debye-Ang):
   XX=            -14.8249   YY=            -14.8249   ZZ=            -20.4862
   XY=              0.0000   XZ=              0.0000   YZ=              0.0000
 Traceless Quadrupole moment (field-independent basis, Debye-Ang):
   XX=              1.8871   YY=              1.8871   ZZ=             -3.7742
   XY=              0.0000   XZ=              0.0000   YZ=              0.0000
 Octapole moment (field-independent basis, Debye-Ang**2):
  XXX=              0.0000  YYY=              0.0000  ZZZ=              0.0000  XYY=              0.0000
  XXY=              0.0000  XXZ=              0.0000  XZZ=              0.0000  YZZ=              0.0000
  YYZ=              0.0000  XYZ=              0.0000
 Hexadecapole moment (field-independent basis, Debye-Ang**3):
 XXXX=            -11.6159 YYYY=            -11.6159 ZZZZ=           -105.7344 XXXY=              0.0000
 XXXZ=              0.0000 YYYX=              0.0000 YYYZ=              0.0000 ZZZX=              0.0000
 ZZZY=              0.0000 XXYY=             -3.8720 XXZZ=            -19.2848 YYZZ=            -19.2848
 XXYZ=              0.0000 YYXZ=              0.0000 ZZXY=              0.0000
 N-N= 5.836537884499D+01 E-N=-5.593133781540D+02  KE= 1.871149236275D+02
 Symmetry A1   KE= 1.704619231460D+02
 Symmetry A2   KE= 6.965793869199D-35
 Symmetry B1   KE= 8.326500240765D+00
 Symmetry B2   KE= 8.326500240765D+00
 1\1\GINC-CPU-G-22\SP\RCCSD(T)-FC\6-31+(d')\C1O2\AM2145\16-Jul-2020\0\\
 #N Geom=AllCheck Guess=TCheck SCRF=Check CCSD(T)/6-31+G(d')\\co2_backu
 p\\0,1\C,0,-3.555362832,-0.5134572674,0.\O,0,-4.7158662625,-0.52119061
 6,0.\O,0,-2.3948608934,-0.5057239287,0.\\Version=ES64L-G09RevD.01\Stat
 e=1-SG\HF=-187.6409355\MP2=-188.136359\MP3=-188.1199867\MP4D=-188.1325
 826\MP4DQ=-188.1245007\MP4SDQ=-188.1351372\CCSD=-188.1315958\CCSD(T)=-
 188.1510845\RMSD=1.114e-09\PG=C*V [C*(O1C1O1)]\\@


 Democracy is the recurrent suspicion that more than half of the people
 are right more than half of the time.
 -- E. B. White
 Job cpu time:       0 days  0 hours 31 minutes  7.7 seconds.
 File lengths (MBytes):  RWF=     27 Int=      0 D2E=      0 Chk=      1 Scr=      1
 Normal termination of Gaussian 09 at Thu Jul 16 13:06:04 2020.
 Link1:  Proceeding to internal job step number  4.
 -----------------------------------------------------
 #N Geom=AllCheck Guess=TCheck SCRF=Check MP4SDQ/CBSB4
 -----------------------------------------------------
 1/29=7,38=1,40=1/1;
 2/12=2,40=1/2;
 3/5=13,11=9,14=-4,16=1,25=1,30=1,70=2,116=-2/1,2,3;
 4/5=101/1;
 5/5=2/2;
 8/6=3,9=120000,10=1/1,4;
 9/5=4/13;
 6/7=2,8=2,9=2,10=2/1;
 99/5=1,9=1/99;
 Structure from the checkpoint file:  "co2_backup.chk"
 ----------
 co2_backup
 ----------
 Charge =  0 Multiplicity = 1
 Redundant internal coordinates found in file.
 C,0,-3.555362832,-0.5134572674,0.
 O,0,-4.7158662625,-0.521190616,0.
 O,0,-2.3948608934,-0.5057239287,0.
 Recover connectivity data from disk.
                          Input orientation:                          
 ---------------------------------------------------------------------
 Center     Atomic      Atomic             Coordinates (Angstroms)
 Number     Number       Type             X           Y           Z
 ---------------------------------------------------------------------
      1          6           0       -3.555363   -0.513457    0.000000
      2          8           0       -4.715866   -0.521191    0.000000
      3          8           0       -2.394861   -0.505724    0.000000
 ---------------------------------------------------------------------
                    Distance matrix (angstroms):
                    1          2          3
     1  C    0.000000
     2  O    1.160529   0.000000
     3  O    1.160528   2.321057   0.000000
 Stoichiometry    CO2
 Framework group  C*V[C*(OCO)]
 Deg. of freedom     2
 Full point group                 C*V     NOp   4
 Largest Abelian subgroup         C2V     NOp   4
 Largest concise Abelian subgroup C1      NOp   1
                         Standard orientation:                         
 ---------------------------------------------------------------------
 Center     Atomic      Atomic             Coordinates (Angstroms)
 Number     Number       Type             X           Y           Z
 ---------------------------------------------------------------------
      1          6           0        0.000000    0.000000   -0.000001
      2          8           0        0.000000    0.000000    1.160529
      3          8           0        0.000000    0.000000   -1.160528
 ---------------------------------------------------------------------
 Rotational constants (GHZ):      0.0000000     11.7298833     11.7298833
 Standard basis: CBSB4 (6D, 7F)
 There are    30 symmetry adapted cartesian basis functions of A1  symmetry.
 There are     3 symmetry adapted cartesian basis functions of A2  symmetry.
 There are    12 symmetry adapted cartesian basis functions of B1  symmetry.
 There are    12 symmetry adapted cartesian basis functions of B2  symmetry.
 There are    30 symmetry adapted basis functions of A1  symmetry.
 There are     3 symmetry adapted basis functions of A2  symmetry.
 There are    12 symmetry adapted basis functions of B1  symmetry.
 There are    12 symmetry adapted basis functions of B2  symmetry.
    57 basis functions,    96 primitive gaussians,    57 cartesian basis functions
    11 alpha electrons       11 beta electrons
       nuclear repulsion energy        58.3653788450 Hartrees.
 NAtoms=    3 NActive=    3 NUniq=    3 SFac= 1.00D+00 NAtFMM=   60 NAOKFM=F Big=F
 Integral buffers will be    131072 words long.
 Raffenetti 1 integral format.
 Two-electron integral symmetry is turned on.
 One-electron integrals computed using PRISM.
 NBasis=    57 RedAO= T EigKep=  2.93D-03  NBF=    30     3    12    12
 NBsUse=    57 1.00D-06 EigRej= -1.00D+00 NBFU=    30     3    12    12
 Initial guess from the checkpoint file:  "co2_backup.chk"
 B after Tr=     0.000000    0.000000    0.000000
         Rot=    1.000000    0.000000    0.000000    0.000000 Ang=   0.00 deg.
 Initial guess orbital symmetries:
       Occupied  (SG) (SG) (SG) (SG) (SG) (SG) (SG) (PI) (PI) (PI)
                 (PI)
       Virtual   (SG) (PI) (PI) (SG) (PI) (PI) (SG) (PI) (PI) (SG)
                 (SG) (PI) (PI) (SG) (SG) (PI) (PI) (SG) (SG) (SG)
                 (SG) (PI) (PI) (DLTA) (DLTA) (PI) (PI) (SG) (PI)
                 (PI) (SG) (SG) (SG) (DLTA) (DLTA) (DLTA) (DLTA)
                 (PI) (PI) (SG) (PI) (PI) (SG) (SG) (SG) (SG)
 Keep R1 ints in memory in symmetry-blocked form, NReq=2235840.
 Requested convergence on RMS density matrix=1.00D-08 within 128 cycles.
 Requested convergence on MAX density matrix=1.00D-06.
 Requested convergence on             energy=1.00D-06.
 No special actions if energy rises.
 SCF Done:  E(RHF) =  -187.640935496     A.U. after    1 cycles
            NFock=  1  Conv=0.59D-09     -V/T= 2.0028
 ExpMin= 4.38D-02 ExpMax= 5.48D+03 ExpMxC= 8.25D+02 IAcc=3 IRadAn=         5 AccDes= 0.00D+00
 HarFok:  IExCor=  205 AccDes= 0.00D+00 IRadAn=         5 IDoV=-2 UseB2=F ITyADJ=14
 ICtDFT= 12500011 ScaDFX=  1.000000  1.000000  1.000000  1.000000
 Range of M.O.s used for correlation:     4    57
 NBasis=    57 NAE=    11 NBE=    11 NFC=     3 NFV=     0
 NROrb=     54 NOA=     8 NOB=     8 NVA=    46 NVB=    46
 Semi-Direct transformation.
 ModeAB=           2 MOrb=             8 LenV=    8589729742
 LASXX=        47514 LTotXX=       47514 LenRXX=       47514
 LTotAB=       52356 MaxLAS=      714096 LenRXY=      714096
 NonZer=      756432 LenScr=     1701888 LnRSAI=           0
 LnScr1=           0 LExtra=           0 Total=      2463498
 MaxDsk=          -1 SrtSym=           F ITran=            3
 JobTyp=0 Pass  1:  I=   1 to   8.
[...]
     alpha-alpha T2 =       0.2070425768D-01 E2=     -0.6924879409D-01
     alpha-beta  T2 =       0.1032752054D+00 E2=     -0.3569259550D+00
     beta-beta   T2 =       0.2070425768D-01 E2=     -0.6924879409D-01
 ANorm=    0.1069898930D+01
 E2 =    -0.4954235432D+00 EUMP2 =    -0.18813635903874D+03
 Keep R2 and R3 ints in memory in symmetry-blocked form, NReq=2193684.
 DD1Dir will call FoFMem   1 times, MxPair=        72
 NAB=    36 NAA=     0 NBB=     0.
 MP4(R+Q)=  0.80819314D-02
 E3=        0.16372305D-01        EUMP3=      -0.18811998673D+03
 E4(DQ)=   -0.45139336D-02        UMP4(DQ)=   -0.18812450067D+03
 E4(SDQ)=  -0.15150435D-01        UMP4(SDQ)=  -0.18813513717D+03
 Largest amplitude= 5.56D-02
 Discarding MO integrals.

 **********************************************************************

            Population analysis using the SCF density.

 **********************************************************************

 Orbital symmetries:
       Occupied  (SG) (SG) (SG) (SG) (SG) (SG) (SG) (PI) (PI) (PI)
                 (PI)
       Virtual   (SG) (PI) (PI) (SG) (PI) (PI) (SG) (PI) (PI) (SG)
                 (SG) (PI) (PI) (SG) (SG) (PI) (PI) (SG) (SG) (SG)
                 (SG) (PI) (PI) (DLTA) (DLTA) (PI) (PI) (SG) (PI)
                 (PI) (SG) (SG) (SG) (DLTA) (DLTA) (DLTA) (DLTA)
                 (PI) (PI) (SG) (PI) (PI) (SG) (SG) (SG) (SG)
 The electronic state is 1-SG.
 Alpha  occ. eigenvalues --  -20.66533 -20.66530 -11.47542  -1.53882  -1.48520
 Alpha  occ. eigenvalues --   -0.80349  -0.74607  -0.71739  -0.71739  -0.54634
 Alpha  occ. eigenvalues --   -0.54634
 Alpha virt. eigenvalues --    0.05658   0.09567   0.09567   0.10171   0.20725
 Alpha virt. eigenvalues --    0.20725   0.24229   0.28084   0.28084   0.28586
 Alpha virt. eigenvalues --    0.32520   0.35094   0.35094   0.39289   0.52178
 Alpha virt. eigenvalues --    0.86720   0.86720   0.89726   1.18881   1.23844
 Alpha virt. eigenvalues --    1.33431   1.36606   1.36606   1.41304   1.41304
 Alpha virt. eigenvalues --    1.51293   1.51293   1.61708   1.66422   1.66422
 Alpha virt. eigenvalues --    1.77022   2.47064   3.05434   3.09879   3.09879
 Alpha virt. eigenvalues --    3.21808   3.21808   3.31549   3.31549   3.85473
 Alpha virt. eigenvalues --    4.09987   4.09987   4.30449   4.50880   6.82555
 Alpha virt. eigenvalues --    6.99025
          Condensed to atoms (all electrons):
               1          2          3
     1  C    4.592928   0.411519   0.411519
     2  O    0.411519   8.015202  -0.134703
     3  O    0.411519  -0.134703   8.015199
 Mulliken charges:
               1
     1  C    0.584033
     2  O   -0.292018
     3  O   -0.292016
 Sum of Mulliken charges =   0.00000
 Mulliken charges with hydrogens summed into heavy atoms:
               1
     1  C    0.584033
     2  O   -0.292018
     3  O   -0.292016
 Electronic spatial extent (au):  <R**2>=            114.2285
 Charge=              0.0000 electrons
 Dipole moment (field-independent basis, Debye):
    X=              0.0000    Y=              0.0000    Z=              0.0000  Tot=              0.0000
 Quadrupole moment (field-independent basis, Debye-Ang):
   XX=            -14.8249   YY=            -14.8249   ZZ=            -20.4862
   XY=              0.0000   XZ=              0.0000   YZ=              0.0000
 Traceless Quadrupole moment (field-independent basis, Debye-Ang):
   XX=              1.8871   YY=              1.8871   ZZ=             -3.7742
   XY=              0.0000   XZ=              0.0000   YZ=              0.0000
 Octapole moment (field-independent basis, Debye-Ang**2):
  XXX=              0.0000  YYY=              0.0000  ZZZ=              0.0000  XYY=              0.0000
  XXY=              0.0000  XXZ=              0.0000  XZZ=              0.0000  YZZ=              0.0000
  YYZ=              0.0000  XYZ=              0.0000
 Hexadecapole moment (field-independent basis, Debye-Ang**3):
 XXXX=            -11.6159 YYYY=            -11.6159 ZZZZ=           -105.7344 XXXY=              0.0000
 XXXZ=              0.0000 YYYX=              0.0000 YYYZ=              0.0000 ZZZX=              0.0000
 ZZZY=              0.0000 XXYY=             -3.8720 XXZZ=            -19.2848 YYZZ=            -19.2848
 XXYZ=              0.0000 YYXZ=              0.0000 ZZXY=              0.0000
 N-N= 5.836537884499D+01 E-N=-5.593133781004D+02  KE= 1.871149235906D+02
 Symmetry A1   KE= 1.704619231008D+02
 Symmetry A2   KE= 1.826729064078D-35
 Symmetry B1   KE= 8.326500244899D+00
 Symmetry B2   KE= 8.326500244899D+00
 1\1\GINC-CPU-G-22\SP\RMP4SDQ-FC\CBSB4\C1O2\AM2145\16-Jul-2020\0\\#N Ge
 om=AllCheck Guess=TCheck SCRF=Check MP4SDQ/CBSB4\\co2_backup\\0,1\C,0,
 -3.555362832,-0.5134572674,0.\O,0,-4.7158662625,-0.521190616,0.\O,0,-2
 .3948608934,-0.5057239287,0.\\Version=ES64L-G09RevD.01\State=1-SG\HF=-
 187.6409355\MP2=-188.136359\MP3=-188.1199867\MP4D=-188.1325826\MP4DQ=-
 188.1245007\MP4SDQ=-188.1351372\RMSD=5.914e-10\PG=C*V [C*(O1C1O1)]\\@


 A DANDELION FROM A LOVER MEANS MORE THAN AN ORCHID FROM A FRIEND.
 Job cpu time:       0 days  0 hours  4 minutes 10.4 seconds.
 File lengths (MBytes):  RWF=     27 Int=      0 D2E=      0 Chk=      1 Scr=      1
 Normal termination of Gaussian 09 at Thu Jul 16 13:06:20 2020.
 Link1:  Proceeding to internal job step number  5.
 ----------------------------------------------------------------------
 #N Geom=AllCheck Guess=TCheck SCRF=Check MP2/CBSB3 CBSExtrap=(NMin=10,
 MinPop)
 ----------------------------------------------------------------------
 1/29=7,38=1,40=1/1;
 2/12=2,40=1/2;
 3/5=12,11=9,14=-4,16=1,25=1,30=1,70=2,116=-2/1,2,3;
 4/5=101/1;
 5/5=2/2;
 8/10=1/1;
 9/16=-3,75=2,81=10,83=4/6,4;
 6/7=2,8=2,9=2,10=2/1;
 99/5=1,9=1/99;
 Structure from the checkpoint file:  "co2_backup.chk"
 ----------
 co2_backup
 ----------
 Charge =  0 Multiplicity = 1
 Redundant internal coordinates found in file.
 C,0,-3.555362832,-0.5134572674,0.
 O,0,-4.7158662625,-0.521190616,0.
 O,0,-2.3948608934,-0.5057239287,0.
 Recover connectivity data from disk.
                          Input orientation:                          
 ---------------------------------------------------------------------
 Center     Atomic      Atomic             Coordinates (Angstroms)
 Number     Number       Type             X           Y           Z
 ---------------------------------------------------------------------
      1          6           0       -3.555363   -0.513457    0.000000
      2          8           0       -4.715866   -0.521191    0.000000
      3          8           0       -2.394861   -0.505724    0.000000
 ---------------------------------------------------------------------
                    Distance matrix (angstroms):
                    1          2          3
     1  C    0.000000
     2  O    1.160529   0.000000
     3  O    1.160528   2.321057   0.000000
 Stoichiometry    CO2
 Framework group  C*V[C*(OCO)]
 Deg. of freedom     2
 Full point group                 C*V     NOp   4
 Largest Abelian subgroup         C2V     NOp   4
 Largest concise Abelian subgroup C1      NOp   1
                         Standard orientation:                         
 ---------------------------------------------------------------------
 Center     Atomic      Atomic             Coordinates (Angstroms)
 Number     Number       Type             X           Y           Z
 ---------------------------------------------------------------------
      1          6           0        0.000000    0.000000   -0.000001
      2          8           0        0.000000    0.000000    1.160529
      3          8           0        0.000000    0.000000   -1.160528
 ---------------------------------------------------------------------
 Rotational constants (GHZ):      0.0000000     11.7298833     11.7298833
 Standard basis: CBSB3 (5D, 7F)
 There are    54 symmetry adapted cartesian basis functions of A1  symmetry.
 There are     9 symmetry adapted cartesian basis functions of A2  symmetry.
 There are    27 symmetry adapted cartesian basis functions of B1  symmetry.
 There are    27 symmetry adapted cartesian basis functions of B2  symmetry.
 There are    45 symmetry adapted basis functions of A1  symmetry.
 There are     9 symmetry adapted basis functions of A2  symmetry.
 There are    24 symmetry adapted basis functions of B1  symmetry.
 There are    24 symmetry adapted basis functions of B2  symmetry.
   102 basis functions,   156 primitive gaussians,   117 cartesian basis functions
    11 alpha electrons       11 beta electrons
       nuclear repulsion energy        58.3653788450 Hartrees.
 NAtoms=    3 NActive=    3 NUniq=    3 SFac= 1.00D+00 NAtFMM=   60 NAOKFM=F Big=F
 Integral buffers will be    131072 words long.
 Raffenetti 1 integral format.
 Two-electron integral symmetry is turned on.
 One-electron integrals computed using PRISM.
 NBasis=   102 RedAO= T EigKep=  1.05D-03  NBF=    45     9    24    24
 NBsUse=   102 1.00D-06 EigRej= -1.00D+00 NBFU=    45     9    24    24
 Initial guess from the checkpoint file:  "co2_backup.chk"
 B after Tr=     0.000000    0.000000    0.000000
         Rot=    1.000000    0.000000    0.000000    0.000000 Ang=   0.00 deg.
 Initial guess orbital symmetries:
       Occupied  (SG) (SG) (SG) (SG) (SG) (SG) (SG) (PI) (PI) (PI)
                 (PI)
       Virtual   (SG) (SG) (SG) (SG) (SG) (SG) (SG) (DLTA) (DLTA)
                 (SG) (SG) (SG) (SG) (DLTA) (DLTA) (SG) (SG) (SG)
                 (SG) (DLTA) (SG) (DLTA) (SG) (DLTA) (SG) (SG)
                 (SG) (DLTA) (DLTA) (SG) (SG) (SG) (SG) (SG) (SG)
                 (SG) (SG) (SG) (DLTA) (DLTA) (DLTA) (DLTA) (DLTA)
                 (DLTA) (DLTA) (DLTA) (DLTA) (PI) (PI) (PI) (PI)
                 (PI) (PI) (PI) (PHI) (PI) (PI) (PHI) (PHI) (PI)
                 (PI) (PI) (PI) (PI) (PI) (PI) (PI) (PI) (PI) (PI)
                 (PI) (PI) (PI) (PI) (PI) (PI) (PHI) (PI) (PI)
                 (PHI) (PHI) (PI) (PI) (PI) (PI) (PI) (PI) (PI)
                 (PI) (PI) (PI)
 Keep R1 ints in memory in symmetry-blocked form, NReq=17451307.
 Requested convergence on RMS density matrix=1.00D-08 within 128 cycles.
 Requested convergence on MAX density matrix=1.00D-06.
 Requested convergence on             energy=1.00D-06.
 No special actions if energy rises.
 SCF Done:  E(RHF) =  -187.703004858     A.U. after    9 cycles
            NFock=  9  Conv=0.46D-08     -V/T= 2.0017
 ExpMin= 4.38D-02 ExpMax= 8.59D+03 ExpMxC= 1.30D+03 IAcc=3 IRadAn=         5 AccDes= 0.00D+00
 HarFok:  IExCor=  205 AccDes= 0.00D+00 IRadAn=         5 IDoV=-2 UseB2=F ITyADJ=14
 ICtDFT= 12500011 ScaDFX=  1.000000  1.000000  1.000000  1.000000
 Range of M.O.s used for correlation:     4   102
 NBasis=   102 NAE=    11 NBE=    11 NFC=     3 NFV=     0
 NROrb=     99 NOA=     8 NOB=     8 NVA=    91 NVB=    91

 **** Warning!!: The largest alpha MO coefficient is  0.17972056D+02

 Disk-based method using OVN memory for  8 occupieds at a time.
 Permanent disk used for amplitudes and <ij||ab> integrals=     1289288 words.
 Estimated scratch disk usage=    17815592 words.
 Actual    scratch disk usage=    13885992 words.
 JobTyp=1 Pass  1:  I=   1 to   8 NPSUse= 20 ParTrn=T ParDer=T DoDerP=F.
 (rs|ai) integrals will be sorted in core.
 Spin components of T(2) and E(2):
     alpha-alpha T2 =       0.2248676761D-01 E2=     -0.8041682767D-01
     alpha-beta  T2 =       0.1139091103D+00 E2=     -0.4372718820D+00
     beta-beta   T2 =       0.2248676761D-01 E2=     -0.8041682767D-01
 ANorm=    0.1076514118D+01
 E2 =    -0.5981055374D+00 EUMP2 =    -0.18830111039540D+03

 Complete Basis Set (CBS) Extrapolation:
 M. R. Nyden and G. A. Petersson, JCP 75, 1843 (1981)
 G. A. Petersson and M. A. Al-Laham, JCP 94, 6081 (1991)
 G. A. Petersson, T. Tensfeldt, and J. A. Montgomery, JCP 94, 6091 (1991)
 J. A. Montgomery, J. W. Ochterski, and G. A. Petersson, JCP 101, 5900 (1994)
 
 Minimum Number of PNO for Extrapolation =  10
 Absolute Overlaps: IRadAn =     99590
 LocTrn: ILocal=3 LocCor=F DoCore=F.
 LocMO: Using population method
 Initial Trace= 0.80000000D+01 Initial TraceA= 0.31342774D+01
 RMSG= 0.75033316D-09
 There are a total of      147500 grid points.
 ElSum from         orbitals=       11.0000000551
 E2(CBS)=      -0.657087 CBS-Int=       0.018044 OIii=       4.650562

 **********************************************************************

            Population analysis using the SCF density.

 **********************************************************************

 Orbital symmetries:
       Occupied  (SG) (SG) (SG) (SG) (SG) (SG) (SG) (PI) (PI) (PI)
                 (PI)
       Virtual   (SG) (PI) (PI) (SG) (PI) (PI) (SG) (PI) (PI) (SG)
                 (SG) (PI) (PI) (SG) (SG) (PI) (PI) (DLTA) (DLTA)
                 (SG) (SG) (SG) (PI) (PI) (SG) (PI) (PI) (PI) (PI)
                 (SG) (SG) (DLTA) (DLTA) (DLTA) (DLTA) (SG) (PI)
                 (PI) (SG) (PI) (PI) (SG) (SG) (PHI) (PHI) (PI)
                 (PI) (DLTA) (DLTA) (SG) (DLTA) (DLTA) (PI) (PI)
                 (PI) (PI) (SG) (SG) (PHI) (PHI) (PHI) (PHI) (PI)
                 (PI) (DLTA) (DLTA) (PI) (PI) (SG) (DLTA) (DLTA)
                 (SG) (PI) (PI) (DLTA) (DLTA) (DLTA) (DLTA) (PI)
                 (PI) (SG) (SG) (PI) (PI) (SG) (PI) (PI) (SG) (SG)
                 (SG) (SG)
 The electronic state is 1-SG.
 Alpha  occ. eigenvalues --  -20.65359 -20.65355 -11.46229  -1.53292  -1.47991
 Alpha  occ. eigenvalues --   -0.80191  -0.74500  -0.71708  -0.71708  -0.54592
 Alpha  occ. eigenvalues --   -0.54592
 Alpha virt. eigenvalues --    0.05619   0.09573   0.09573   0.09807   0.20666
 Alpha virt. eigenvalues --    0.20666   0.23491   0.27335   0.27335   0.28176
 Alpha virt. eigenvalues --    0.31443   0.34384   0.34384   0.36846   0.49464
 Alpha virt. eigenvalues --    0.70388   0.70388   0.74475   0.74475   0.80096
 Alpha virt. eigenvalues --    0.86663   1.09073   1.11937   1.11937   1.14631
 Alpha virt. eigenvalues --    1.26221   1.26221   1.31985   1.31985   1.40205
 Alpha virt. eigenvalues --    1.52625   1.64324   1.64324   1.92542   1.92542
 Alpha virt. eigenvalues --    2.02565   2.18240   2.18240   2.29119   2.62458
 Alpha virt. eigenvalues --    2.62458   2.80729   2.86004   2.97435   2.97435
 Alpha virt. eigenvalues --    3.02789   3.02789   3.31744   3.31744   3.40603
 Alpha virt. eigenvalues --    3.40833   3.40833   3.57705   3.57705   4.14628
 Alpha virt. eigenvalues --    4.14628   4.27619   5.39001   5.39518   5.39518
 Alpha virt. eigenvalues --    5.46567   5.46567   5.47808   5.47808   5.53218
 Alpha virt. eigenvalues --    5.53218   5.55994   5.55994   5.60673   6.21699
 Alpha virt. eigenvalues --    6.21699   6.24897   6.64905   6.64905   7.24662
 Alpha virt. eigenvalues --    7.24662   7.29338   7.29338   7.45441   7.45441
 Alpha virt. eigenvalues --    7.71412   7.90814   8.00240   8.00240   8.17386
 Alpha virt. eigenvalues --    8.24057   8.24057   9.06015  25.80538  51.65246
 Alpha virt. eigenvalues --   52.65199
          Condensed to atoms (all electrons):
               1          2          3
     1  C    4.565308   0.460722   0.460721
     2  O    0.460722   7.972949  -0.177045
     3  O    0.460721  -0.177045   7.972947
 Mulliken charges:
               1
     1  C    0.513249
     2  O   -0.256625
     3  O   -0.256623
 Sum of Mulliken charges =   0.00000
 Mulliken charges with hydrogens summed into heavy atoms:
               1
     1  C    0.513249
     2  O   -0.256625
     3  O   -0.256623
 Electronic spatial extent (au):  <R**2>=            113.8596
 Charge=              0.0000 electrons
 Dipole moment (field-independent basis, Debye):
    X=              0.0000    Y=              0.0000    Z=              0.0000  Tot=              0.0000
 Quadrupole moment (field-independent basis, Debye-Ang):
   XX=            -14.8335   YY=            -14.8335   ZZ=            -19.9726
   XY=              0.0000   XZ=              0.0000   YZ=              0.0000
 Traceless Quadrupole moment (field-independent basis, Debye-Ang):
   XX=              1.7130   YY=              1.7130   ZZ=             -3.4261
   XY=              0.0000   XZ=              0.0000   YZ=              0.0000
 Octapole moment (field-independent basis, Debye-Ang**2):
  XXX=              0.0000  YYY=              0.0000  ZZZ=              0.0000  XYY=              0.0000
  XXY=              0.0000  XXZ=              0.0000  XZZ=              0.0000  YZZ=              0.0000
  YYZ=              0.0000  XYZ=              0.0000
 Hexadecapole moment (field-independent basis, Debye-Ang**3):
 XXXX=            -11.6461 YYYY=            -11.6461 ZZZZ=           -103.1974 XXXY=              0.0000
 XXXZ=              0.0000 YYYX=              0.0000 YYYZ=              0.0000 ZZZX=              0.0000
 ZZZY=              0.0000 XXYY=             -3.8820 XXZZ=            -19.0081 YYZZ=            -19.0081
 XXYZ=              0.0000 YYXZ=              0.0000 ZZXY=              0.0000
 N-N= 5.836537884499D+01 E-N=-5.598100582790D+02  KE= 1.873836190756D+02
 Symmetry A1   KE= 1.706645983569D+02
 Symmetry A2   KE= 1.712974655269D-34
 Symmetry B1   KE= 8.359510359336D+00
 Symmetry B2   KE= 8.359510359336D+00
 1\1\GINC-CPU-G-22\SP\RMP2-FC\CBSB3\C1O2\AM2145\16-Jul-2020\0\\#N Geom=
 AllCheck Guess=TCheck SCRF=Check MP2/CBSB3 CBSExtrap=(NMin=10,MinPop)\
 \co2_backup\\0,1\C,0,-3.555362832,-0.5134572674,0.\O,0,-4.7158662625,-
 0.521190616,0.\O,0,-2.3948608934,-0.5057239287,0.\\Version=ES64L-G09Re
 vD.01\State=1-SG\HF=-187.7030049\MP2=-188.3011104\E2(CBS)=-0.657087\CB
 S-Int=-0.6390433\OIii=4.6505619\RMSD=4.649e-09\PG=C*V [C*(O1C1O1)]\\@


 THE RED LIGHT IS ALWAYS LONGER THAN THE GREEN LIGHT.

                     -- PETER'S THEORY OF RELATIVITY
 Diagonal vibrational polarizability:
        0.0000000       0.0000000       0.0000000

 Complete Basis Set (CBS) Extrapolation:
 M. R. Nyden and G. A. Petersson, JCP 75, 1843 (1981)
 G. A. Petersson and M. A. Al-Laham, JCP 94, 6081 (1991)
 G. A. Petersson, T. Tensfeldt, and J. A. Montgomery, JCP 94, 6091 (1991)
 J. A. Montgomery, J. W. Ochterski, and G. A. Petersson, JCP 101, 5900 (1994)

 Temperature=               298.150000 Pressure=                       1.000000
 E(ZPE)=                      0.011601 E(Thermal)=                     0.014230
 E(SCF)=                   -187.703005 DE(MP2)=                       -0.598106
 DE(CBS)=                    -0.058981 DE(MP34)=                       0.001222
 DE(CCSD)=                   -0.015947 DE(Int)=                        0.018044
 DE(Empirical)=              -0.026927
 CBS-QB3 (0 K)=            -188.372099 CBS-QB3 Energy=              -188.369471
 CBS-QB3 Enthalpy=         -188.368527 CBS-QB3 Free Energy=         -188.393450
 1\1\GINC-CPU-G-22\Mixed\CBS-QB3\CBS-QB3\C1O2\AM2145\16-Jul-2020\0\\#n 
 CBS-QB3\\co2_backup\\0,1\C,0,-3.555362832,-0.5134572674,0.\O,0,-4.7158
 662625,-0.521190616,0.\O,0,-2.3948608934,-0.5057239287,0.\\Version=ES6
 4L-G09RevD.01\State=1-SG\HF/CbsB3=-187.7030049\E2(CBS)/CbsB3=-0.657087
 \CBS-Int/CbsB3=0.0180437\OIii/CbsB3=4.6505619\MP2/CbsB4=-188.136359\MP
 4(SDQ)/CbsB4=-188.1351372\MP4(SDQ)/6-31+G(d')=-188.1351372\QCISD(T)/6-
 31+G(d')=-188.1510845\CBSQB3=-188.3720995\FreqCoord=-6.7186620556,-0.9
 702936163,0.,-8.9116957154,-0.9849075273,0.,-4.5256312149,-0.955679724
 ,0.\PG=C*V [C*(O1C1O1)]\NImag=0\\1.95782496,0.01206785,0.14694587,0.,0
 .,0.14686545,-0.97890700,-0.00603388,0.,1.06162083,-0.00603388,-0.0734
 7352,0.,0.00682933,0.03682498,0.,0.,-0.07343331,0.,0.,0.03677947,-0.97
 891796,-0.00603397,0.,-0.08271383,-0.00079544,0.,1.06163179,-0.0060339
 7,-0.07347235,0.,-0.00079544,0.03664854,0.,0.00682941,0.03682381,0.,0.
 ,-0.07343215,0.,0.,0.03665384,0.,0.,0.03677830\\0.00000276,0.00000002,
 0.,-0.00018705,-0.00000125,0.,0.00018429,0.00000123,0.\\\@
 Job cpu time:       0 days  0 hours  8 minutes 51.7 seconds.
 File lengths (MBytes):  RWF=    124 Int=      0 D2E=      0 Chk=      2 Scr=      1
 Normal termination of Gaussian 09 at Thu Jul 16 13:06:55 2020.
