 Entering Gaussian System, Link 0=g09
 Input=freq-b971_10100-95-5.gau
 Output=freq-b971_10100-95-5.log
 Initial command:
 /opt/g09/l1.exe "/scratch/pb556/g09_run/add_hco//Gau-25951.inp" -scrdir="/scratch/pb556/g09_run/add_hco//"
 Entering Link 1 = /opt/g09/l1.exe PID=     25960.
  
 Copyright (c) 1988,1990,1992,1993,1995,1998,2003,2009,2013,
            Gaussian, Inc.  All Rights Reserved.
  
 This is part of the Gaussian(R) 09 program.  It is based on
 the Gaussian(R) 03 system (copyright 2003, Gaussian, Inc.),
 the Gaussian(R) 98 system (copyright 1998, Gaussian, Inc.),
 the Gaussian(R) 94 system (copyright 1995, Gaussian, Inc.),
 the Gaussian 92(TM) system (copyright 1992, Gaussian, Inc.),
 the Gaussian 90(TM) system (copyright 1990, Gaussian, Inc.),
 the Gaussian 88(TM) system (copyright 1988, Gaussian, Inc.),
 the Gaussian 86(TM) system (copyright 1986, Carnegie Mellon
 University), and the Gaussian 82(TM) system (copyright 1983,
 Carnegie Mellon University). Gaussian is a federally registered
 trademark of Gaussian, Inc.
  
 This software contains proprietary and confidential information,
 including trade secrets, belonging to Gaussian, Inc.
  
 This software is provided under written license and may be
 used, copied, transmitted, or stored only in accord with that
 written license.
  
 The following legend is applicable only to US Government
 contracts under FAR:
  
                    RESTRICTED RIGHTS LEGEND
  
 Use, reproduction and disclosure by the US Government is
 subject to restrictions as set forth in subparagraphs (a)
 and (c) of the Commercial Computer Software - Restricted
 Rights clause in FAR 52.227-19.
  
 Gaussian, Inc.
 340 Quinnipiac St., Bldg. 40, Wallingford CT 06492
  
  
 ---------------------------------------------------------------
 Warning -- This program may not be used in any manner that
 competes with the business of Gaussian, Inc. or will provide
 assistance to any competitor of Gaussian, Inc.  The licensee
 of this program is prohibited from giving any competitor of
 Gaussian, Inc. access to this program.  By using this program,
 the user acknowledges that Gaussian, Inc. is engaged in the
 business of creating and licensing software in the field of
 computational chemistry and represents and warrants to the
 licensee that it is not a competitor of Gaussian, Inc. and that
 it will not use this program in any manner prohibited above.
 ---------------------------------------------------------------
  

 Cite this work as:
 Gaussian 09, Revision D.01,
 M. J. Frisch, G. W. Trucks, H. B. Schlegel, G. E. Scuseria, 
 M. A. Robb, J. R. Cheeseman, G. Scalmani, V. Barone, B. Mennucci, 
 G. A. Petersson, H. Nakatsuji, M. Caricato, X. Li, H. P. Hratchian, 
 A. F. Izmaylov, J. Bloino, G. Zheng, J. L. Sonnenberg, M. Hada, 
 M. Ehara, K. Toyota, R. Fukuda, J. Hasegawa, M. Ishida, T. Nakajima, 
 Y. Honda, O. Kitao, H. Nakai, T. Vreven, J. A. Montgomery, Jr., 
 J. E. Peralta, F. Ogliaro, M. Bearpark, J. J. Heyd, E. Brothers, 
 K. N. Kudin, V. N. Staroverov, T. Keith, R. Kobayashi, J. Normand, 
 K. Raghavachari, A. Rendell, J. C. Burant, S. S. Iyengar, J. Tomasi, 
 M. Cossi, N. Rega, J. M. Millam, M. Klene, J. E. Knox, J. B. Cross, 
 V. Bakken, C. Adamo, J. Jaramillo, R. Gomperts, R. E. Stratmann, 
 O. Yazyev, A. J. Austin, R. Cammi, C. Pomelli, J. W. Ochterski, 
 R. L. Martin, K. Morokuma, V. G. Zakrzewski, G. A. Voth, 
 P. Salvador, J. J. Dannenberg, S. Dapprich, A. D. Daniels, 
 O. Farkas, J. B. Foresman, J. V. Ortiz, J. Cioslowski, 
 and D. J. Fox, Gaussian, Inc., Wallingford CT, 2013.
 
 ******************************************
 Gaussian 09:  ES64L-G09RevD.01 24-Apr-2013
                18-Feb-2015 
 ******************************************
 %NProcShared=8
 Will use up to    8 processors via shared memory.
 %Mem=500MW
 ----------------------------------------------------------------------
 #p rB971/6-311+G(d,p) Opt=(Tight, CalcAll) Freq GFInput Population=Non
 e Integral(Grid=UltraFine) Guess=MIX NoSymmetry
 ----------------------------------------------------------------------
 1/7=10,10=4,14=-1,18=20,19=15,26=4,38=1/1,3;
 2/9=110,12=2,15=1,17=6,18=5,40=1/2;
 3/5=4,6=6,7=111,11=2,16=1,24=10,25=1,30=1,71=2,74=-20,75=-5,116=1,140=1/1,2,3;
 4/13=-1/1;
 5/5=2,38=5/2;
 8/6=4,10=90,11=11/1;
 11/6=1,8=1,9=11,15=111,16=1,31=1/1,2,10;
 10/6=1,31=1/2;
 7/10=1,25=1,30=1/1,2,3,16;
 1/7=10,10=4,14=-1,18=20,19=15,26=4/3(3);
 2/9=110,15=1/2;
 7/8=1,9=1,25=1,30=1,44=-1/16;
 99//99;
 2/9=110,15=1/2;
 3/5=4,6=6,7=111,11=2,16=1,25=1,30=1,71=2,74=-20,75=-5,116=1,140=1/1,2,3;
 4/5=5,16=3,69=1/1;
 5/5=2,38=5/2;
 8/6=4,10=90,11=11/1;
 11/6=1,8=1,9=11,15=111,16=1,31=1/1,2,10;
 10/6=1,31=1/2;
 7/10=1,25=1,30=1/1,2,3,16;
 1/7=10,10=4,14=-1,18=20,19=15,26=4/3(-8);
 2/9=110,15=1/2;
 7/8=1,9=1,25=1,30=1,44=-1/16;
 99//99;
 Leave Link    1 at Wed Feb 18 10:54:36 2015, MaxMem=   524288000 cpu:         0.6
 (Enter /opt/g09/l101.exe)
 ------------------------
 freq-b971_10100-95-5.gau
 ------------------------
 Symbolic Z-matrix:
 Charge =  0 Multiplicity = 1
 C                     1.14203   0.78177   1.25145 
 C                     2.19249   1.69433   0.60208 
 C                     1.99378   3.19518   0.89549 
 C                     2.04671   3.60482   2.37899 
 C                     3.39179   3.3257    3.04851 
 O                     3.33725   3.86486   4.36029 
 C                     4.46013   3.64724   5.23741 
 C                     4.61939   2.15105   5.56836 
 C                     5.75844   4.21502   4.63431 
 C                     4.08254   4.42706   6.50368 
 H                     1.18884   0.81886   2.3453 
 H                     0.12818   1.07523   0.95313 
 H                     1.28862  -0.26139   0.95148 
 H                     2.16536   1.5526   -0.48611 
 H                     3.19584   1.37968   0.91847 
 H                     1.02186   3.50553   0.4883 
 H                     2.75107   3.76605   0.34009 
 H                     1.25761   3.10099   2.94985 
 H                     1.8475    4.68003   2.46171 
 H                     4.19916   3.79514   2.46351 
 H                     3.58863   2.24393   3.07822 
 H                     3.67559   1.7459    5.94779 
 H                     4.9231    1.56633   4.69405 
 H                     5.38748   2.01441   6.33716 
 H                     6.56684   4.16869   5.37173 
 H                     6.08291   3.65079   3.7539 
 H                     5.61666   5.26166   4.34474 
 H                     3.14171   4.04636   6.91303 
 H                     4.86222   4.33114   7.26645 
 H                     3.94946   5.48735   6.26773 
 
 NAtoms=     30 NQM=       30 NQMF=       0 NMMI=      0 NMMIF=      0
                NMic=       0 NMicF=      0.
                    Isotopes and Nuclear Properties:
 (Nuclear quadrupole moments (NQMom) in fm**2, nuclear magnetic moments (NMagM)
  in nuclear magnetons)

  Atom         1           2           3           4           5           6           7           8           9          10
 IAtWgt=          12          12          12          12          12          16          12          12          12          12
 AtmWgt=  12.0000000  12.0000000  12.0000000  12.0000000  12.0000000  15.9949146  12.0000000  12.0000000  12.0000000  12.0000000
 NucSpn=           0           0           0           0           0           0           0           0           0           0
 AtZEff=   0.0000000   0.0000000   0.0000000   0.0000000   0.0000000   0.0000000   0.0000000   0.0000000   0.0000000   0.0000000
 NQMom=    0.0000000   0.0000000   0.0000000   0.0000000   0.0000000   0.0000000   0.0000000   0.0000000   0.0000000   0.0000000
 NMagM=    0.0000000   0.0000000   0.0000000   0.0000000   0.0000000   0.0000000   0.0000000   0.0000000   0.0000000   0.0000000
 AtZNuc=   6.0000000   6.0000000   6.0000000   6.0000000   6.0000000   8.0000000   6.0000000   6.0000000   6.0000000   6.0000000

  Atom        11          12          13          14          15          16          17          18          19          20
 IAtWgt=           1           1           1           1           1           1           1           1           1           1
 AtmWgt=   1.0078250   1.0078250   1.0078250   1.0078250   1.0078250   1.0078250   1.0078250   1.0078250   1.0078250   1.0078250
 NucSpn=           1           1           1           1           1           1           1           1           1           1
 AtZEff=   0.0000000   0.0000000   0.0000000   0.0000000   0.0000000   0.0000000   0.0000000   0.0000000   0.0000000   0.0000000
 NQMom=    0.0000000   0.0000000   0.0000000   0.0000000   0.0000000   0.0000000   0.0000000   0.0000000   0.0000000   0.0000000
 NMagM=    2.7928460   2.7928460   2.7928460   2.7928460   2.7928460   2.7928460   2.7928460   2.7928460   2.7928460   2.7928460
 AtZNuc=   1.0000000   1.0000000   1.0000000   1.0000000   1.0000000   1.0000000   1.0000000   1.0000000   1.0000000   1.0000000

  Atom        21          22          23          24          25          26          27          28          29          30
 IAtWgt=           1           1           1           1           1           1           1           1           1           1
 AtmWgt=   1.0078250   1.0078250   1.0078250   1.0078250   1.0078250   1.0078250   1.0078250   1.0078250   1.0078250   1.0078250
 NucSpn=           1           1           1           1           1           1           1           1           1           1
 AtZEff=   0.0000000   0.0000000   0.0000000   0.0000000   0.0000000   0.0000000   0.0000000   0.0000000   0.0000000   0.0000000
 NQMom=    0.0000000   0.0000000   0.0000000   0.0000000   0.0000000   0.0000000   0.0000000   0.0000000   0.0000000   0.0000000
 NMagM=    2.7928460   2.7928460   2.7928460   2.7928460   2.7928460   2.7928460   2.7928460   2.7928460   2.7928460   2.7928460
 AtZNuc=   1.0000000   1.0000000   1.0000000   1.0000000   1.0000000   1.0000000   1.0000000   1.0000000   1.0000000   1.0000000
 Leave Link  101 at Wed Feb 18 10:54:36 2015, MaxMem=   524288000 cpu:         2.0
 (Enter /opt/g09/l103.exe)

 GradGradGradGradGradGradGradGradGradGradGradGradGradGradGradGradGradGrad
 Berny optimization.
 Initialization pass.
                           ----------------------------
                           !    Initial Parameters    !
                           ! (Angstroms and Degrees)  !
 --------------------------                            --------------------------
 ! Name  Definition              Value          Derivative Info.                !
 --------------------------------------------------------------------------------
 ! R1    R(1,2)                  1.5355         calculate D2E/DX2 analytically  !
 ! R2    R(1,11)                 1.0955         calculate D2E/DX2 analytically  !
 ! R3    R(1,12)                 1.0968         calculate D2E/DX2 analytically  !
 ! R4    R(1,13)                 1.0953         calculate D2E/DX2 analytically  !
 ! R5    R(2,3)                  1.5421         calculate D2E/DX2 analytically  !
 ! R6    R(2,14)                 1.0977         calculate D2E/DX2 analytically  !
 ! R7    R(2,15)                 1.0981         calculate D2E/DX2 analytically  !
 ! R8    R(3,4)                  1.5399         calculate D2E/DX2 analytically  !
 ! R9    R(3,16)                 1.0985         calculate D2E/DX2 analytically  !
 ! R10   R(3,17)                 1.099          calculate D2E/DX2 analytically  !
 ! R11   R(4,5)                  1.5282         calculate D2E/DX2 analytically  !
 ! R12   R(4,18)                 1.0965         calculate D2E/DX2 analytically  !
 ! R13   R(4,19)                 1.0966         calculate D2E/DX2 analytically  !
 ! R14   R(5,6)                  1.4193         calculate D2E/DX2 analytically  !
 ! R15   R(5,20)                 1.102          calculate D2E/DX2 analytically  !
 ! R16   R(5,21)                 1.0999         calculate D2E/DX2 analytically  !
 ! R17   R(6,7)                  1.4414         calculate D2E/DX2 analytically  !
 ! R18   R(7,8)                  1.5406         calculate D2E/DX2 analytically  !
 ! R19   R(7,9)                  1.54           calculate D2E/DX2 analytically  !
 ! R20   R(7,10)                 1.5343         calculate D2E/DX2 analytically  !
 ! R21   R(8,22)                 1.0949         calculate D2E/DX2 analytically  !
 ! R22   R(8,23)                 1.0948         calculate D2E/DX2 analytically  !
 ! R23   R(8,24)                 1.0953         calculate D2E/DX2 analytically  !
 ! R24   R(9,25)                 1.0952         calculate D2E/DX2 analytically  !
 ! R25   R(9,26)                 1.0949         calculate D2E/DX2 analytically  !
 ! R26   R(9,27)                 1.0952         calculate D2E/DX2 analytically  !
 ! R27   R(10,28)                1.0944         calculate D2E/DX2 analytically  !
 ! R28   R(10,29)                1.095          calculate D2E/DX2 analytically  !
 ! R29   R(10,30)                1.0943         calculate D2E/DX2 analytically  !
 ! A1    A(2,1,11)             111.8952         calculate D2E/DX2 analytically  !
 ! A2    A(2,1,12)             110.9971         calculate D2E/DX2 analytically  !
 ! A3    A(2,1,13)             111.0161         calculate D2E/DX2 analytically  !
 ! A4    A(11,1,12)            107.5791         calculate D2E/DX2 analytically  !
 ! A5    A(11,1,13)            107.4572         calculate D2E/DX2 analytically  !
 ! A6    A(12,1,13)            107.7008         calculate D2E/DX2 analytically  !
 ! A7    A(1,2,3)              114.1907         calculate D2E/DX2 analytically  !
 ! A8    A(1,2,14)             109.0009         calculate D2E/DX2 analytically  !
 ! A9    A(1,2,15)             109.447          calculate D2E/DX2 analytically  !
 ! A10   A(3,2,14)             108.1247         calculate D2E/DX2 analytically  !
 ! A11   A(3,2,15)             109.986          calculate D2E/DX2 analytically  !
 ! A12   A(14,2,15)            105.7364         calculate D2E/DX2 analytically  !
 ! A13   A(2,3,4)              115.9609         calculate D2E/DX2 analytically  !
 ! A14   A(2,3,16)             108.5683         calculate D2E/DX2 analytically  !
 ! A15   A(2,3,17)             108.6988         calculate D2E/DX2 analytically  !
 ! A16   A(4,3,16)             108.2007         calculate D2E/DX2 analytically  !
 ! A17   A(4,3,17)             108.9644         calculate D2E/DX2 analytically  !
 ! A18   A(16,3,17)            105.9963         calculate D2E/DX2 analytically  !
 ! A19   A(3,4,5)              113.8111         calculate D2E/DX2 analytically  !
 ! A20   A(3,4,18)             110.7667         calculate D2E/DX2 analytically  !
 ! A21   A(3,4,19)             109.1013         calculate D2E/DX2 analytically  !
 ! A22   A(5,4,18)             108.7472         calculate D2E/DX2 analytically  !
 ! A23   A(5,4,19)             107.8135         calculate D2E/DX2 analytically  !
 ! A24   A(18,4,19)            106.2902         calculate D2E/DX2 analytically  !
 ! A25   A(4,5,6)              107.5605         calculate D2E/DX2 analytically  !
 ! A26   A(4,5,20)             109.5401         calculate D2E/DX2 analytically  !
 ! A27   A(4,5,21)             110.4247         calculate D2E/DX2 analytically  !
 ! A28   A(6,5,20)             110.9136         calculate D2E/DX2 analytically  !
 ! A29   A(6,5,21)             110.825          calculate D2E/DX2 analytically  !
 ! A30   A(20,5,21)            107.5884         calculate D2E/DX2 analytically  !
 ! A31   A(5,6,7)              118.3683         calculate D2E/DX2 analytically  !
 ! A32   A(6,7,8)              110.9703         calculate D2E/DX2 analytically  !
 ! A33   A(6,7,9)              111.2712         calculate D2E/DX2 analytically  !
 ! A34   A(6,7,10)             103.5189         calculate D2E/DX2 analytically  !
 ! A35   A(8,7,9)              110.7951         calculate D2E/DX2 analytically  !
 ! A36   A(8,7,10)             109.9835         calculate D2E/DX2 analytically  !
 ! A37   A(9,7,10)             110.0771         calculate D2E/DX2 analytically  !
 ! A38   A(7,8,22)             110.1629         calculate D2E/DX2 analytically  !
 ! A39   A(7,8,23)             112.0749         calculate D2E/DX2 analytically  !
 ! A40   A(7,8,24)             110.1469         calculate D2E/DX2 analytically  !
 ! A41   A(22,8,23)            108.5567         calculate D2E/DX2 analytically  !
 ! A42   A(22,8,24)            108.3651         calculate D2E/DX2 analytically  !
 ! A43   A(23,8,24)            107.4206         calculate D2E/DX2 analytically  !
 ! A44   A(7,9,25)             110.0596         calculate D2E/DX2 analytically  !
 ! A45   A(7,9,26)             112.0086         calculate D2E/DX2 analytically  !
 ! A46   A(7,9,27)             110.2885         calculate D2E/DX2 analytically  !
 ! A47   A(25,9,26)            107.5107         calculate D2E/DX2 analytically  !
 ! A48   A(25,9,27)            108.3015         calculate D2E/DX2 analytically  !
 ! A49   A(26,9,27)            108.5572         calculate D2E/DX2 analytically  !
 ! A50   A(7,10,28)            110.0881         calculate D2E/DX2 analytically  !
 ! A51   A(7,10,29)            110.8033         calculate D2E/DX2 analytically  !
 ! A52   A(7,10,30)            110.1464         calculate D2E/DX2 analytically  !
 ! A53   A(28,10,29)           108.7304         calculate D2E/DX2 analytically  !
 ! A54   A(28,10,30)           108.2489         calculate D2E/DX2 analytically  !
 ! A55   A(29,10,30)           108.7637         calculate D2E/DX2 analytically  !
 ! D1    D(11,1,2,3)           -64.06           calculate D2E/DX2 analytically  !
 ! D2    D(11,1,2,14)          174.9175         calculate D2E/DX2 analytically  !
 ! D3    D(11,1,2,15)           59.7178         calculate D2E/DX2 analytically  !
 ! D4    D(12,1,2,3)            56.1323         calculate D2E/DX2 analytically  !
 ! D5    D(12,1,2,14)          -64.8902         calculate D2E/DX2 analytically  !
 ! D6    D(12,1,2,15)          179.9101         calculate D2E/DX2 analytically  !
 ! D7    D(13,1,2,3)           175.8899         calculate D2E/DX2 analytically  !
 ! D8    D(13,1,2,14)           54.8673         calculate D2E/DX2 analytically  !
 ! D9    D(13,1,2,15)          -60.3324         calculate D2E/DX2 analytically  !
 ! D10   D(1,2,3,4)             60.3941         calculate D2E/DX2 analytically  !
 ! D11   D(1,2,3,16)           -61.6137         calculate D2E/DX2 analytically  !
 ! D12   D(1,2,3,17)          -176.4864         calculate D2E/DX2 analytically  !
 ! D13   D(14,2,3,4)          -178.0988         calculate D2E/DX2 analytically  !
 ! D14   D(14,2,3,16)           59.8934         calculate D2E/DX2 analytically  !
 ! D15   D(14,2,3,17)          -54.9793         calculate D2E/DX2 analytically  !
 ! D16   D(15,2,3,4)           -63.0933         calculate D2E/DX2 analytically  !
 ! D17   D(15,2,3,16)          174.8989         calculate D2E/DX2 analytically  !
 ! D18   D(15,2,3,17)           60.0262         calculate D2E/DX2 analytically  !
 ! D19   D(2,3,4,5)             62.1278         calculate D2E/DX2 analytically  !
 ! D20   D(2,3,4,18)           -60.7629         calculate D2E/DX2 analytically  !
 ! D21   D(2,3,4,19)          -177.429          calculate D2E/DX2 analytically  !
 ! D22   D(16,3,4,5)          -175.6696         calculate D2E/DX2 analytically  !
 ! D23   D(16,3,4,18)           61.4397         calculate D2E/DX2 analytically  !
 ! D24   D(16,3,4,19)          -55.2264         calculate D2E/DX2 analytically  !
 ! D25   D(17,3,4,5)           -60.8524         calculate D2E/DX2 analytically  !
 ! D26   D(17,3,4,18)          176.2568         calculate D2E/DX2 analytically  !
 ! D27   D(17,3,4,19)           59.5907         calculate D2E/DX2 analytically  !
 ! D28   D(3,4,5,6)            174.5434         calculate D2E/DX2 analytically  !
 ! D29   D(3,4,5,20)            53.9061         calculate D2E/DX2 analytically  !
 ! D30   D(3,4,5,21)           -64.4088         calculate D2E/DX2 analytically  !
 ! D31   D(18,4,5,6)           -61.4674         calculate D2E/DX2 analytically  !
 ! D32   D(18,4,5,20)          177.8953         calculate D2E/DX2 analytically  !
 ! D33   D(18,4,5,21)           59.5804         calculate D2E/DX2 analytically  !
 ! D34   D(19,4,5,6)            53.3793         calculate D2E/DX2 analytically  !
 ! D35   D(19,4,5,20)          -67.258          calculate D2E/DX2 analytically  !
 ! D36   D(19,4,5,21)          174.4271         calculate D2E/DX2 analytically  !
 ! D37   D(4,5,6,7)            175.6659         calculate D2E/DX2 analytically  !
 ! D38   D(20,5,6,7)           -64.5662         calculate D2E/DX2 analytically  !
 ! D39   D(21,5,6,7)            54.8697         calculate D2E/DX2 analytically  !
 ! D40   D(5,6,7,8)            -65.2183         calculate D2E/DX2 analytically  !
 ! D41   D(5,6,7,9)             58.645          calculate D2E/DX2 analytically  !
 ! D42   D(5,6,7,10)           176.8403         calculate D2E/DX2 analytically  !
 ! D43   D(6,7,8,22)           -52.9503         calculate D2E/DX2 analytically  !
 ! D44   D(6,7,8,23)            68.0305         calculate D2E/DX2 analytically  !
 ! D45   D(6,7,8,24)          -172.4376         calculate D2E/DX2 analytically  !
 ! D46   D(9,7,8,22)          -177.0851         calculate D2E/DX2 analytically  !
 ! D47   D(9,7,8,23)           -56.1043         calculate D2E/DX2 analytically  !
 ! D48   D(9,7,8,24)            63.4276         calculate D2E/DX2 analytically  !
 ! D49   D(10,7,8,22)           60.9884         calculate D2E/DX2 analytically  !
 ! D50   D(10,7,8,23)         -178.0308         calculate D2E/DX2 analytically  !
 ! D51   D(10,7,8,24)          -58.4989         calculate D2E/DX2 analytically  !
 ! D52   D(6,7,9,25)           171.9538         calculate D2E/DX2 analytically  !
 ! D53   D(6,7,9,26)           -68.5027         calculate D2E/DX2 analytically  !
 ! D54   D(6,7,9,27)            52.5213         calculate D2E/DX2 analytically  !
 ! D55   D(8,7,9,25)           -64.0835         calculate D2E/DX2 analytically  !
 ! D56   D(8,7,9,26)            55.4601         calculate D2E/DX2 analytically  !
 ! D57   D(8,7,9,27)           176.484          calculate D2E/DX2 analytically  !
 ! D58   D(10,7,9,25)           57.7882         calculate D2E/DX2 analytically  !
 ! D59   D(10,7,9,26)          177.3317         calculate D2E/DX2 analytically  !
 ! D60   D(10,7,9,27)          -61.6443         calculate D2E/DX2 analytically  !
 ! D61   D(6,7,10,28)           59.031          calculate D2E/DX2 analytically  !
 ! D62   D(6,7,10,29)          179.3429         calculate D2E/DX2 analytically  !
 ! D63   D(6,7,10,30)          -60.2654         calculate D2E/DX2 analytically  !
 ! D64   D(8,7,10,28)          -59.5952         calculate D2E/DX2 analytically  !
 ! D65   D(8,7,10,29)           60.7167         calculate D2E/DX2 analytically  !
 ! D66   D(8,7,10,30)         -178.8916         calculate D2E/DX2 analytically  !
 ! D67   D(9,7,10,28)          178.0525         calculate D2E/DX2 analytically  !
 ! D68   D(9,7,10,29)          -61.6356         calculate D2E/DX2 analytically  !
 ! D69   D(9,7,10,30)           58.7561         calculate D2E/DX2 analytically  !
 --------------------------------------------------------------------------------
 Trust Radius=3.00D-01 FncErr=1.00D-07 GrdErr=1.00D-06
 Number of steps in this run=    163 maximum allowed number of steps=    180.
 GradGradGradGradGradGradGradGradGradGradGradGradGradGradGradGradGradGrad

 Leave Link  103 at Wed Feb 18 10:54:36 2015, MaxMem=   524288000 cpu:         0.1
 (Enter /opt/g09/l202.exe)
                          Input orientation:                          
 ---------------------------------------------------------------------
 Center     Atomic      Atomic             Coordinates (Angstroms)
 Number     Number       Type             X           Y           Z
 ---------------------------------------------------------------------
      1          6           0        1.142030    0.781770    1.251450
      2          6           0        2.192490    1.694330    0.602080
      3          6           0        1.993780    3.195180    0.895490
      4          6           0        2.046710    3.604820    2.378990
      5          6           0        3.391790    3.325700    3.048510
      6          8           0        3.337250    3.864860    4.360290
      7          6           0        4.460130    3.647240    5.237410
      8          6           0        4.619390    2.151050    5.568360
      9          6           0        5.758440    4.215020    4.634310
     10          6           0        4.082540    4.427060    6.503680
     11          1           0        1.188840    0.818860    2.345300
     12          1           0        0.128180    1.075230    0.953130
     13          1           0        1.288620   -0.261390    0.951480
     14          1           0        2.165360    1.552600   -0.486110
     15          1           0        3.195840    1.379680    0.918470
     16          1           0        1.021860    3.505530    0.488300
     17          1           0        2.751070    3.766050    0.340090
     18          1           0        1.257610    3.100990    2.949850
     19          1           0        1.847500    4.680030    2.461710
     20          1           0        4.199160    3.795140    2.463510
     21          1           0        3.588630    2.243930    3.078220
     22          1           0        3.675590    1.745900    5.947790
     23          1           0        4.923100    1.566330    4.694050
     24          1           0        5.387480    2.014410    6.337160
     25          1           0        6.566840    4.168690    5.371730
     26          1           0        6.082910    3.650790    3.753900
     27          1           0        5.616660    5.261660    4.344740
     28          1           0        3.141710    4.046360    6.913030
     29          1           0        4.862220    4.331140    7.266450
     30          1           0        3.949460    5.487350    6.267730
 ---------------------------------------------------------------------
                    Distance matrix (angstroms):
                    1          2          3          4          5
     1  C    0.000000
     2  C    1.535550   0.000000
     3  C    2.583938   1.542117   0.000000
     4  C    3.171656   2.613165   1.539928   0.000000
     5  C    3.842190   3.175643   2.570401   1.528203   0.000000
     6  O    4.897889   4.488409   3.776006   2.378795   1.419308
     7  C    5.925250   5.517457   5.013932   3.741251   2.456832
     8  C    5.709875   5.546384   5.460746   4.347897   3.039153
     9  C    6.673993   5.943800   5.402917   4.385858   2.984407
    10  C    7.037092   6.772665   6.110012   4.672660   3.691657
    11  H    1.095479   2.193759   2.897719   2.915244   3.410534
    12  H    1.096816   2.183551   2.824531   3.480325   4.484014
    13  H    1.095287   2.182636   3.528209   4.190473   4.657046
    14  H    2.158819   1.097716   2.153213   3.526256   4.140236
    15  H    2.164834   1.098098   2.177502   2.899115   2.891792
    16  H    2.831202   2.159575   1.098521   2.152878   3.493363
    17  H    3.510771   2.161637   1.099022   2.163153   2.817795
    18  H    2.876926   2.892182   2.184311   1.096542   2.148244
    19  H    4.142324   3.534352   2.163151   1.096633   2.136206
    20  H    4.460441   3.450369   2.771703   2.162500   1.102019
    21  H    3.385388   2.895261   2.865787   2.172202   1.099934
    22  H    5.422553   5.547870   5.518572   4.341102   3.313930
    23  H    5.173347   4.921060   5.065879   4.217649   2.854487
    24  H    6.738523   6.572789   6.520981   5.418234   4.064170
    25  H    7.607660   6.928705   6.472814   5.450323   4.023546
    26  H    6.237454   5.375600   5.009897   4.264200   2.800962
    27  H    7.046997   6.201475   5.412294   4.399299   3.221521
    28  H    6.834454   6.801555   6.184904   4.685243   3.939087
    29  H    7.913158   7.648140   7.078664   5.686994   4.578656
    30  H    7.428810   7.040848   6.159520   4.720877   3.917538
                    6          7          8          9         10
     6  O    0.000000
     7  C    1.441373   0.000000
     8  C    2.457735   1.540609   0.000000
     9  C    2.461678   1.540037   2.535716   0.000000
    10  C    2.337872   1.534318   2.518582   2.519553   0.000000
    11  H    4.237212   5.202439   4.891985   6.136344   6.219705
    12  H    5.448753   6.613326   6.529066   7.423557   7.594757
    13  H    5.730865   6.610980   6.182999   7.319889   7.785530
    14  H    5.496132   6.512462   6.560260   6.798338   7.797132
    15  H    4.247616   5.039196   4.923716   5.330435   6.423965
    16  H    4.525755   5.864796   6.370545   6.334664   6.811885
    17  H    4.063912   5.188328   5.782184   5.261765   6.340315
    18  H    2.626355   3.973343   4.365838   4.933147   4.729524
    19  H    2.547246   3.949304   4.871385   4.497986   4.625680
    20  H    2.084592   2.790072   3.538321   2.705555   4.090953
    21  H    2.081900   2.718620   2.696644   3.318838   4.091916
    22  H    2.669199   2.176060   1.094930   3.487126   2.768256
    23  H    2.812393   2.199947   1.094785   2.777935   3.487847
    24  H    3.396413   2.176135   1.095302   2.807133   2.747995
    25  H    3.397878   2.174438   2.811067   1.095192   2.742228
    26  H    2.819962   2.198688   2.771890   1.094878   3.487888
    27  H    2.673388   2.177332   3.488221   1.095175   2.776887
    28  H    2.566644   2.169154   2.753884   3.473944   1.094377
    29  H    3.314923   2.178623   2.774035   2.782958   1.094952
    30  H    2.577907   2.169873   3.474021   2.749417   1.094348
                   11         12         13         14         15
    11  H    0.000000
    12  H    1.768859   0.000000
    13  H    1.766248   1.770078   0.000000
    14  H    3.083642   2.539566   2.475055   0.000000
    15  H    2.525552   3.082925   2.516285   1.750610   0.000000
    16  H    3.270249   2.630796   3.804653   2.463940   3.070908
    17  H    3.891961   3.807346   4.328144   2.434137   2.495417
    18  H    2.361848   3.060426   3.911527   3.876512   3.293349
    19  H    3.918676   4.269246   5.197189   4.309466   3.884832
    20  H    4.234884   5.123674   5.216600   4.226770   3.037803
    21  H    2.885652   4.225705   4.011196   3.899754   2.359180
    22  H    4.474513   6.162836   5.889818   6.611598   5.065406
    23  H    4.474375   6.101387   5.527824   5.868507   4.156112
    24  H    5.915477   7.584858   7.140411   7.559917   5.879487
    25  H    7.021647   8.399397   8.186808   7.780183   6.242895
    26  H    5.827169   7.066586   6.792932   6.142254   4.640342
    27  H    6.583451   7.691075   7.794243   7.000408   5.715721
    28  H    5.924071   7.309541   7.584902   7.868886   6.561163
    29  H    7.074429   8.536398   8.587246   8.665767   7.196165
    30  H    6.693376   7.893919   8.269861   8.017458   6.786419
                   16         17         18         19         20
    16  H    0.000000
    17  H    1.754994   0.000000
    18  H    2.505685   3.079541   0.000000
    19  H    2.440385   2.480538   1.754884   0.000000
    20  H    3.752408   2.570355   3.061223   2.512636   0.000000
    21  H    3.858449   3.242794   2.486903   3.057156   1.776758
    22  H    6.320175   6.031753   4.082957   4.909561   4.075993
    23  H    6.055452   5.339799   4.339727   4.913022   3.235273
    24  H    7.449244   6.781132   5.450720   5.886943   4.425864
    25  H    7.418522   6.327687   5.932403   5.567931   3.768712
    26  H    6.024904   4.771639   4.922631   4.546184   2.287894
    27  H    6.250465   5.146424   5.061179   4.253312   2.774710
    28  H    6.787004   6.590502   4.488914   4.678757   4.580343
    29  H    7.834112   7.262971   5.756693   5.682938   4.878030
    30  H    6.774973   6.287760   4.893782   4.422193   4.171093
                   21         22         23         24         25
    21  H    0.000000
    22  H    2.913765   0.000000
    23  H    2.202466   1.777749   0.000000
    24  H    3.729508   1.776028   1.765286   0.000000
    25  H    4.223106   3.815899   3.151731   2.638914   0.000000
    26  H    2.942317   3.773188   2.563984   3.136016   1.766291
    27  H    3.850152   4.324129   3.776044   3.816660   1.775425
    28  H    4.260782   2.551241   3.774622   3.082844   3.757936
    29  H    4.849716   3.135350   3.776920   2.550827   2.553837
    30  H    4.563217   3.765078   4.335763   3.759526   3.064695
                   26         27         28         29         30
    26  H    0.000000
    27  H    1.778028   0.000000
    28  H    4.334424   3.768082   0.000000
    29  H    3.780340   3.157758   1.779371   0.000000
    30  H    3.774110   2.555070   1.773506   1.779717   0.000000
 Symmetry turned off by external request.
 Stoichiometry    C9H20O
 Framework group  C1[X(C9H20O)]
 Deg. of freedom    84
 Full point group                 C1      NOp   1
 Rotational constants (GHZ):      2.4733525      0.5214840      0.5003354
 Leave Link  202 at Wed Feb 18 10:54:36 2015, MaxMem=   524288000 cpu:         0.0
 (Enter /opt/g09/l301.exe)
 Standard basis: 6-311+G(d,p) (5D, 7F)
 Ernie: Thresh=  0.10000D-02 Tol=  0.10000D-05 Strict=F.
 AO basis set in the form of general basis input (Overlap normalization):
      1 0
 S   6 1.00       0.000000000000
      0.4563240000D+04  0.1966650249D-02
      0.6820240000D+03  0.1523060193D-01
      0.1549730000D+03  0.7612690966D-01
      0.4445530000D+02  0.2608010331D+00
      0.1302900000D+02  0.6164620782D+00
      0.1827730000D+01  0.2210060280D+00
 SP   3 1.00       0.000000000000
      0.2096420000D+02  0.1146600807D+00  0.4024869267D-01
      0.4803310000D+01  0.9199996477D+00  0.2375939567D+00
      0.1459330000D+01 -0.3030682134D-02  0.8158538515D+00
 SP   1 1.00       0.000000000000
      0.4834560000D+00  0.1000000000D+01  0.1000000000D+01
 SP   1 1.00       0.000000000000
      0.1455850000D+00  0.1000000000D+01  0.1000000000D+01
 SP   1 1.00       0.000000000000
      0.4380000000D-01  0.1000000000D+01  0.1000000000D+01
 D   1 1.00       0.000000000000
      0.6260000000D+00  0.1000000000D+01
 ****
      2 0
 S   6 1.00       0.000000000000
      0.4563240000D+04  0.1966650249D-02
      0.6820240000D+03  0.1523060193D-01
      0.1549730000D+03  0.7612690966D-01
      0.4445530000D+02  0.2608010331D+00
      0.1302900000D+02  0.6164620782D+00
      0.1827730000D+01  0.2210060280D+00
 SP   3 1.00       0.000000000000
      0.2096420000D+02  0.1146600807D+00  0.4024869267D-01
      0.4803310000D+01  0.9199996477D+00  0.2375939567D+00
      0.1459330000D+01 -0.3030682134D-02  0.8158538515D+00
 SP   1 1.00       0.000000000000
      0.4834560000D+00  0.1000000000D+01  0.1000000000D+01
 SP   1 1.00       0.000000000000
      0.1455850000D+00  0.1000000000D+01  0.1000000000D+01
 SP   1 1.00       0.000000000000
      0.4380000000D-01  0.1000000000D+01  0.1000000000D+01
 D   1 1.00       0.000000000000
      0.6260000000D+00  0.1000000000D+01
 ****
      3 0
 S   6 1.00       0.000000000000
      0.4563240000D+04  0.1966650249D-02
      0.6820240000D+03  0.1523060193D-01
      0.1549730000D+03  0.7612690966D-01
      0.4445530000D+02  0.2608010331D+00
      0.1302900000D+02  0.6164620782D+00
      0.1827730000D+01  0.2210060280D+00
 SP   3 1.00       0.000000000000
      0.2096420000D+02  0.1146600807D+00  0.4024869267D-01
      0.4803310000D+01  0.9199996477D+00  0.2375939567D+00
      0.1459330000D+01 -0.3030682134D-02  0.8158538515D+00
 SP   1 1.00       0.000000000000
      0.4834560000D+00  0.1000000000D+01  0.1000000000D+01
 SP   1 1.00       0.000000000000
      0.1455850000D+00  0.1000000000D+01  0.1000000000D+01
 SP   1 1.00       0.000000000000
      0.4380000000D-01  0.1000000000D+01  0.1000000000D+01
 D   1 1.00       0.000000000000
      0.6260000000D+00  0.1000000000D+01
 ****
      4 0
 S   6 1.00       0.000000000000
      0.4563240000D+04  0.1966650249D-02
      0.6820240000D+03  0.1523060193D-01
      0.1549730000D+03  0.7612690966D-01
      0.4445530000D+02  0.2608010331D+00
      0.1302900000D+02  0.6164620782D+00
      0.1827730000D+01  0.2210060280D+00
 SP   3 1.00       0.000000000000
      0.2096420000D+02  0.1146600807D+00  0.4024869267D-01
      0.4803310000D+01  0.9199996477D+00  0.2375939567D+00
      0.1459330000D+01 -0.3030682134D-02  0.8158538515D+00
 SP   1 1.00       0.000000000000
      0.4834560000D+00  0.1000000000D+01  0.1000000000D+01
 SP   1 1.00       0.000000000000
      0.1455850000D+00  0.1000000000D+01  0.1000000000D+01
 SP   1 1.00       0.000000000000
      0.4380000000D-01  0.1000000000D+01  0.1000000000D+01
 D   1 1.00       0.000000000000
      0.6260000000D+00  0.1000000000D+01
 ****
      5 0
 S   6 1.00       0.000000000000
      0.4563240000D+04  0.1966650249D-02
      0.6820240000D+03  0.1523060193D-01
      0.1549730000D+03  0.7612690966D-01
      0.4445530000D+02  0.2608010331D+00
      0.1302900000D+02  0.6164620782D+00
      0.1827730000D+01  0.2210060280D+00
 SP   3 1.00       0.000000000000
      0.2096420000D+02  0.1146600807D+00  0.4024869267D-01
      0.4803310000D+01  0.9199996477D+00  0.2375939567D+00
      0.1459330000D+01 -0.3030682134D-02  0.8158538515D+00
 SP   1 1.00       0.000000000000
      0.4834560000D+00  0.1000000000D+01  0.1000000000D+01
 SP   1 1.00       0.000000000000
      0.1455850000D+00  0.1000000000D+01  0.1000000000D+01
 SP   1 1.00       0.000000000000
      0.4380000000D-01  0.1000000000D+01  0.1000000000D+01
 D   1 1.00       0.000000000000
      0.6260000000D+00  0.1000000000D+01
 ****
      6 0
 S   6 1.00       0.000000000000
      0.8588500000D+04  0.1895150083D-02
      0.1297230000D+04  0.1438590063D-01
      0.2992960000D+03  0.7073200310D-01
      0.8737710000D+02  0.2400010105D+00
      0.2567890000D+02  0.5947970261D+00
      0.3740040000D+01  0.2808020123D+00
 SP   3 1.00       0.000000000000
      0.4211750000D+02  0.1138890124D+00  0.3651139738D-01
      0.9628370000D+01  0.9208111006D+00  0.2371529830D+00
      0.2853320000D+01 -0.3274470358D-02  0.8197019412D+00
 SP   1 1.00       0.000000000000
      0.9056610000D+00  0.1000000000D+01  0.1000000000D+01
 SP   1 1.00       0.000000000000
      0.2556110000D+00  0.1000000000D+01  0.1000000000D+01
 SP   1 1.00       0.000000000000
      0.8450000000D-01  0.1000000000D+01  0.1000000000D+01
 D   1 1.00       0.000000000000
      0.1292000000D+01  0.1000000000D+01
 ****
      7 0
 S   6 1.00       0.000000000000
      0.4563240000D+04  0.1966650249D-02
      0.6820240000D+03  0.1523060193D-01
      0.1549730000D+03  0.7612690966D-01
      0.4445530000D+02  0.2608010331D+00
      0.1302900000D+02  0.6164620782D+00
      0.1827730000D+01  0.2210060280D+00
 SP   3 1.00       0.000000000000
      0.2096420000D+02  0.1146600807D+00  0.4024869267D-01
      0.4803310000D+01  0.9199996477D+00  0.2375939567D+00
      0.1459330000D+01 -0.3030682134D-02  0.8158538515D+00
 SP   1 1.00       0.000000000000
      0.4834560000D+00  0.1000000000D+01  0.1000000000D+01
 SP   1 1.00       0.000000000000
      0.1455850000D+00  0.1000000000D+01  0.1000000000D+01
 SP   1 1.00       0.000000000000
      0.4380000000D-01  0.1000000000D+01  0.1000000000D+01
 D   1 1.00       0.000000000000
      0.6260000000D+00  0.1000000000D+01
 ****
      8 0
 S   6 1.00       0.000000000000
      0.4563240000D+04  0.1966650249D-02
      0.6820240000D+03  0.1523060193D-01
      0.1549730000D+03  0.7612690966D-01
      0.4445530000D+02  0.2608010331D+00
      0.1302900000D+02  0.6164620782D+00
      0.1827730000D+01  0.2210060280D+00
 SP   3 1.00       0.000000000000
      0.2096420000D+02  0.1146600807D+00  0.4024869267D-01
      0.4803310000D+01  0.9199996477D+00  0.2375939567D+00
      0.1459330000D+01 -0.3030682134D-02  0.8158538515D+00
 SP   1 1.00       0.000000000000
      0.4834560000D+00  0.1000000000D+01  0.1000000000D+01
 SP   1 1.00       0.000000000000
      0.1455850000D+00  0.1000000000D+01  0.1000000000D+01
 SP   1 1.00       0.000000000000
      0.4380000000D-01  0.1000000000D+01  0.1000000000D+01
 D   1 1.00       0.000000000000
      0.6260000000D+00  0.1000000000D+01
 ****
      9 0
 S   6 1.00       0.000000000000
      0.4563240000D+04  0.1966650249D-02
      0.6820240000D+03  0.1523060193D-01
      0.1549730000D+03  0.7612690966D-01
      0.4445530000D+02  0.2608010331D+00
      0.1302900000D+02  0.6164620782D+00
      0.1827730000D+01  0.2210060280D+00
 SP   3 1.00       0.000000000000
      0.2096420000D+02  0.1146600807D+00  0.4024869267D-01
      0.4803310000D+01  0.9199996477D+00  0.2375939567D+00
      0.1459330000D+01 -0.3030682134D-02  0.8158538515D+00
 SP   1 1.00       0.000000000000
      0.4834560000D+00  0.1000000000D+01  0.1000000000D+01
 SP   1 1.00       0.000000000000
      0.1455850000D+00  0.1000000000D+01  0.1000000000D+01
 SP   1 1.00       0.000000000000
      0.4380000000D-01  0.1000000000D+01  0.1000000000D+01
 D   1 1.00       0.000000000000
      0.6260000000D+00  0.1000000000D+01
 ****
     10 0
 S   6 1.00       0.000000000000
      0.4563240000D+04  0.1966650249D-02
      0.6820240000D+03  0.1523060193D-01
      0.1549730000D+03  0.7612690966D-01
      0.4445530000D+02  0.2608010331D+00
      0.1302900000D+02  0.6164620782D+00
      0.1827730000D+01  0.2210060280D+00
 SP   3 1.00       0.000000000000
      0.2096420000D+02  0.1146600807D+00  0.4024869267D-01
      0.4803310000D+01  0.9199996477D+00  0.2375939567D+00
      0.1459330000D+01 -0.3030682134D-02  0.8158538515D+00
 SP   1 1.00       0.000000000000
      0.4834560000D+00  0.1000000000D+01  0.1000000000D+01
 SP   1 1.00       0.000000000000
      0.1455850000D+00  0.1000000000D+01  0.1000000000D+01
 SP   1 1.00       0.000000000000
      0.4380000000D-01  0.1000000000D+01  0.1000000000D+01
 D   1 1.00       0.000000000000
      0.6260000000D+00  0.1000000000D+01
 ****
     11 0
 S   3 1.00       0.000000000000
      0.3386500000D+02  0.2549381454D-01
      0.5094790000D+01  0.1903731086D+00
      0.1158790000D+01  0.8521614860D+00
 S   1 1.00       0.000000000000
      0.3258400000D+00  0.1000000000D+01
 S   1 1.00       0.000000000000
      0.1027410000D+00  0.1000000000D+01
 P   1 1.00       0.000000000000
      0.7500000000D+00  0.1000000000D+01
 ****
     12 0
 S   3 1.00       0.000000000000
      0.3386500000D+02  0.2549381454D-01
      0.5094790000D+01  0.1903731086D+00
      0.1158790000D+01  0.8521614860D+00
 S   1 1.00       0.000000000000
      0.3258400000D+00  0.1000000000D+01
 S   1 1.00       0.000000000000
      0.1027410000D+00  0.1000000000D+01
 P   1 1.00       0.000000000000
      0.7500000000D+00  0.1000000000D+01
 ****
     13 0
 S   3 1.00       0.000000000000
      0.3386500000D+02  0.2549381454D-01
      0.5094790000D+01  0.1903731086D+00
      0.1158790000D+01  0.8521614860D+00
 S   1 1.00       0.000000000000
      0.3258400000D+00  0.1000000000D+01
 S   1 1.00       0.000000000000
      0.1027410000D+00  0.1000000000D+01
 P   1 1.00       0.000000000000
      0.7500000000D+00  0.1000000000D+01
 ****
     14 0
 S   3 1.00       0.000000000000
      0.3386500000D+02  0.2549381454D-01
      0.5094790000D+01  0.1903731086D+00
      0.1158790000D+01  0.8521614860D+00
 S   1 1.00       0.000000000000
      0.3258400000D+00  0.1000000000D+01
 S   1 1.00       0.000000000000
      0.1027410000D+00  0.1000000000D+01
 P   1 1.00       0.000000000000
      0.7500000000D+00  0.1000000000D+01
 ****
     15 0
 S   3 1.00       0.000000000000
      0.3386500000D+02  0.2549381454D-01
      0.5094790000D+01  0.1903731086D+00
      0.1158790000D+01  0.8521614860D+00
 S   1 1.00       0.000000000000
      0.3258400000D+00  0.1000000000D+01
 S   1 1.00       0.000000000000
      0.1027410000D+00  0.1000000000D+01
 P   1 1.00       0.000000000000
      0.7500000000D+00  0.1000000000D+01
 ****
     16 0
 S   3 1.00       0.000000000000
      0.3386500000D+02  0.2549381454D-01
      0.5094790000D+01  0.1903731086D+00
      0.1158790000D+01  0.8521614860D+00
 S   1 1.00       0.000000000000
      0.3258400000D+00  0.1000000000D+01
 S   1 1.00       0.000000000000
      0.1027410000D+00  0.1000000000D+01
 P   1 1.00       0.000000000000
      0.7500000000D+00  0.1000000000D+01
 ****
     17 0
 S   3 1.00       0.000000000000
      0.3386500000D+02  0.2549381454D-01
      0.5094790000D+01  0.1903731086D+00
      0.1158790000D+01  0.8521614860D+00
 S   1 1.00       0.000000000000
      0.3258400000D+00  0.1000000000D+01
 S   1 1.00       0.000000000000
      0.1027410000D+00  0.1000000000D+01
 P   1 1.00       0.000000000000
      0.7500000000D+00  0.1000000000D+01
 ****
     18 0
 S   3 1.00       0.000000000000
      0.3386500000D+02  0.2549381454D-01
      0.5094790000D+01  0.1903731086D+00
      0.1158790000D+01  0.8521614860D+00
 S   1 1.00       0.000000000000
      0.3258400000D+00  0.1000000000D+01
 S   1 1.00       0.000000000000
      0.1027410000D+00  0.1000000000D+01
 P   1 1.00       0.000000000000
      0.7500000000D+00  0.1000000000D+01
 ****
     19 0
 S   3 1.00       0.000000000000
      0.3386500000D+02  0.2549381454D-01
      0.5094790000D+01  0.1903731086D+00
      0.1158790000D+01  0.8521614860D+00
 S   1 1.00       0.000000000000
      0.3258400000D+00  0.1000000000D+01
 S   1 1.00       0.000000000000
      0.1027410000D+00  0.1000000000D+01
 P   1 1.00       0.000000000000
      0.7500000000D+00  0.1000000000D+01
 ****
     20 0
 S   3 1.00       0.000000000000
      0.3386500000D+02  0.2549381454D-01
      0.5094790000D+01  0.1903731086D+00
      0.1158790000D+01  0.8521614860D+00
 S   1 1.00       0.000000000000
      0.3258400000D+00  0.1000000000D+01
 S   1 1.00       0.000000000000
      0.1027410000D+00  0.1000000000D+01
 P   1 1.00       0.000000000000
      0.7500000000D+00  0.1000000000D+01
 ****
     21 0
 S   3 1.00       0.000000000000
      0.3386500000D+02  0.2549381454D-01
      0.5094790000D+01  0.1903731086D+00
      0.1158790000D+01  0.8521614860D+00
 S   1 1.00       0.000000000000
      0.3258400000D+00  0.1000000000D+01
 S   1 1.00       0.000000000000
      0.1027410000D+00  0.1000000000D+01
 P   1 1.00       0.000000000000
      0.7500000000D+00  0.1000000000D+01
 ****
     22 0
 S   3 1.00       0.000000000000
      0.3386500000D+02  0.2549381454D-01
      0.5094790000D+01  0.1903731086D+00
      0.1158790000D+01  0.8521614860D+00
 S   1 1.00       0.000000000000
      0.3258400000D+00  0.1000000000D+01
 S   1 1.00       0.000000000000
      0.1027410000D+00  0.1000000000D+01
 P   1 1.00       0.000000000000
      0.7500000000D+00  0.1000000000D+01
 ****
     23 0
 S   3 1.00       0.000000000000
      0.3386500000D+02  0.2549381454D-01
      0.5094790000D+01  0.1903731086D+00
      0.1158790000D+01  0.8521614860D+00
 S   1 1.00       0.000000000000
      0.3258400000D+00  0.1000000000D+01
 S   1 1.00       0.000000000000
      0.1027410000D+00  0.1000000000D+01
 P   1 1.00       0.000000000000
      0.7500000000D+00  0.1000000000D+01
 ****
     24 0
 S   3 1.00       0.000000000000
      0.3386500000D+02  0.2549381454D-01
      0.5094790000D+01  0.1903731086D+00
      0.1158790000D+01  0.8521614860D+00
 S   1 1.00       0.000000000000
      0.3258400000D+00  0.1000000000D+01
 S   1 1.00       0.000000000000
      0.1027410000D+00  0.1000000000D+01
 P   1 1.00       0.000000000000
      0.7500000000D+00  0.1000000000D+01
 ****
     25 0
 S   3 1.00       0.000000000000
      0.3386500000D+02  0.2549381454D-01
      0.5094790000D+01  0.1903731086D+00
      0.1158790000D+01  0.8521614860D+00
 S   1 1.00       0.000000000000
      0.3258400000D+00  0.1000000000D+01
 S   1 1.00       0.000000000000
      0.1027410000D+00  0.1000000000D+01
 P   1 1.00       0.000000000000
      0.7500000000D+00  0.1000000000D+01
 ****
     26 0
 S   3 1.00       0.000000000000
      0.3386500000D+02  0.2549381454D-01
      0.5094790000D+01  0.1903731086D+00
      0.1158790000D+01  0.8521614860D+00
 S   1 1.00       0.000000000000
      0.3258400000D+00  0.1000000000D+01
 S   1 1.00       0.000000000000
      0.1027410000D+00  0.1000000000D+01
 P   1 1.00       0.000000000000
      0.7500000000D+00  0.1000000000D+01
 ****
     27 0
 S   3 1.00       0.000000000000
      0.3386500000D+02  0.2549381454D-01
      0.5094790000D+01  0.1903731086D+00
      0.1158790000D+01  0.8521614860D+00
 S   1 1.00       0.000000000000
      0.3258400000D+00  0.1000000000D+01
 S   1 1.00       0.000000000000
      0.1027410000D+00  0.1000000000D+01
 P   1 1.00       0.000000000000
      0.7500000000D+00  0.1000000000D+01
 ****
     28 0
 S   3 1.00       0.000000000000
      0.3386500000D+02  0.2549381454D-01
      0.5094790000D+01  0.1903731086D+00
      0.1158790000D+01  0.8521614860D+00
 S   1 1.00       0.000000000000
      0.3258400000D+00  0.1000000000D+01
 S   1 1.00       0.000000000000
      0.1027410000D+00  0.1000000000D+01
 P   1 1.00       0.000000000000
      0.7500000000D+00  0.1000000000D+01
 ****
     29 0
 S   3 1.00       0.000000000000
      0.3386500000D+02  0.2549381454D-01
      0.5094790000D+01  0.1903731086D+00
      0.1158790000D+01  0.8521614860D+00
 S   1 1.00       0.000000000000
      0.3258400000D+00  0.1000000000D+01
 S   1 1.00       0.000000000000
      0.1027410000D+00  0.1000000000D+01
 P   1 1.00       0.000000000000
      0.7500000000D+00  0.1000000000D+01
 ****
     30 0
 S   3 1.00       0.000000000000
      0.3386500000D+02  0.2549381454D-01
      0.5094790000D+01  0.1903731086D+00
      0.1158790000D+01  0.8521614860D+00
 S   1 1.00       0.000000000000
      0.3258400000D+00  0.1000000000D+01
 S   1 1.00       0.000000000000
      0.1027410000D+00  0.1000000000D+01
 P   1 1.00       0.000000000000
      0.7500000000D+00  0.1000000000D+01
 ****

   340 basis functions,   520 primitive gaussians,   350 cartesian basis functions
    41 alpha electrons       41 beta electrons
       nuclear repulsion energy       576.9644604354 Hartrees.
 IExCor= 1614 DFT=T Ex+Corr=B971 ExCW=0 ScaHFX=  0.210000
 ScaDFX=  1.000000  1.000000  1.000000  1.000000 ScalE2=  1.000000  1.000000
 IRadAn=      5 IRanWt=     -1 IRanGd=            0 ICorTp=0 IEmpDi=  4
 NAtoms=   30 NActive=   30 NUniq=   30 SFac= 1.00D+00 NAtFMM=   60 NAOKFM=F Big=F
 Integral buffers will be    131072 words long.
 Raffenetti 2 integral format.
 Two-electron integral symmetry is turned off.
 Leave Link  301 at Wed Feb 18 10:54:36 2015, MaxMem=   524288000 cpu:         0.4
 (Enter /opt/g09/l302.exe)
 NPDir=0 NMtPBC=     1 NCelOv=     1 NCel=       1 NClECP=     1 NCelD=      1
         NCelK=      1 NCelE2=     1 NClLst=     1 CellRange=     0.0.
 One-electron integrals computed using PRISM.
 NBasis=   340 RedAO= T EigKep=  1.63D-05  NBF=   340
 NBsUse=   340 1.00D-06 EigRej= -1.00D+00 NBFU=   340
 Precomputing XC quadrature grid using
 IXCGrd= 4 IRadAn=           5 IRanWt=          -1 IRanGd=           0 AccXCQ= 0.00D+00.
 Generated NRdTot=       0 NPtTot=           0 NUsed=           0 NTot=          32
 NSgBfM=   350   350   350   350   350 MxSgAt=    30 MxSgA2=    30.
 Leave Link  302 at Wed Feb 18 10:54:37 2015, MaxMem=   524288000 cpu:         4.9
 (Enter /opt/g09/l303.exe)
 DipDrv:  MaxL=1.
 Leave Link  303 at Wed Feb 18 10:54:37 2015, MaxMem=   524288000 cpu:         0.5
 (Enter /opt/g09/l401.exe)
 ExpMin= 4.38D-02 ExpMax= 8.59D+03 ExpMxC= 1.30D+03 IAcc=3 IRadAn=         5 AccDes= 0.00D+00
 Harris functional with IExCor= 1614 and IRadAn=       5 diagonalized for initial guess.
 HarFok:  IExCor= 1614 AccDes= 0.00D+00 IRadAn=         5 IDoV= 1 UseB2=F ITyADJ=14
 ICtDFT=  3500011 ScaDFX=  1.000000  1.000000  1.000000  1.000000
 FoFCou: FMM=F IPFlag=           0 FMFlag=      100000 FMFlg1=           0
         NFxFlg=           0 DoJE=T BraDBF=F KetDBF=T FulRan=T
         wScrn=  0.000000 ICntrl=     500 IOpCl=  0 I1Cent=   200000004 NGrid=           0
         NMat0=    1 NMatS0=      1 NMatT0=    0 NMatD0=    1 NMtDS0=    0 NMtDT0=    0
 Symmetry not used in FoFCou.
 Harris En= -417.486096520873    
 JPrj=0 DoOrth=F DoCkMO=T.
 Mixing orbitals, IMix= 1 IMixAn=  0 NRI=1 NE=   41 Coef=  7.07106781D-01  7.07106781D-01
 Leave Link  401 at Wed Feb 18 10:54:42 2015, MaxMem=   524288000 cpu:        37.2
 (Enter /opt/g09/l502.exe)
 Closed shell SCF:
 Using DIIS extrapolation, IDIIS=  1040.
 Two-electron integral symmetry not used.
 IVT=      391010 IEndB=      391010 NGot=   524288000 MDV=   524036481
 LenX=   524036481 LenY=   523913540
 Requested convergence on RMS density matrix=1.00D-08 within 128 cycles.
 Requested convergence on MAX density matrix=1.00D-06.
 Requested convergence on             energy=1.00D-06.
 No special actions if energy rises.
 Fock matrices will be formed incrementally for  20 cycles.

 Cycle   1  Pass 1  IDiag  1:
 FoFJK:  IHMeth= 1 ICntrl=       0 DoSepK=F KAlg= 0 I1Cent=   0 FoldK=F
 IRaf= 870000000 NMat=   1 IRICut=       1 DoRegI=T DoRafI=F ISym2E= 0.
 FoFCou: FMM=F IPFlag=           0 FMFlag=      100000 FMFlg1=           0
         NFxFlg=           0 DoJE=F BraDBF=F KetDBF=F FulRan=T
         wScrn=  0.000000 ICntrl=       0 IOpCl=  0 I1Cent=           0 NGrid=           0
         NMat0=    1 NMatS0=      1 NMatT0=    0 NMatD0=    1 NMtDS0=    0 NMtDT0=    0
 Symmetry not used in FoFCou.
 E= -429.602812370365    
 DIIS: error= 7.17D-02 at cycle   1 NSaved=   1.
 NSaved= 1 IEnMin= 1 EnMin= -429.602812370365     IErMin= 1 ErrMin= 7.17D-02
 ErrMax= 7.17D-02  0.00D+00 EMaxC= 1.00D-01 BMatC= 1.12D+00 BMatP= 1.12D+00
 IDIUse=3 WtCom= 2.83D-01 WtEn= 7.17D-01
 Coeff-Com:  0.100D+01
 Coeff-En:   0.100D+01
 Coeff:      0.100D+01
 Gap=     0.034 Goal=   None    Shift=    0.000
 GapD=    0.034 DampG=0.250 DampE=0.500 DampFc=0.2500 IDamp=-1.
 Damping current iteration by 2.50D-01
 RMSDP=5.67D-02 MaxDP=3.67D+00              OVMax= 4.77D-01

 Cycle   2  Pass 1  IDiag  1:
 RMSU=  2.74D-03    CP:  7.67D-01
 E= -429.810932365482     Delta-E=       -0.208119995117 Rises=F Damp=T
 DIIS: error= 4.99D-02 at cycle   2 NSaved=   2.
 NSaved= 2 IEnMin= 2 EnMin= -429.810932365482     IErMin= 2 ErrMin= 4.99D-02
 ErrMax= 4.99D-02  0.00D+00 EMaxC= 1.00D-01 BMatC= 4.40D-01 BMatP= 1.12D+00
 IDIUse=3 WtCom= 5.01D-01 WtEn= 4.99D-01
 Coeff-Com: -0.883D+00 0.188D+01
 Coeff-En:   0.000D+00 0.100D+01
 Coeff:     -0.442D+00 0.144D+01
 Gap=     0.421 Goal=   None    Shift=    0.000
 RMSDP=4.29D-02 MaxDP=3.12D+00 DE=-2.08D-01 OVMax= 1.83D-01

 Cycle   3  Pass 1  IDiag  1:
 RMSU=  3.72D-03    CP:  5.76D-02  3.00D+00
 E= -430.192269231447     Delta-E=       -0.381336865965 Rises=F Damp=F
 DIIS: error= 6.75D-03 at cycle   3 NSaved=   3.
 NSaved= 3 IEnMin= 3 EnMin= -430.192269231447     IErMin= 3 ErrMin= 6.75D-03
 ErrMax= 6.75D-03  0.00D+00 EMaxC= 1.00D-01 BMatC= 1.08D-02 BMatP= 4.40D-01
 IDIUse=3 WtCom= 9.33D-01 WtEn= 6.75D-02
 Coeff-Com:  0.171D+00-0.186D+00 0.102D+01
 Coeff-En:   0.000D+00 0.000D+00 0.100D+01
 Coeff:      0.159D+00-0.173D+00 0.101D+01
 Gap=     0.246 Goal=   None    Shift=    0.000
 RMSDP=1.32D-03 MaxDP=5.49D-02 DE=-3.81D-01 OVMax= 4.29D-02

 Cycle   4  Pass 1  IDiag  1:
 RMSU=  1.16D-03    CP:  5.02D-02  3.00D+00  1.12D+00
 E= -430.201303683243     Delta-E=       -0.009034451796 Rises=F Damp=F
 DIIS: error= 2.10D-03 at cycle   4 NSaved=   4.
 NSaved= 4 IEnMin= 4 EnMin= -430.201303683243     IErMin= 4 ErrMin= 2.10D-03
 ErrMax= 2.10D-03  0.00D+00 EMaxC= 1.00D-01 BMatC= 2.76D-03 BMatP= 1.08D-02
 IDIUse=3 WtCom= 9.79D-01 WtEn= 2.10D-02
 Coeff-Com: -0.495D-02 0.194D-01 0.324D+00 0.662D+00
 Coeff-En:   0.000D+00 0.000D+00 0.108D+00 0.892D+00
 Coeff:     -0.485D-02 0.190D-01 0.319D+00 0.667D+00
 Gap=     0.258 Goal=   None    Shift=    0.000
 RMSDP=3.27D-04 MaxDP=1.30D-02 DE=-9.03D-03 OVMax= 1.00D-02

 Cycle   5  Pass 1  IDiag  1:
 RMSU=  2.65D-04    CP:  5.02D-02  3.00D+00  1.09D+00  8.73D-01
 E= -430.203579017845     Delta-E=       -0.002275334602 Rises=F Damp=F
 DIIS: error= 8.58D-04 at cycle   5 NSaved=   5.
 NSaved= 5 IEnMin= 5 EnMin= -430.203579017845     IErMin= 5 ErrMin= 8.58D-04
 ErrMax= 8.58D-04  0.00D+00 EMaxC= 1.00D-01 BMatC= 2.97D-04 BMatP= 2.76D-03
 IDIUse=3 WtCom= 9.91D-01 WtEn= 8.58D-03
 Coeff-Com: -0.230D-01 0.354D-01 0.791D-01 0.325D+00 0.584D+00
 Coeff-En:   0.000D+00 0.000D+00 0.000D+00 0.000D+00 0.100D+01
 Coeff:     -0.228D-01 0.351D-01 0.784D-01 0.322D+00 0.587D+00
 Gap=     0.260 Goal=   None    Shift=    0.000
 RMSDP=9.60D-05 MaxDP=4.80D-03 DE=-2.28D-03 OVMax= 2.92D-03

 Cycle   6  Pass 1  IDiag  1:
 RMSU=  8.65D-05    CP:  4.99D-02  3.00D+00  1.08D+00  8.95D-01  1.00D+00
 E= -430.203855157261     Delta-E=       -0.000276139416 Rises=F Damp=F
 DIIS: error= 1.85D-04 at cycle   6 NSaved=   6.
 NSaved= 6 IEnMin= 6 EnMin= -430.203855157261     IErMin= 6 ErrMin= 1.85D-04
 ErrMax= 1.85D-04  0.00D+00 EMaxC= 1.00D-01 BMatC= 8.61D-06 BMatP= 2.97D-04
 IDIUse=3 WtCom= 9.98D-01 WtEn= 1.85D-03
 Coeff-Com: -0.182D-02 0.255D-02-0.996D-03 0.342D-01 0.161D+00 0.806D+00
 Coeff-En:   0.000D+00 0.000D+00 0.000D+00 0.000D+00 0.000D+00 0.100D+01
 Coeff:     -0.182D-02 0.254D-02-0.994D-03 0.341D-01 0.160D+00 0.806D+00
 Gap=     0.260 Goal=   None    Shift=    0.000
 RMSDP=2.51D-05 MaxDP=1.24D-03 DE=-2.76D-04 OVMax= 9.49D-04

 Cycle   7  Pass 1  IDiag  1:
 RMSU=  1.51D-05    CP:  4.99D-02  3.00D+00  1.08D+00  9.02D-01  1.06D+00
                    CP:  1.04D+00
 E= -430.203862718127     Delta-E=       -0.000007560866 Rises=F Damp=F
 DIIS: error= 5.43D-05 at cycle   7 NSaved=   7.
 NSaved= 7 IEnMin= 7 EnMin= -430.203862718127     IErMin= 7 ErrMin= 5.43D-05
 ErrMax= 5.43D-05  0.00D+00 EMaxC= 1.00D-01 BMatC= 4.22D-07 BMatP= 8.61D-06
 IDIUse=1 WtCom= 1.00D+00 WtEn= 0.00D+00
 Coeff-Com:  0.467D-03-0.797D-03-0.321D-02 0.195D-02 0.374D-01 0.272D+00
 Coeff-Com:  0.692D+00
 Coeff:      0.467D-03-0.797D-03-0.321D-02 0.195D-02 0.374D-01 0.272D+00
 Coeff:      0.692D+00
 Gap=     0.260 Goal=   None    Shift=    0.000
 RMSDP=6.49D-06 MaxDP=4.17D-04 DE=-7.56D-06 OVMax= 2.05D-04

 Cycle   8  Pass 1  IDiag  1:
 RMSU=  4.15D-06    CP:  4.98D-02  3.00D+00  1.08D+00  9.04D-01  1.07D+00
                    CP:  1.06D+00  8.27D-01
 E= -430.203863163480     Delta-E=       -0.000000445353 Rises=F Damp=F
 DIIS: error= 1.07D-05 at cycle   8 NSaved=   8.
 NSaved= 8 IEnMin= 8 EnMin= -430.203863163480     IErMin= 8 ErrMin= 1.07D-05
 ErrMax= 1.07D-05  0.00D+00 EMaxC= 1.00D-01 BMatC= 3.39D-08 BMatP= 4.22D-07
 IDIUse=1 WtCom= 1.00D+00 WtEn= 0.00D+00
 Coeff-Com:  0.136D-03-0.249D-03-0.126D-02-0.105D-02 0.430D-02 0.486D-01
 Coeff-Com:  0.253D+00 0.696D+00
 Coeff:      0.136D-03-0.249D-03-0.126D-02-0.105D-02 0.430D-02 0.486D-01
 Coeff:      0.253D+00 0.696D+00
 Gap=     0.260 Goal=   None    Shift=    0.000
 RMSDP=1.54D-06 MaxDP=5.08D-05 DE=-4.45D-07 OVMax= 5.90D-05

 Cycle   9  Pass 1  IDiag  1:
 RMSU=  8.98D-07    CP:  4.98D-02  3.00D+00  1.08D+00  9.05D-01  1.08D+00
                    CP:  1.06D+00  8.69D-01  9.54D-01
 E= -430.203863190946     Delta-E=       -0.000000027466 Rises=F Damp=F
 DIIS: error= 5.91D-06 at cycle   9 NSaved=   9.
 NSaved= 9 IEnMin= 9 EnMin= -430.203863190946     IErMin= 9 ErrMin= 5.91D-06
 ErrMax= 5.91D-06  0.00D+00 EMaxC= 1.00D-01 BMatC= 6.69D-09 BMatP= 3.39D-08
 IDIUse=1 WtCom= 1.00D+00 WtEn= 0.00D+00
 Coeff-Com:  0.424D-06-0.145D-04-0.238D-03-0.601D-03-0.170D-02-0.458D-02
 Coeff-Com:  0.574D-01 0.357D+00 0.593D+00
 Coeff:      0.424D-06-0.145D-04-0.238D-03-0.601D-03-0.170D-02-0.458D-02
 Coeff:      0.574D-01 0.357D+00 0.593D+00
 Gap=     0.260 Goal=   None    Shift=    0.000
 RMSDP=4.87D-07 MaxDP=1.70D-05 DE=-2.75D-08 OVMax= 1.37D-05

 Cycle  10  Pass 1  IDiag  1:
 RMSU=  2.58D-07    CP:  4.98D-02  3.00D+00  1.08D+00  9.05D-01  1.08D+00
                    CP:  1.06D+00  8.78D-01  9.86D-01  7.43D-01
 E= -430.203863197096     Delta-E=       -0.000000006149 Rises=F Damp=F
 DIIS: error= 9.04D-07 at cycle  10 NSaved=  10.
 NSaved=10 IEnMin=10 EnMin= -430.203863197096     IErMin=10 ErrMin= 9.04D-07
 ErrMax= 9.04D-07  0.00D+00 EMaxC= 1.00D-01 BMatC= 1.20D-10 BMatP= 6.69D-09
 IDIUse=1 WtCom= 1.00D+00 WtEn= 0.00D+00
 Coeff-Com: -0.430D-05 0.365D-05-0.281D-04-0.184D-03-0.764D-03-0.326D-02
 Coeff-Com:  0.109D-01 0.934D-01 0.201D+00 0.699D+00
 Coeff:     -0.430D-05 0.365D-05-0.281D-04-0.184D-03-0.764D-03-0.326D-02
 Coeff:      0.109D-01 0.934D-01 0.201D+00 0.699D+00
 Gap=     0.260 Goal=   None    Shift=    0.000
 RMSDP=9.95D-08 MaxDP=7.49D-06 DE=-6.15D-09 OVMax= 2.64D-06

 Cycle  11  Pass 1  IDiag  1:
 RMSU=  6.78D-08    CP:  4.98D-02  3.00D+00  1.08D+00  9.05D-01  1.08D+00
                    CP:  1.06D+00  8.80D-01  9.90D-01  7.85D-01  8.97D-01
 E= -430.203863197196     Delta-E=       -0.000000000100 Rises=F Damp=F
 DIIS: error= 4.85D-07 at cycle  11 NSaved=  11.
 NSaved=11 IEnMin=11 EnMin= -430.203863197196     IErMin=11 ErrMin= 4.85D-07
 ErrMax= 4.85D-07  0.00D+00 EMaxC= 1.00D-01 BMatC= 2.50D-11 BMatP= 1.20D-10
 IDIUse=1 WtCom= 1.00D+00 WtEn= 0.00D+00
 Coeff-Com: -0.271D-06 0.613D-06 0.102D-04-0.333D-04-0.168D-03-0.870D-03
 Coeff-Com: -0.100D-02 0.191D-02 0.247D-01 0.344D+00 0.632D+00
 Coeff:     -0.271D-06 0.613D-06 0.102D-04-0.333D-04-0.168D-03-0.870D-03
 Coeff:     -0.100D-02 0.191D-02 0.247D-01 0.344D+00 0.632D+00
 Gap=     0.260 Goal=   None    Shift=    0.000
 RMSDP=4.02D-08 MaxDP=1.61D-06 DE=-1.00D-10 OVMax= 1.09D-06

 Cycle  12  Pass 1  IDiag  1:
 RMSU=  1.69D-08    CP:  4.98D-02  3.00D+00  1.08D+00  9.05D-01  1.08D+00
                    CP:  1.06D+00  8.80D-01  9.93D-01  7.87D-01  9.56D-01
                    CP:  8.47D-01
 E= -430.203863197226     Delta-E=       -0.000000000030 Rises=F Damp=F
 DIIS: error= 4.04D-08 at cycle  12 NSaved=  12.
 NSaved=12 IEnMin=12 EnMin= -430.203863197226     IErMin=12 ErrMin= 4.04D-08
 ErrMax= 4.04D-08  0.00D+00 EMaxC= 1.00D-01 BMatC= 5.88D-13 BMatP= 2.50D-11
 IDIUse=1 WtCom= 1.00D+00 WtEn= 0.00D+00
 Coeff-Com:  0.166D-06-0.292D-07 0.460D-05-0.306D-05-0.211D-04-0.133D-03
 Coeff-Com: -0.828D-03-0.376D-02-0.130D-02 0.834D-01 0.220D+00 0.702D+00
 Coeff:      0.166D-06-0.292D-07 0.460D-05-0.306D-05-0.211D-04-0.133D-03
 Coeff:     -0.828D-03-0.376D-02-0.130D-02 0.834D-01 0.220D+00 0.702D+00
 Gap=     0.260 Goal=   None    Shift=    0.000
 RMSDP=7.01D-09 MaxDP=2.67D-07 DE=-2.99D-11 OVMax= 1.42D-07

 SCF Done:  E(RB971) =  -430.203863197     A.U. after   12 cycles
            NFock= 12  Conv=0.70D-08     -V/T= 2.0043
 KE= 4.283444661460D+02 PE=-2.153322496138D+03 EE= 7.178097063590D+02
 Leave Link  502 at Wed Feb 18 10:57:00 2015, MaxMem=   524288000 cpu:      1098.3
 (Enter /opt/g09/l801.exe)
 DoSCS=F DFT=T ScalE2(SS,OS)=  1.000000  1.000000
 Range of M.O.s used for correlation:     1   340
 NBasis=   340 NAE=    41 NBE=    41 NFC=     0 NFV=     0
 NROrb=    340 NOA=    41 NOB=    41 NVA=   299 NVB=   299

 **** Warning!!: The largest alpha MO coefficient is  0.70620870D+02

 Leave Link  801 at Wed Feb 18 10:57:00 2015, MaxMem=   524288000 cpu:         0.3
 (Enter /opt/g09/l1101.exe)
 Using compressed storage, NAtomX=    30.
 Will process     31 centers per pass.
 Leave Link 1101 at Wed Feb 18 10:57:01 2015, MaxMem=   524288000 cpu:         6.9
 (Enter /opt/g09/l1102.exe)
 Symmetrizing basis deriv contribution to polar:
 IMax=3 JMax=2 DiffMx= 0.00D+00
 Leave Link 1102 at Wed Feb 18 10:57:01 2015, MaxMem=   524288000 cpu:         0.5
 (Enter /opt/g09/l1110.exe)
 Forming Gx(P) for the SCF density, NAtomX=    30.
 Integral derivatives from FoFJK, PRISM(SPDF).
 Do as many integral derivatives as possible in FoFJK.
 G2DrvN: MDV=     524287656.
 G2DrvN: will do    31 centers at a time, making    1 passes.
 Calling FoFCou, ICntrl=  3107 FMM=F I1Cent=   0 AccDes= 0.00D+00.
 FoFJK:  IHMeth= 1 ICntrl=    3107 DoSepK=F KAlg= 0 I1Cent=   0 FoldK=F
 IRaf=         0 NMat=   1 IRICut=       1 DoRegI=T DoRafI=F ISym2E= 0.
 FoFCou: FMM=F IPFlag=           0 FMFlag=      100000 FMFlg1=           0
         NFxFlg=           0 DoJE=F BraDBF=F KetDBF=F FulRan=T
         wScrn=  0.000000 ICntrl=    3107 IOpCl=  0 I1Cent=           0 NGrid=           0
         NMat0=    1 NMatS0=      1 NMatT0=    0 NMatD0=    1 NMtDS0=    0 NMtDT0=    0
 Symmetry not used in FoFCou.
 End of G2Drv F.D. properties file   721 does not exist.
 End of G2Drv F.D. properties file   722 does not exist.
 End of G2Drv F.D. properties file   788 does not exist.
 Leave Link 1110 at Wed Feb 18 11:04:10 2015, MaxMem=   524288000 cpu:      3413.3
 (Enter /opt/g09/l1002.exe)
 Minotr:  Closed shell wavefunction.
          IDoAtm=111111111111111111111111111111
          Direct CPHF calculation.
          Differentiating once with respect to electric field.
                with respect to dipole field.
          Differentiating once with respect to nuclear coordinates.
          Requested convergence is 1.0D-08 RMS, and 1.0D-07 maximum.
          Secondary convergence is 1.0D-12 RMS, and 1.0D-12 maximum.
          NewPWx=T KeepS1=F KeepF1=F KeepIn=T MapXYZ=F SortEE=F KeepMc=T.
          MDV=     524287356 using IRadAn=       1.
 Generate precomputed XC quadrature information.
          Solving linear equations simultaneously, MaxMat=       0.
 FoFJK:  IHMeth= 1 ICntrl=       0 DoSepK=F KAlg= 0 I1Cent=   0 FoldK=F
 IRaf= 870000000 NMat=  93 IRICut=     232 DoRegI=T DoRafI=T ISym2E= 0.
 FoFCou: FMM=F IPFlag=           0 FMFlag=      100000 FMFlg1=           0
         NFxFlg=           0 DoJE=F BraDBF=F KetDBF=F FulRan=T
         wScrn=  0.000000 ICntrl=       0 IOpCl=  0 I1Cent=           0 NGrid=           0
         NMat0=   93 NMatS0=     93 NMatT0=    0 NMatD0=   93 NMtDS0=    0 NMtDT0=    0
 Symmetry not used in FoFCou.
          There are    93 degrees of freedom in the 1st order CPHF.  IDoFFX=6 NUNeed=     3.
     90 vectors produced by pass  0 Test12= 1.32D-14 1.08D-09 XBig12= 7.06D+01 1.15D+00.
 AX will form    90 AO Fock derivatives at one time.
     90 vectors produced by pass  1 Test12= 1.32D-14 1.08D-09 XBig12= 5.68D+00 2.45D-01.
     90 vectors produced by pass  2 Test12= 1.32D-14 1.08D-09 XBig12= 4.09D-02 1.73D-02.
     90 vectors produced by pass  3 Test12= 1.32D-14 1.08D-09 XBig12= 9.07D-05 1.22D-03.
     90 vectors produced by pass  4 Test12= 1.32D-14 1.08D-09 XBig12= 1.54D-07 3.57D-05.
     54 vectors produced by pass  5 Test12= 1.32D-14 1.08D-09 XBig12= 1.65D-10 1.24D-06.
      6 vectors produced by pass  6 Test12= 1.32D-14 1.08D-09 XBig12= 1.65D-13 4.01D-08.
      3 vectors produced by pass  7 Test12= 1.32D-14 1.08D-09 XBig12= 2.48D-15 4.83D-09.
      3 vectors produced by pass  8 Test12= 1.32D-14 1.08D-09 XBig12= 1.14D-15 4.82D-09.
      3 vectors produced by pass  9 Test12= 1.32D-14 1.08D-09 XBig12= 9.73D-16 3.86D-09.
      3 vectors produced by pass 10 Test12= 1.32D-14 1.08D-09 XBig12= 2.39D-15 4.85D-09.
      2 vectors produced by pass 11 Test12= 1.32D-14 1.08D-09 XBig12= 7.85D-16 3.46D-09.
 InvSVY:  IOpt=1 It=  1 EMax= 1.24D-14
 Solved reduced A of dimension   524 with    93 vectors.
 FullF1:  Do perturbations    1 to     3.
 Isotropic polarizability for W=    0.000000      115.36 Bohr**3.
 End of Minotr F.D. properties file   721 does not exist.
 End of Minotr F.D. properties file   722 does not exist.
 End of Minotr F.D. properties file   788 does not exist.
 Leave Link 1002 at Wed Feb 18 11:16:12 2015, MaxMem=   524288000 cpu:      5748.3
 (Enter /opt/g09/l701.exe)
 Compute integral second derivatives.
 ... and contract with generalized density number  0.
 Leave Link  701 at Wed Feb 18 11:16:12 2015, MaxMem=   524288000 cpu:         3.2
 (Enter /opt/g09/l702.exe)
 L702 exits ... SP integral derivatives will be done elsewhere.
 Leave Link  702 at Wed Feb 18 11:16:12 2015, MaxMem=   524288000 cpu:         0.2
 (Enter /opt/g09/l703.exe)
 Compute integral second derivatives, UseDBF=F ICtDFT=           0.
 Integral derivatives from FoFJK, PRISM(SPDF).
 Calling FoFJK, ICntrl=    100127 FMM=F ISym2X=0 I1Cent= 0 IOpClX= 0 NMat=1 NMatS=1 NMatT=0.
 FoFJK:  IHMeth= 1 ICntrl=  100127 DoSepK=F KAlg= 0 I1Cent=   0 FoldK=F
 IRaf=         0 NMat=   1 IRICut=       1 DoRegI=T DoRafI=F ISym2E= 0.
 FoFCou: FMM=F IPFlag=           0 FMFlag=      100000 FMFlg1=         800
         NFxFlg=           0 DoJE=F BraDBF=F KetDBF=F FulRan=T
         wScrn=  0.000000 ICntrl=  100127 IOpCl=  0 I1Cent=           0 NGrid=           0
         NMat0=    1 NMatS0=      1 NMatT0=    0 NMatD0=    1 NMtDS0=    0 NMtDT0=    0
 Symmetry not used in FoFCou.
 Leave Link  703 at Wed Feb 18 11:25:40 2015, MaxMem=   524288000 cpu:      4516.4
 (Enter /opt/g09/l716.exe)
 Dipole        = 3.83309721D-01-2.39715266D-01-1.48264922D-01
 Polarizability= 1.11497840D+02 4.94208721D+00 1.11450671D+02
                 1.01851118D+01 5.86918344D+00 1.23141565D+02
 -------------------------------------------------------------------
 Center     Atomic                   Forces (Hartrees/Bohr)
 Number     Number              X              Y              Z
 -------------------------------------------------------------------
      1        6          -0.000007732    0.000005022    0.000004894
      2        6           0.000003000   -0.000000803   -0.000006367
      3        6          -0.000003101   -0.000001565    0.000002764
      4        6           0.000002287    0.000004577   -0.000000331
      5        6           0.000003848    0.000001731   -0.000000126
      6        8           0.000001190   -0.000000243    0.000000714
      7        6           0.000001632    0.000003121   -0.000001019
      8        6           0.000009104    0.000003537   -0.000001832
      9        6          -0.000002311   -0.000005146    0.000000394
     10        6          -0.000006254   -0.000008214    0.000005900
     11        1          -0.000000752   -0.000000349   -0.000003691
     12        1           0.000004465   -0.000000844    0.000001548
     13        1           0.000000582   -0.000002796   -0.000000377
     14        1           0.000000343    0.000000094    0.000003847
     15        1          -0.000001111    0.000000431   -0.000000087
     16        1           0.000001046   -0.000000395   -0.000000929
     17        1           0.000001668    0.000000137   -0.000001260
     18        1          -0.000001646   -0.000000796    0.000000092
     19        1           0.000000515   -0.000001816   -0.000000909
     20        1          -0.000002352   -0.000001505    0.000000805
     21        1          -0.000000028   -0.000001272    0.000000171
     22        1          -0.000006741   -0.000002113    0.000003530
     23        1          -0.000000131   -0.000000755    0.000000451
     24        1          -0.000003436    0.000000094   -0.000001758
     25        1          -0.000000454   -0.000000704   -0.000000298
     26        1           0.000001051    0.000000412    0.000000427
     27        1           0.000000140    0.000000974   -0.000000782
     28        1           0.000005338    0.000003893   -0.000002985
     29        1           0.000000251    0.000000495   -0.000001135
     30        1          -0.000000415    0.000004798   -0.000001651
 -------------------------------------------------------------------
 Cartesian Forces:  Max     0.000009104 RMS     0.000002904
 FormGI is forming the generalized inverse of G from B-inverse, IUseBI=4.
 Leave Link  716 at Wed Feb 18 11:25:40 2015, MaxMem=   524288000 cpu:         0.4
 (Enter /opt/g09/l103.exe)

 GradGradGradGradGradGradGradGradGradGradGradGradGradGradGradGradGradGrad
 Berny optimization.
 Red2BG is reusing G-inverse.
 Internal  Forces:  Max     0.000007415 RMS     0.000001339
 Search for a local minimum.
 Step number   1 out of a maximum of  163
 All quantities printed in internal units (Hartrees-Bohrs-Radians)
 RMS Force = .13390D-05 SwitMx=.10000D-02 MixMth= 2
 Mixed Optimization -- En-DIIS/RFO-DIIS
 Second derivative matrix not updated -- analytic derivatives used.
 ITU=  0
     Eigenvalues ---    0.00090   0.00171   0.00204   0.00212   0.00258
     Eigenvalues ---    0.00297   0.00322   0.00352   0.00768   0.03131
     Eigenvalues ---    0.03566   0.03707   0.03812   0.03875   0.04038
     Eigenvalues ---    0.04091   0.04359   0.04388   0.04423   0.04513
     Eigenvalues ---    0.04534   0.04550   0.04578   0.04598   0.04951
     Eigenvalues ---    0.06234   0.06349   0.06797   0.06835   0.07039
     Eigenvalues ---    0.07399   0.09806   0.10189   0.10790   0.11742
     Eigenvalues ---    0.11776   0.11815   0.11949   0.12053   0.12448
     Eigenvalues ---    0.12597   0.13613   0.13775   0.14217   0.14289
     Eigenvalues ---    0.14546   0.14700   0.15693   0.17898   0.18286
     Eigenvalues ---    0.18643   0.21337   0.21718   0.23465   0.23924
     Eigenvalues ---    0.26254   0.26689   0.27133   0.28072   0.28397
     Eigenvalues ---    0.29484   0.30719   0.31189   0.31785   0.32038
     Eigenvalues ---    0.32272   0.32675   0.32881   0.33007   0.33095
     Eigenvalues ---    0.33197   0.33248   0.33272   0.33412   0.33423
     Eigenvalues ---    0.33538   0.33551   0.33568   0.33982   0.33993
     Eigenvalues ---    0.34051   0.34199   0.35362   0.41724
 RFO step:  Lambda= 0.00000000D+00 EMin= 9.02485144D-04
 Linear search not attempted -- first point.
 Iteration  1 RMS(Cart)=  0.00000597 RMS(Int)=  0.00000000
 Iteration  2 RMS(Cart)=  0.00000000 RMS(Int)=  0.00000000
 ITry= 1 IFail=0 DXMaxC= 2.66D-05 DCOld= 1.00D+10 DXMaxT= 3.00D-01 DXLimC= 3.00D+00 Rises=F
 Variable       Old X    -DE/DX   Delta X   Delta X   Delta X     New X
                                 (Linear)    (Quad)   (Total)
    R1        2.90177   0.00000   0.00000   0.00001   0.00001   2.90178
    R2        2.07016   0.00000   0.00000  -0.00001  -0.00001   2.07014
    R3        2.07268  -0.00001   0.00000  -0.00002  -0.00002   2.07267
    R4        2.06979   0.00000   0.00000   0.00001   0.00001   2.06980
    R5        2.91418   0.00000   0.00000   0.00000   0.00000   2.91418
    R6        2.07438   0.00000   0.00000  -0.00001  -0.00001   2.07437
    R7        2.07510   0.00000   0.00000   0.00000   0.00000   2.07510
    R8        2.91004   0.00000   0.00000   0.00000   0.00000   2.91004
    R9        2.07590   0.00000   0.00000   0.00000   0.00000   2.07590
   R10        2.07685   0.00000   0.00000   0.00001   0.00001   2.07686
   R11        2.88789   0.00000   0.00000   0.00000   0.00000   2.88789
   R12        2.07216   0.00000   0.00000   0.00001   0.00001   2.07217
   R13        2.07234   0.00000   0.00000  -0.00001  -0.00001   2.07233
   R14        2.68210   0.00000   0.00000   0.00000   0.00000   2.68210
   R15        2.08251   0.00000   0.00000  -0.00001  -0.00001   2.08250
   R16        2.07857   0.00000   0.00000   0.00000   0.00000   2.07858
   R17        2.72380   0.00000   0.00000  -0.00001  -0.00001   2.72380
   R18        2.91133   0.00000   0.00000   0.00000   0.00000   2.91133
   R19        2.91025   0.00000   0.00000  -0.00001  -0.00001   2.91023
   R20        2.89944   0.00000   0.00000   0.00000   0.00000   2.89945
   R21        2.06912   0.00001   0.00000   0.00002   0.00002   2.06914
   R22        2.06884   0.00000   0.00000   0.00000   0.00000   2.06885
   R23        2.06982   0.00000   0.00000  -0.00001  -0.00001   2.06981
   R24        2.06961   0.00000   0.00000   0.00000   0.00000   2.06961
   R25        2.06902   0.00000   0.00000   0.00000   0.00000   2.06902
   R26        2.06958   0.00000   0.00000   0.00001   0.00001   2.06959
   R27        2.06807  -0.00001   0.00000  -0.00002  -0.00002   2.06805
   R28        2.06916   0.00000   0.00000   0.00000   0.00000   2.06916
   R29        2.06802   0.00000   0.00000   0.00002   0.00002   2.06803
    A1        1.95294   0.00000   0.00000   0.00000   0.00000   1.95294
    A2        1.93726   0.00000   0.00000   0.00000   0.00000   1.93726
    A3        1.93760   0.00000   0.00000  -0.00001  -0.00001   1.93759
    A4        1.87761   0.00000   0.00000   0.00000   0.00000   1.87761
    A5        1.87548   0.00000   0.00000   0.00000   0.00000   1.87548
    A6        1.87973   0.00000   0.00000   0.00000   0.00000   1.87974
    A7        1.99300   0.00000   0.00000  -0.00001  -0.00001   1.99299
    A8        1.90242   0.00000   0.00000   0.00000   0.00000   1.90243
    A9        1.91021   0.00000   0.00000   0.00000   0.00000   1.91021
   A10        1.88713   0.00000   0.00000   0.00000   0.00000   1.88714
   A11        1.91962   0.00000   0.00000   0.00000   0.00000   1.91962
   A12        1.84545   0.00000   0.00000   0.00000   0.00000   1.84545
   A13        2.02390   0.00000   0.00000   0.00001   0.00001   2.02391
   A14        1.89488   0.00000   0.00000   0.00000   0.00000   1.89487
   A15        1.89715   0.00000   0.00000  -0.00001  -0.00001   1.89715
   A16        1.88846   0.00000   0.00000   0.00001   0.00001   1.88847
   A17        1.90179   0.00000   0.00000   0.00000   0.00000   1.90179
   A18        1.84998   0.00000   0.00000   0.00000   0.00000   1.84998
   A19        1.98638   0.00000   0.00000   0.00000   0.00000   1.98638
   A20        1.93324   0.00000   0.00000  -0.00001  -0.00001   1.93323
   A21        1.90418   0.00000   0.00000   0.00000   0.00000   1.90417
   A22        1.89800   0.00000   0.00000   0.00000   0.00000   1.89800
   A23        1.88170   0.00000   0.00000   0.00001   0.00001   1.88171
   A24        1.85511   0.00000   0.00000   0.00000   0.00000   1.85511
   A25        1.87728   0.00000   0.00000   0.00000   0.00000   1.87728
   A26        1.91184   0.00000   0.00000  -0.00001  -0.00001   1.91183
   A27        1.92727   0.00000   0.00000   0.00000   0.00000   1.92727
   A28        1.93581   0.00000   0.00000   0.00001   0.00001   1.93581
   A29        1.93426   0.00000   0.00000   0.00000   0.00000   1.93426
   A30        1.87777   0.00000   0.00000   0.00000   0.00000   1.87778
   A31        2.06592   0.00000   0.00000   0.00000   0.00000   2.06592
   A32        1.93680   0.00000   0.00000   0.00000   0.00000   1.93680
   A33        1.94205   0.00000   0.00000   0.00000   0.00000   1.94205
   A34        1.80674   0.00000   0.00000   0.00000   0.00000   1.80675
   A35        1.93374   0.00000   0.00000  -0.00001  -0.00001   1.93373
   A36        1.91957   0.00000   0.00000   0.00000   0.00000   1.91957
   A37        1.92121   0.00000   0.00000   0.00001   0.00001   1.92122
   A38        1.92271   0.00000   0.00000   0.00000   0.00000   1.92270
   A39        1.95608   0.00000   0.00000   0.00001   0.00001   1.95609
   A40        1.92243   0.00000   0.00000   0.00000   0.00000   1.92243
   A41        1.89467   0.00000   0.00000   0.00000   0.00000   1.89467
   A42        1.89133   0.00000   0.00000  -0.00001  -0.00001   1.89132
   A43        1.87484   0.00000   0.00000   0.00000   0.00000   1.87484
   A44        1.92090   0.00000   0.00000   0.00000   0.00000   1.92090
   A45        1.95492   0.00000   0.00000   0.00001   0.00001   1.95493
   A46        1.92490   0.00000   0.00000   0.00000   0.00000   1.92490
   A47        1.87642   0.00000   0.00000  -0.00001  -0.00001   1.87641
   A48        1.89022   0.00000   0.00000   0.00000   0.00000   1.89022
   A49        1.89468   0.00000   0.00000  -0.00001  -0.00001   1.89467
   A50        1.92140   0.00000   0.00000   0.00001   0.00001   1.92141
   A51        1.93388   0.00000   0.00000   0.00000   0.00000   1.93388
   A52        1.92242   0.00000   0.00000  -0.00001  -0.00001   1.92241
   A53        1.89770   0.00000   0.00000   0.00001   0.00001   1.89772
   A54        1.88930   0.00000   0.00000   0.00000   0.00000   1.88930
   A55        1.89828   0.00000   0.00000   0.00000   0.00000   1.89828
    D1       -1.11806   0.00000   0.00000   0.00000   0.00000  -1.11806
    D2        3.05289   0.00000   0.00000   0.00000   0.00000   3.05288
    D3        1.04227   0.00000   0.00000  -0.00001  -0.00001   1.04226
    D4        0.97969   0.00000   0.00000   0.00000   0.00000   0.97970
    D5       -1.13255   0.00000   0.00000   0.00000   0.00000  -1.13254
    D6        3.14002   0.00000   0.00000   0.00000   0.00000   3.14002
    D7        3.06986   0.00000   0.00000   0.00000   0.00000   3.06986
[...]
 0453,0.00000849,0.00000034,-0.00000008,0.00002439,0.00000213,-0.000008
 71,-0.00000037,0.00000505,0.00001076,0.00001319,0.00004451,-0.00000467
 ,0.00000296,-0.00000154,0.00000688,-0.00001182,-0.00001331,-0.00012229
 ,0.00008077,-0.00006762,-0.00010217,0.00016563,0.00028499,-0.00021373,
 0.00086508,0.00003847,-0.00751797,0.00061911,-0.00916972,-0.01273149,0
 .00157424,-0.01140947,-0.02336008,0.05303242,0.00000114,0.00000522,0.0
 0001165,0.00004784,0.00000211,-0.00001090,-0.00003348,-0.00001854,0.00
 008957,0.00004331,0.00029471,-0.00000890,-0.00017338,-0.00013946,0.000
 70941,-0.00005287,0.00141955,-0.00022328,-0.00457151,-0.00173141,-0.00
 594765,-0.12917457,0.02246445,-0.17414559,-0.00010882,-0.00030076,-0.0
 0005769,0.00020962,-0.00090431,-0.00007887,0.00002239,0.00001433,-0.00
 001620,-0.00001398,0.00000401,-0.00000814,0.00000005,-0.00001807,-0.00
 000708,-0.00002267,-0.00001513,-0.00003163,-0.00003159,0.00001706,0.00
 003122,-0.00002431,-0.00000475,-0.00003853,0.00001630,-0.00000220,-0.0
 0000507,-0.00002497,-0.00001923,-0.00000181,-0.00011906,-0.00000569,-0
 .00007007,0.00002370,0.00008286,-0.00009433,0.00024681,0.00029498,0.00
 029340,0.00855529,-0.00204782,0.00876809,-0.01846794,0.00352788,-0.018
 12728,0.14250890,-0.02322505,0.18801161,0.00001184,-0.00000929,0.00000
 746,0.00000238,0.00002946,-0.00002157,-0.00007910,0.00006263,0.0000398
 4,0.00009429,-0.00010272,-0.00038440,-0.00013522,0.00088999,0.00316240
 ,-0.00770021,-0.00325910,0.00041796,-0.01646603,0.00392162,-0.02082064
 ,0.00068765,0.00046518,-0.00033497,-0.18532000,0.00776624,-0.12950138,
 0.00069600,0.00038454,-0.00119609,0.00000532,0.00001960,-0.00000696,-0
 .00000567,0.00000454,-0.00000061,-0.00000325,-0.00002049,-0.00001018,-
 0.00000897,-0.00002369,-0.00002252,-0.00000931,0.00000654,0.00001700,-
 0.00002254,-0.00001474,-0.00006299,0.00001141,-0.00000734,-0.00002663,
 0.00008896,0.00001573,0.00001238,0.00002877,-0.00001040,0.00003897,0.0
 0063514,0.00031661,-0.00020269,0.00001044,-0.00021390,-0.00022987,0.00
 023735,0.00016936,0.00027282,-0.00003481,0.00002594,0.00008966,0.00034
 298,-0.00067524,0.00048965,0.20218061,-0.00000072,0.00000058,-0.000001
 27,0.00001195,0.00000329,-0.00000405,-0.00000777,0.00001445,0.00001897
 ,-0.00004119,-0.00007536,0.00005604,-0.00014999,0.00028980,0.00044464,
 -0.00287493,0.00037415,-0.00003537,-0.00696238,-0.00071027,-0.00908334
 ,0.00021242,-0.00006071,-0.00013894,0.00835990,-0.04616221,0.00877589,
 0.00051676,0.00015567,-0.00028670,-0.00000036,0.00000587,-0.00000067,-
 0.00000122,-0.00000086,0.00000206,-0.00000074,-0.00000466,-0.00000389,
 -0.00000450,-0.00000479,-0.00000438,-0.00000352,0.00000817,0.00000375,
 -0.00000630,-0.00000300,-0.00001339,0.00001017,-0.00000558,-0.00001304
 ,-0.00002370,0.00002726,-0.00002793,-0.00003813,0.00001306,0.00000038,
 0.00008435,-0.00026446,0.00000606,0.00007814,0.00002750,-0.00007618,0.
 00025712,0.00014031,0.00001644,-0.00011882,-0.00003373,-0.00005157,-0.
 00033783,-0.00045615,0.00043161,-0.00869784,0.04620437,0.00000264,-0.0
 0000249,-0.00000050,0.00002031,0.00000805,0.00000576,0.00004520,0.0000
 1499,0.00006495,-0.00017154,-0.00011109,0.00036999,0.00039067,0.000226
 26,-0.00130413,0.00441333,0.00058353,0.00089028,0.00838057,-0.00079481
 ,0.00746699,-0.00031503,0.00002354,-0.00012450,-0.13129930,0.00853952,
 -0.16613322,0.00034342,-0.00011957,0.00008208,0.00000536,0.00001201,-0
 .00000508,-0.00000816,0.00000140,0.00000112,-0.00000185,-0.00001697,-0
 .00000596,-0.00001084,-0.00001088,-0.00001844,-0.00001184,0.00002061,0
 .00001034,-0.00002524,-0.00000829,-0.00001102,0.00001186,-0.00001393,0
 .00002382,-0.00016934,0.00002917,-0.00007206,-0.00002050,0.00001973,-0
 .00003043,-0.00038553,-0.00034166,0.00056671,-0.00001881,0.00003222,0.
 00007935,0.00001312,-0.00027682,0.00011206,-0.00012172,0.00006806,-0.0
 0006901,0.00023483,0.00022514,0.00029652,0.14204818,-0.00962251,0.1805
 4083,-0.00000212,-0.00000014,0.00000166,-0.00004836,-0.00000310,-0.000
 01127,-0.00002408,-0.00002733,-0.00005684,0.00006782,0.00008368,-0.000
 45652,-0.00089704,0.00002490,0.00038803,0.00147334,-0.00032984,-0.0012
 5143,-0.00602151,0.01620182,0.02334129,0.00065697,0.00147996,-0.000633
 99,-0.06716640,0.03821081,0.05991207,-0.00465922,-0.00300523,0.0010214
 8,-0.00001214,-0.00001594,0.00000696,0.00001450,-0.00000152,0.00000142
 ,0.00000204,0.00002029,0.00000748,0.00002056,0.00001191,0.00002572,0.0
 0002549,-0.00002992,-0.00001689,0.00002942,0.00000894,0.00002781,-0.00
 001892,0.00001866,-0.00001962,0.00019217,-0.00001108,0.00009798,0.0000
 6677,-0.00005279,0.00006381,-0.00129365,0.00011642,-0.00159280,-0.0000
 7148,-0.00023695,-0.00009360,0.00000938,0.00013060,-0.00030876,0.00030
 723,-0.00071766,-0.00014313,-0.00000785,-0.00006184,-0.00014560,0.0073
 2918,-0.01337928,-0.01899165,0.07234874,0.00000467,-0.00000721,-0.0000
 0844,-0.00000889,0.00001611,0.00001110,0.00005462,0.00003215,0.0000198
 6,-0.00018229,-0.00023980,0.00034368,0.00027694,0.00062132,-0.00187509
 ,0.00122963,0.00031482,0.00024780,-0.00251459,0.00561144,0.01111750,0.
 00002647,0.00116641,0.00078586,0.03879619,-0.11861078,-0.10921492,-0.0
 0186016,-0.00058498,0.00090238,-0.00000325,0.00000820,0.00000441,-0.00
 000191,-0.00000006,0.00000346,-0.00000295,-0.00001133,-0.00000349,0.00
 000209,-0.00000542,-0.00000017,0.00000155,0.00001190,-0.00000485,-0.00
 002012,-0.00001031,-0.00000197,0.00000177,-0.00002075,0.00003383,-0.00
 016943,0.00002681,-0.00003795,0.00001795,0.00001168,-0.00001583,-0.000
 78500,-0.00033291,0.00029876,-0.00012182,-0.00017830,0.00003082,0.0001
 6329,0.00014503,-0.00012080,-0.00014694,-0.00003447,-0.00009700,0.0000
 1255,-0.00005888,0.00008089,-0.00089311,0.00018304,0.00207348,-0.04086
 071,0.12562296,-0.00000473,0.00000190,-0.00000418,0.00002158,-0.000009
 95,0.00000895,0.00006188,-0.00001390,0.00004116,-0.00022672,0.00000830
 ,0.00039832,-0.00064667,0.00001192,-0.00108097,0.00014859,0.00030971,0
 .00058143,0.00147785,-0.00681791,-0.01126851,-0.00045678,-0.00087949,0
 .00019457,0.06056903,-0.10868407,-0.21310358,0.00295578,0.00221819,-0.
 00012353,0.00000449,-0.00000229,-0.00000081,-0.00000584,0.00000083,-0.
 00000218,0.00000389,0.00000359,0.00000221,-0.00000337,0.00000208,0.000
 00054,-0.00001001,0.00000200,0.00000057,-0.00000246,0.00000731,0.00001
 335,0.00000747,0.00000061,0.00000217,-0.00013023,0.00001371,-0.0000572
 4,-0.00004528,0.00002850,-0.00002665,-0.00164650,-0.00042244,-0.000154
 99,0.00016011,0.00016075,0.00002897,-0.00011907,0.00015279,0.00033828,
 0.00012027,0.00088886,0.00030921,0.00009229,-0.00003938,-0.00009229,0.
 00679472,-0.01146443,-0.01718387,-0.06625990,0.12029394,0.23347959,-0.
 00000493,0.00000624,0.00000795,-0.00000855,-0.00001251,0.00000885,0.00
 000475,-0.00000183,-0.00002412,-0.00000301,-0.00000722,-0.00002231,-0.
 00005926,-0.00042385,-0.00066095,0.00294815,0.00155858,0.00008593,0.00
 336729,-0.02782816,0.00791792,-0.00503509,-0.00128197,0.00194014,-0.05
 060484,0.03668719,-0.00966876,0.00099534,-0.00072938,-0.00099029,0.000
 00008,-0.00001129,0.00000106,0.00000353,-0.00000128,-0.00000352,0.0000
 0118,0.00001068,0.00000434,0.00000664,0.00001358,0.00001095,0.00000510
 ,-0.00000591,-0.00000654,0.00001129,0.00000334,0.00001539,-0.00000394,
 0.00000446,-0.00000218,0.00002570,0.00000301,0.00001214,-0.00003663,0.
 00002499,-0.00002289,-0.00013250,-0.00019339,-0.00009219,-0.00001629,0
 .00011025,0.00016100,0.00021675,-0.00180264,0.00056253,-0.00009901,0.0
 0009668,-0.00015021,0.00010948,0.00005799,0.00024818,-0.00303343,0.022
 83956,-0.00474386,-0.00221976,0.00771582,-0.00306015,0.05357340,-0.000
 00979,0.00001474,0.00001724,0.00002887,-0.00002294,0.00000384,-0.00004
 823,-0.00001619,-0.00000128,0.00006090,0.00004141,-0.00007837,-0.00045
 754,-0.00042873,0.00011282,0.00052468,0.00181114,-0.00088806,0.0030385
 9,-0.01373937,0.00354854,-0.00345972,0.00045558,0.00104056,0.03519503,
 -0.28418546,0.06461157,0.00060238,0.00039015,-0.00076166,0.00000796,-0
 .00001101,-0.00000860,-0.00000478,0.00000076,-0.00000714,0.00000633,0.
 00001256,0.00000442,-0.00000234,0.00000932,-0.00000254,-0.00001204,0.0
 0000045,0.00000226,0.00000557,0.00000704,-0.00000585,0.00001335,0.0000
 0873,-0.00003084,0.00006253,0.00000287,0.00002110,-0.00007959,0.000032
 55,-0.00001221,0.00005056,-0.00026130,-0.00035751,0.00016192,0.0002371
 4,-0.00001617,-0.00000337,-0.00086377,0.00042886,0.00012432,0.00038226
 ,-0.00005298,0.00017839,0.00021194,-0.00005852,-0.00008189,0.00022136,
 -0.00048364,0.00201342,-0.01459407,0.00491567,-0.03757791,0.30930699,-
 0.00000596,0.00000716,-0.00000728,0.00001571,-0.00001131,-0.00000054,-
 0.00001329,-0.00001469,-0.00000682,0.00002924,0.00008857,-0.00004865,-
 0.00014448,-0.00022449,0.00051693,-0.00075365,-0.00136646,0.00037205,-
 0.00345030,0.01229677,-0.00496712,0.00259087,0.00016901,-0.00078225,-0
 .00868937,0.06415392,-0.06440341,-0.00074930,0.00097292,0.00025754,-0.
 00000356,-0.00000364,0.00000375,0.00000111,-0.00000267,0.00000341,0.00
 000209,0.00000720,0.00000143,-0.00000064,0.00000456,0.00000626,0.00000
 018,-0.00000006,-0.00000520,0.00001105,0.00000809,0.00000796,0.0000018
 5,0.00000252,-0.00001816,0.00004338,0.00000048,0.00001107,-0.00002994,
 0.00000918,0.00001046,0.00020889,0.00003687,-0.00018670,0.00010675,0.0
 0009787,-0.00008706,0.00008318,0.00100713,0.00031877,-0.00001635,0.000
 27228,0.00018159,0.00007070,-0.00037888,0.00016887,-0.00181393,0.02105
 133,-0.00570296,0.00347137,-0.02538529,0.00780726,0.00846858,-0.072105
 65,0.06665042,-0.00000164,0.00000343,0.00000877,-0.00001047,-0.0000084
 6,-0.00000070,0.00002452,-0.00001352,-0.00000331,-0.00002921,0.0000592
 7,0.00004716,0.00027216,0.00000349,0.00001957,0.00113355,0.00000038,-0
 .00116287,-0.00925846,-0.00370380,0.00213348,0.00012447,-0.00061546,-0
 .00044857,0.00033078,0.00204400,0.00177081,-0.24028221,-0.08019969,0.0
 8351943,-0.00000189,-0.00000641,-0.00000295,0.00000380,-0.00000062,-0.
 00000149,0.00000070,0.00000688,0.00000226,0.00000374,0.00000689,0.0000
 0295,0.00000520,-0.00000500,-0.00000154,0.00000783,0.00000301,0.000017
 70,-0.00000096,0.00000612,-0.00000574,0.00002935,0.00000108,0.00000562
 ,-0.00000916,0.00000079,-0.00000379,0.00004150,0.00001419,-0.00016547,
 -0.00001605,0.00002993,0.00002843,0.00037318,0.00074720,0.00002095,0.0
 0032396,0.00010833,-0.00016209,-0.00008647,-0.00000782,0.00012364,0.00
 048541,0.00002234,-0.00013745,-0.00040593,-0.00039492,0.00043963,0.000
 06125,-0.00011480,-0.00006176,0.26047301,-0.00000043,-0.00000298,-0.00
 000782,-0.00000506,0.00000251,-0.00000700,0.00002946,-0.00001281,0.000
 00824,-0.00004985,0.00002204,0.00004053,0.00014001,-0.00005970,0.00004
 665,0.00033122,0.00023033,0.00151010,0.01522110,0.00483396,-0.00633994
 ,0.00091069,0.00116316,-0.00006891,0.00056224,-0.00140618,-0.00247897,
 -0.08169501,-0.08027097,0.03490275,-0.00000676,0.00000314,0.00000180,0
 .00000453,-0.00000085,0.00000641,-0.00000019,-0.00000136,-0.00000180,0
 .00000133,-0.00000326,0.00000257,0.00000647,-0.00000284,-0.00000275,0.
 00000646,0.00000230,0.00001356,0.00000109,-0.00000035,-0.00000734,0.00
 000033,0.00003214,-0.00000101,-0.00000795,-0.00002691,0.00001930,0.000
 03125,-0.00001992,0.00004090,0.00002080,-0.00001384,-0.00002505,-0.000
 16623,-0.00030197,-0.00021527,-0.00019657,0.00016022,0.00017349,0.0000
 7471,-0.00007220,0.00003807,-0.00010821,-0.00020010,-0.00001776,0.0006
 8489,0.00073702,-0.00066459,0.00010669,0.00022901,-0.00034848,0.087843
 21,0.08480123,-0.00000546,0.00000366,-0.00002072,0.00001071,-0.0000115
 1,0.00001463,-0.00000353,-0.00000709,-0.00002257,0.00000700,0.00002042
 ,0.00002347,-0.00020456,-0.00005358,-0.00014574,0.00006979,0.00018297,
 0.00240375,0.02449688,0.01054566,-0.01138941,-0.00031577,0.00153223,0.
 00066454,0.00005478,-0.00357080,-0.00446966,0.08127964,0.03396974,-0.0
 8035548,0.00000123,-0.00001053,0.00000928,-0.00000148,-0.00000277,-0.0
 0000041,-0.00000043,0.00000815,0.00000790,0.00000105,0.00000747,0.0000
 1312,-0.00000205,0.00000109,-0.00000929,0.00000591,0.00000403,0.000009
 51,-0.00000981,-0.00000078,0.00002480,-0.00006781,-0.00004127,-0.00002
 740,0.00000521,0.00001440,-0.00002602,-0.00004778,0.00000605,0.0003155
 6,0.00002027,0.00008376,0.00007383,-0.00024592,-0.00067649,0.00038584,
 -0.00031908,0.00013150,-0.00001323,-0.00013058,-0.00010003,0.00002596,
 0.00008436,-0.00009658,0.00026706,0.00168862,0.00044124,-0.00066245,-0
 .00027652,-0.00010562,0.00014445,-0.09265415,-0.03553082,0.08677044,0.
 00000369,-0.00000365,0.00000838,0.00000370,0.00000765,-0.00001143,0.00
 004626,-0.00000511,0.00004913,-0.00005673,0.00005316,0.00009690,0.0009
 0500,0.00026106,0.00078116,0.00063832,0.00036292,0.00107208,0.00364711
 ,-0.00070065,0.00609240,-0.00010373,0.00001503,-0.00007769,0.00001687,
 -0.00009976,0.00022834,-0.18043627,0.01724761,-0.13017401,-0.00000002,
 0.00001085,-0.00000543,-0.00000245,0.00000221,0.00000169,0.00000009,-0
 .00001110,-0.00000694,-0.00000346,-0.00001022,-0.00001297,-0.00000431,
 0.00000569,0.00000577,-0.00000759,-0.00000109,0.00000369,0.00000642,-0
 .00000487,-0.00000986,0.00001695,0.00003244,0.00001224,-0.00000081,-0.
 00002394,0.00002655,0.00001144,-0.00007617,-0.00021558,-0.00000269,-0.
 00006423,-0.00012475,-0.00002564,0.00007814,-0.00013452,0.00013950,-0.
 00023363,0.00015428,0.00044845,-0.00002664,0.00021183,0.00006395,0.000
 11535,0.00054029,0.00024300,-0.00004340,-0.00013253,-0.00002975,-0.000
 06820,0.00007802,-0.01784144,0.00363460,-0.01950056,0.19493945,0.00000
 247,-0.00000315,-0.00000317,-0.00000250,0.00001537,0.00000343,-0.00012
 267,0.00005163,-0.00000980,0.00014368,-0.00018485,-0.00026610,-0.00063
 582,0.00085129,-0.00038931,0.00018287,-0.00141286,-0.00415196,-0.01247
 860,0.00071861,-0.00839684,-0.00047390,0.00018227,-0.00003815,-0.00030
 145,0.00006447,0.00053527,0.01862328,-0.04875920,0.01682563,-0.0000003
 2,0.00000538,0.00000165,-0.00000022,-0.00000002,0.00000107,-0.00000203
 ,-0.00000556,-0.00000287,-0.00000134,-0.00000485,-0.00000214,0.0000019
 0,0.00000366,0.00000433,-0.00001274,-0.00001678,-0.00004982,0.00000486
 ,-0.00000275,0.00000592,-0.00000882,-0.00000339,0.00001231,0.00000035,
 0.00002833,-0.00001429,0.00004234,-0.00003213,-0.00015126,0.00000239,-
 0.00001847,0.00010966,-0.00005146,-0.00005920,-0.00008241,0.00005833,0
 .00020452,0.00028075,0.00035586,-0.00061353,-0.00029194,0.00005153,0.0
 0034068,0.00004002,-0.00011387,-0.00013971,0.00008025,0.00013310,0.000
 03312,0.00009649,-0.00774246,0.00018591,-0.00886098,-0.02025545,0.0493
 9981,0.00001160,-0.00000639,0.00000053,0.00000671,0.00003996,-0.000013
 66,-0.00023351,0.00007375,0.00005007,0.00028526,-0.00028257,-0.0005243
 8,-0.00127809,0.00043664,0.00091026,0.00068480,-0.00364452,-0.00752240
 ,-0.02019788,0.00627030,-0.01364892,-0.00051114,0.00096657,0.00046391,
 -0.00094113,0.00040361,0.00046122,-0.12719032,0.01511611,-0.17132345,0
 .00000743,0.00001859,-0.00000585,-0.00000660,0.00000424,-0.00000056,-0
 .00000416,-0.00002211,-0.00000816,-0.00001191,-0.00002371,-0.00002469,
 -0.00001093,0.00001267,0.00002182,-0.00002944,-0.00002867,-0.00010913,
 0.00001857,-0.00000272,0.,-0.00001489,-0.00001472,0.00002331,0.0000165
 2,0.00002063,0.00002733,0.00010012,0.00003047,-0.00022724,0.00001094,-
 0.00025288,-0.00024681,0.00011591,-0.00002020,0.00002464,0.00032154,0.
 00013553,0.00023924,0.00041190,-0.00059795,0.00051283,0.00109230,-0.00
 003741,-0.00008415,0.00022766,-0.00004958,0.00046430,0.00002068,-0.000
 08473,-0.00004873,0.00891201,-0.00182286,0.00927486,0.14208928,-0.0166
 7393,0.18621905,-0.00000171,0.00000231,-0.00000079,-0.00000161,-0.0000
 0669,0.00001196,0.00000274,0.00001962,-0.00002143,-0.00000739,-0.00006
 445,0.00003271,-0.00004511,0.00000720,-0.00005686,0.00002244,-0.000892
 48,-0.00062896,-0.00266906,0.00837884,-0.00256802,-0.00044495,0.000664
 18,0.00165073,0.00011926,0.00073147,-0.00062983,-0.04985810,0.02956838
 ,-0.00628898,-0.00000175,-0.00000341,0.00000325,0.00000032,-0.00000177
 ,-0.00000050,-0.00000066,0.00000426,0.00000118,0.00000256,0.00000837,0
 .00000698,0.00000095,0.00000248,-0.00000435,0.00000100,-0.00000060,0.0
 0000340,-0.00000550,-0.00000197,0.00000796,-0.00001124,-0.00001351,-0.
 00000530,0.00000550,0.00002880,-0.00003156,-0.00001996,-0.00000460,0.0
 0006772,-0.00002813,-0.00001281,-0.00000048,0.00020337,0.00033478,-0.0
 0002557,0.00052379,0.00067755,-0.00005755,0.00015557,-0.00032353,0.000
 21608,-0.00009316,0.00014116,-0.00001713,0.00006185,-0.00029407,-0.000
 10732,-0.00004292,-0.00015460,0.00054958,0.00424949,-0.02737480,0.0060
 6006,-0.00261532,0.02260067,-0.00390324,0.05049771,-0.00000502,0.00000
 723,0.00001693,0.00001414,-0.00001482,0.00001593,-0.00002829,0.0000177
 1,-0.00001289,0.00003643,-0.00003735,-0.00003871,-0.00020465,0.0001732
 5,-0.00022505,0.00000543,0.00179968,0.00101074,0.00211744,-0.01828605,
 0.00531847,0.00102078,-0.00058911,-0.00435970,-0.00080956,0.00057299,0
 .00095157,0.02965638,-0.29147233,0.05719146,0.00000970,-0.00000829,-0.
 00000794,-0.00000633,0.00000184,-0.00000938,0.00000397,0.00000712,0.00
 000407,-0.00000058,0.00000866,-0.00000298,-0.00000983,0.00000187,0.000
 00339,-0.00000679,-0.00000150,-0.00000993,0.00000638,0.00000155,-0.000
 00187,0.00000998,-0.00001128,0.00000269,-0.00003762,0.00004581,-0.0000
 4496,0.00000620,-0.00000398,-0.00000693,0.00001022,0.00022812,0.000225
 74,-0.00001811,0.00035669,0.00005979,0.00026016,-0.00120255,0.00019195
 ,-0.00005800,0.00035311,0.00010515,-0.00001153,-0.00002766,-0.00009732
 ,-0.00015910,0.00032007,-0.00010248,0.00050517,0.00071373,-0.00044074,
 0.00191240,-0.01000673,0.00211647,-0.00019860,-0.00082858,0.00003590,-
 0.03402076,0.31788081,-0.00000705,0.00000429,0.00000094,0.00000522,-0.
 00001513,0.00001138,0.00002544,-0.00000335,-0.00001740,-0.00003722,0.0
 0003523,0.00005148,0.00006773,-0.00002901,-0.00013377,0.00096189,0.000
 80236,0.00206395,0.00325391,-0.02747450,0.00505792,0.00093389,-0.00191
 464,-0.00450363,-0.00084750,-0.00061165,0.00129895,-0.00719735,0.05992
 014,-0.05954219,0.00000184,-0.00000862,0.00000060,0.00000100,-0.000001
 13,-0.00000204,0.00000253,0.00000982,0.00000413,0.00000198,0.00001023,
 0.00000849,0.00000022,-0.00000563,-0.00000472,0.00000979,0.00000677,0.
 00002136,-0.00000265,0.00000335,-0.00000332,0.00001042,0.00000494,-0.0
 0000331,-0.00003570,0.00001640,-0.00002567,-0.00000421,-0.00001227,0.0
 0005098,0.00002875,0.00010559,0.00016099,-0.00013356,0.00000609,-0.000
 12253,0.00020630,-0.00174129,0.00032993,0.00027919,0.00002190,0.000046
 19,0.00006773,0.00015450,-0.00003252,-0.00030136,0.00012635,0.00009039
 ,0.00025882,0.00035448,-0.00019732,-0.00224051,0.01073600,-0.00328660,
 -0.00104576,0.02138818,-0.00490524,0.00573623,-0.06188938,0.06358259\\
 0.00000774,-0.00000506,-0.00000491,-0.00000299,0.00000076,0.00000635,0
 .00000313,0.00000158,-0.00000274,-0.00000227,-0.00000456,0.00000036,-0
 .00000389,-0.00000173,0.00000009,-0.00000118,0.00000024,-0.00000070,-0
 .00000159,-0.00000314,0.00000103,-0.00000912,-0.00000350,0.00000183,0.
 00000228,0.00000513,-0.00000038,0.00000626,0.00000819,-0.00000593,0.00
 000075,0.00000035,0.00000370,-0.00000447,0.00000085,-0.00000155,-0.000
 00058,0.00000283,0.00000039,-0.00000034,-0.00000009,-0.00000384,0.0000
 0111,-0.00000042,0.00000009,-0.00000107,0.00000040,0.00000092,-0.00000
 167,-0.00000014,0.00000125,0.00000164,0.00000079,-0.00000009,-0.000000
 51,0.00000180,0.00000090,0.00000236,0.00000151,-0.00000081,0.00000003,
 0.00000127,-0.00000017,0.00000674,0.00000211,-0.00000353,0.00000013,0.
 00000075,-0.00000045,0.00000344,-0.00000010,0.00000176,0.00000046,0.00
 000070,0.00000030,-0.00000105,-0.00000041,-0.00000043,-0.00000014,-0.0
 0000096,0.00000078,-0.00000535,-0.00000389,0.00000299,-0.00000025,-0.0
 0000049,0.00000114,0.00000041,-0.00000478,0.00000165\\\@


 TERRY FORSTER, PORTLY ATLANTA BRAVES RELIEVER,
 ANNOUNCING THAT HE WAS GOING TO A FAT FARM:
 "A WAIST IS A TERRIBLE THING TO MIND."
 Job cpu time:       0 days  3 hours 49 minutes 21.0 seconds.
 File lengths (MBytes):  RWF=    294 Int=      0 D2E=      0 Chk=     10 Scr=      1
 Normal termination of Gaussian 09 at Wed Feb 18 11:54:30 2015.
