 Entering Gaussian System, Link 0=g09
 Input=freq-b971_112-53-8.gau
 Output=freq-b971_112-53-8.log
 Initial command:
 /opt/g09/l1.exe "/scratch/pb556/g09_run/add_hco//Gau-29768.inp" -scrdir="/scratch/pb556/g09_run/add_hco//"
 Entering Link 1 = /opt/g09/l1.exe PID=     29777.
  
 Copyright (c) 1988,1990,1992,1993,1995,1998,2003,2009,2013,
            Gaussian, Inc.  All Rights Reserved.
  
 This is part of the Gaussian(R) 09 program.  It is based on
 the Gaussian(R) 03 system (copyright 2003, Gaussian, Inc.),
 the Gaussian(R) 98 system (copyright 1998, Gaussian, Inc.),
 the Gaussian(R) 94 system (copyright 1995, Gaussian, Inc.),
 the Gaussian 92(TM) system (copyright 1992, Gaussian, Inc.),
 the Gaussian 90(TM) system (copyright 1990, Gaussian, Inc.),
 the Gaussian 88(TM) system (copyright 1988, Gaussian, Inc.),
 the Gaussian 86(TM) system (copyright 1986, Carnegie Mellon
 University), and the Gaussian 82(TM) system (copyright 1983,
 Carnegie Mellon University). Gaussian is a federally registered
 trademark of Gaussian, Inc.
  
 This software contains proprietary and confidential information,
 including trade secrets, belonging to Gaussian, Inc.
  
 This software is provided under written license and may be
 used, copied, transmitted, or stored only in accord with that
 written license.
  
 The following legend is applicable only to US Government
 contracts under FAR:
  
                    RESTRICTED RIGHTS LEGEND
  
 Use, reproduction and disclosure by the US Government is
 subject to restrictions as set forth in subparagraphs (a)
 and (c) of the Commercial Computer Software - Restricted
 Rights clause in FAR 52.227-19.
  
 Gaussian, Inc.
 340 Quinnipiac St., Bldg. 40, Wallingford CT 06492
  
  
 ---------------------------------------------------------------
 Warning -- This program may not be used in any manner that
 competes with the business of Gaussian, Inc. or will provide
 assistance to any competitor of Gaussian, Inc.  The licensee
 of this program is prohibited from giving any competitor of
 Gaussian, Inc. access to this program.  By using this program,
 the user acknowledges that Gaussian, Inc. is engaged in the
 business of creating and licensing software in the field of
 computational chemistry and represents and warrants to the
 licensee that it is not a competitor of Gaussian, Inc. and that
 it will not use this program in any manner prohibited above.
 ---------------------------------------------------------------
  

 Cite this work as:
 Gaussian 09, Revision D.01,
 M. J. Frisch, G. W. Trucks, H. B. Schlegel, G. E. Scuseria, 
 M. A. Robb, J. R. Cheeseman, G. Scalmani, V. Barone, B. Mennucci, 
 G. A. Petersson, H. Nakatsuji, M. Caricato, X. Li, H. P. Hratchian, 
 A. F. Izmaylov, J. Bloino, G. Zheng, J. L. Sonnenberg, M. Hada, 
 M. Ehara, K. Toyota, R. Fukuda, J. Hasegawa, M. Ishida, T. Nakajima, 
 Y. Honda, O. Kitao, H. Nakai, T. Vreven, J. A. Montgomery, Jr., 
 J. E. Peralta, F. Ogliaro, M. Bearpark, J. J. Heyd, E. Brothers, 
 K. N. Kudin, V. N. Staroverov, T. Keith, R. Kobayashi, J. Normand, 
 K. Raghavachari, A. Rendell, J. C. Burant, S. S. Iyengar, J. Tomasi, 
 M. Cossi, N. Rega, J. M. Millam, M. Klene, J. E. Knox, J. B. Cross, 
 V. Bakken, C. Adamo, J. Jaramillo, R. Gomperts, R. E. Stratmann, 
 O. Yazyev, A. J. Austin, R. Cammi, C. Pomelli, J. W. Ochterski, 
 R. L. Martin, K. Morokuma, V. G. Zakrzewski, G. A. Voth, 
 P. Salvador, J. J. Dannenberg, S. Dapprich, A. D. Daniels, 
 O. Farkas, J. B. Foresman, J. V. Ortiz, J. Cioslowski, 
 and D. J. Fox, Gaussian, Inc., Wallingford CT, 2013.
 
 ******************************************
 Gaussian 09:  ES64L-G09RevD.01 24-Apr-2013
                22-Feb-2015 
 ******************************************
 %NProcShared=8
 Will use up to    8 processors via shared memory.
 %Mem=500MW
 ----------------------------------------------------------------------
 #p rB971/6-311+G(d,p) Opt=(Tight, CalcAll) Freq GFInput Population=Non
 e Integral(Grid=UltraFine) Guess=MIX NoSymmetry
 ----------------------------------------------------------------------
 1/7=10,10=4,14=-1,18=20,19=15,26=4,38=1/1,3;
 2/9=110,12=2,15=1,17=6,18=5,40=1/2;
 3/5=4,6=6,7=111,11=2,16=1,24=10,25=1,30=1,71=2,74=-20,75=-5,116=1,140=1/1,2,3;
 4/13=-1/1;
 5/5=2,38=5/2;
 8/6=4,10=90,11=11/1;
 11/6=1,8=1,9=11,15=111,16=1,31=1/1,2,10;
 10/6=1,31=1/2;
 7/10=1,25=1,30=1/1,2,3,16;
 1/7=10,10=4,14=-1,18=20,19=15,26=4/3(3);
 2/9=110,15=1/2;
 7/8=1,9=1,25=1,30=1,44=-1/16;
 99//99;
 2/9=110,15=1/2;
 3/5=4,6=6,7=111,11=2,16=1,25=1,30=1,71=2,74=-20,75=-5,116=1,140=1/1,2,3;
 4/5=5,16=3,69=1/1;
 5/5=2,38=5/2;
 8/6=4,10=90,11=11/1;
 11/6=1,8=1,9=11,15=111,16=1,31=1/1,2,10;
 10/6=1,31=1/2;
 7/10=1,25=1,30=1/1,2,3,16;
 1/7=10,10=4,14=-1,18=20,19=15,26=4/3(-8);
 2/9=110,15=1/2;
 7/8=1,9=1,25=1,30=1,44=-1/16;
 99//99;
 Leave Link    1 at Sun Feb 22 13:44:11 2015, MaxMem=   524288000 cpu:         0.5
 (Enter /opt/g09/l101.exe)
 ----------------------
 freq-b971_112-53-8.gau
 ----------------------
 Symbolic Z-matrix:
 Charge =  0 Multiplicity = 1
 C                     8.01278   4.88163   3.39831 
 C                     6.68208   4.55191   4.09856 
 C                     5.48893   4.34812   3.15072 
 C                     8.5737    3.75322   2.51668 
 C                     4.16346   4.1204    3.89306 
 C                     9.95346   4.09442   1.93088 
 C                     2.97818   3.89298   2.94015 
 C                     10.53264   3.0844    0.92101 
 C                     1.62423   3.6172    3.6228 
 C                     10.82602   1.66887   1.47189 
 C                     0.91552   4.83405   4.21332 
 C                     9.66955   0.66562   1.33152 
 O                     1.64237   5.32058   5.34347 
 H                     8.76056   5.13291   4.16373 
 H                     7.8862    5.7882    2.78803 
 H                     6.44017   5.36561   4.79609 
 H                     6.81166   3.65105   4.71644 
 H                     5.39376   5.23048   2.49969 
 H                     5.68103   3.49563   2.48448 
 H                     7.87746   3.53744   1.69487 
 H                     8.63861   2.83617   3.11816 
 H                     4.26271   3.24503   4.55167 
 H                     3.95034   4.97139   4.5488 
 H                     9.88873   5.07413   1.43602 
 H                     10.6701   4.22069   2.75605 
 H                     3.21388   3.03979   2.28854 
 H                     2.87223   4.76145   2.27268 
 H                     9.85764   3.00382   0.05631 
 H                     11.46689   3.5103    0.53304 
 H                     1.74683   2.86462   4.41332 
 H                     0.93724   3.18396   2.88323 
 H                     11.69638   1.25872   0.94414 
 H                     11.12497   1.74557   2.52682 
 H                    -0.10323   4.54592   4.51448 
 H                     0.83026   5.61949   3.44491 
 H                     9.95274  -0.31756   1.7241 
 H                     8.77195   0.99107   1.86586 
 H                     9.39692   0.53535   0.27735 
 H                     1.16844   6.07177   5.70933 
 
 NAtoms=     39 NQM=       39 NQMF=       0 NMMI=      0 NMMIF=      0
                NMic=       0 NMicF=      0.
                    Isotopes and Nuclear Properties:
 (Nuclear quadrupole moments (NQMom) in fm**2, nuclear magnetic moments (NMagM)
  in nuclear magnetons)

  Atom         1           2           3           4           5           6           7           8           9          10
 IAtWgt=          12          12          12          12          12          12          12          12          12          12
 AtmWgt=  12.0000000  12.0000000  12.0000000  12.0000000  12.0000000  12.0000000  12.0000000  12.0000000  12.0000000  12.0000000
 NucSpn=           0           0           0           0           0           0           0           0           0           0
 AtZEff=   0.0000000   0.0000000   0.0000000   0.0000000   0.0000000   0.0000000   0.0000000   0.0000000   0.0000000   0.0000000
 NQMom=    0.0000000   0.0000000   0.0000000   0.0000000   0.0000000   0.0000000   0.0000000   0.0000000   0.0000000   0.0000000
 NMagM=    0.0000000   0.0000000   0.0000000   0.0000000   0.0000000   0.0000000   0.0000000   0.0000000   0.0000000   0.0000000
 AtZNuc=   6.0000000   6.0000000   6.0000000   6.0000000   6.0000000   6.0000000   6.0000000   6.0000000   6.0000000   6.0000000

  Atom        11          12          13          14          15          16          17          18          19          20
 IAtWgt=          12          12          16           1           1           1           1           1           1           1
 AtmWgt=  12.0000000  12.0000000  15.9949146   1.0078250   1.0078250   1.0078250   1.0078250   1.0078250   1.0078250   1.0078250
 NucSpn=           0           0           0           1           1           1           1           1           1           1
 AtZEff=   0.0000000   0.0000000   0.0000000   0.0000000   0.0000000   0.0000000   0.0000000   0.0000000   0.0000000   0.0000000
 NQMom=    0.0000000   0.0000000   0.0000000   0.0000000   0.0000000   0.0000000   0.0000000   0.0000000   0.0000000   0.0000000
 NMagM=    0.0000000   0.0000000   0.0000000   2.7928460   2.7928460   2.7928460   2.7928460   2.7928460   2.7928460   2.7928460
 AtZNuc=   6.0000000   6.0000000   8.0000000   1.0000000   1.0000000   1.0000000   1.0000000   1.0000000   1.0000000   1.0000000

  Atom        21          22          23          24          25          26          27          28          29          30
 IAtWgt=           1           1           1           1           1           1           1           1           1           1
 AtmWgt=   1.0078250   1.0078250   1.0078250   1.0078250   1.0078250   1.0078250   1.0078250   1.0078250   1.0078250   1.0078250
 NucSpn=           1           1           1           1           1           1           1           1           1           1
 AtZEff=   0.0000000   0.0000000   0.0000000   0.0000000   0.0000000   0.0000000   0.0000000   0.0000000   0.0000000   0.0000000
 NQMom=    0.0000000   0.0000000   0.0000000   0.0000000   0.0000000   0.0000000   0.0000000   0.0000000   0.0000000   0.0000000
 NMagM=    2.7928460   2.7928460   2.7928460   2.7928460   2.7928460   2.7928460   2.7928460   2.7928460   2.7928460   2.7928460
 AtZNuc=   1.0000000   1.0000000   1.0000000   1.0000000   1.0000000   1.0000000   1.0000000   1.0000000   1.0000000   1.0000000

  Atom        31          32          33          34          35          36          37          38          39
 IAtWgt=           1           1           1           1           1           1           1           1           1
 AtmWgt=   1.0078250   1.0078250   1.0078250   1.0078250   1.0078250   1.0078250   1.0078250   1.0078250   1.0078250
 NucSpn=           1           1           1           1           1           1           1           1           1
 AtZEff=   0.0000000   0.0000000   0.0000000   0.0000000   0.0000000   0.0000000   0.0000000   0.0000000   0.0000000
 NQMom=    0.0000000   0.0000000   0.0000000   0.0000000   0.0000000   0.0000000   0.0000000   0.0000000   0.0000000
 NMagM=    2.7928460   2.7928460   2.7928460   2.7928460   2.7928460   2.7928460   2.7928460   2.7928460   2.7928460
 AtZNuc=   1.0000000   1.0000000   1.0000000   1.0000000   1.0000000   1.0000000   1.0000000   1.0000000   1.0000000
 Leave Link  101 at Sun Feb 22 13:44:12 2015, MaxMem=   524288000 cpu:         2.1
 (Enter /opt/g09/l103.exe)

 GradGradGradGradGradGradGradGradGradGradGradGradGradGradGradGradGradGrad
 Berny optimization.
 Initialization pass.
                           ----------------------------
                           !    Initial Parameters    !
                           ! (Angstroms and Degrees)  !
 --------------------------                            --------------------------
 ! Name  Definition              Value          Derivative Info.                !
 --------------------------------------------------------------------------------
 ! R1    R(1,2)                  1.5394         calculate D2E/DX2 analytically  !
 ! R2    R(1,4)                  1.5379         calculate D2E/DX2 analytically  !
 ! R3    R(1,14)                 1.0992         calculate D2E/DX2 analytically  !
 ! R4    R(1,15)                 1.1002         calculate D2E/DX2 analytically  !
 ! R5    R(2,3)                  1.5374         calculate D2E/DX2 analytically  !
 ! R6    R(2,16)                 1.0987         calculate D2E/DX2 analytically  !
 ! R7    R(2,17)                 1.1001         calculate D2E/DX2 analytically  !
 ! R8    R(3,5)                  1.5362         calculate D2E/DX2 analytically  !
 ! R9    R(3,18)                 1.1007         calculate D2E/DX2 analytically  !
 ! R10   R(3,19)                 1.0989         calculate D2E/DX2 analytically  !
 ! R11   R(4,6)                  1.5373         calculate D2E/DX2 analytically  !
 ! R12   R(4,20)                 1.0985         calculate D2E/DX2 analytically  !
 ! R13   R(4,21)                 1.0986         calculate D2E/DX2 analytically  !
 ! R14   R(5,7)                  1.5377         calculate D2E/DX2 analytically  !
 ! R15   R(5,22)                 1.1            calculate D2E/DX2 analytically  !
 ! R16   R(5,23)                 1.0953         calculate D2E/DX2 analytically  !
 ! R17   R(6,8)                  1.5412         calculate D2E/DX2 analytically  !
 ! R18   R(6,24)                 1.0995         calculate D2E/DX2 analytically  !
 ! R19   R(6,25)                 1.1002         calculate D2E/DX2 analytically  !
 ! R20   R(7,9)                  1.5412         calculate D2E/DX2 analytically  !
 ! R21   R(7,26)                 1.0991         calculate D2E/DX2 analytically  !
 ! R22   R(7,27)                 1.1004         calculate D2E/DX2 analytically  !
 ! R23   R(8,10)                 1.547          calculate D2E/DX2 analytically  !
 ! R24   R(8,28)                 1.0999         calculate D2E/DX2 analytically  !
 ! R25   R(8,29)                 1.0976         calculate D2E/DX2 analytically  !
 ! R26   R(9,11)                 1.527          calculate D2E/DX2 analytically  !
 ! R27   R(9,30)                 1.0983         calculate D2E/DX2 analytically  !
 ! R28   R(9,31)                 1.0985         calculate D2E/DX2 analytically  !
 ! R29   R(10,12)                1.5374         calculate D2E/DX2 analytically  !
 ! R30   R(10,32)                1.0974         calculate D2E/DX2 analytically  !
 ! R31   R(10,33)                1.0992         calculate D2E/DX2 analytically  !
 ! R32   R(11,13)                1.4291         calculate D2E/DX2 analytically  !
 ! R33   R(11,34)                1.1007         calculate D2E/DX2 analytically  !
 ! R34   R(11,35)                1.1021         calculate D2E/DX2 analytically  !
 ! R35   R(12,36)                1.0959         calculate D2E/DX2 analytically  !
 ! R36   R(12,37)                1.0941         calculate D2E/DX2 analytically  !
 ! R37   R(12,38)                1.0966         calculate D2E/DX2 analytically  !
 ! R38   R(13,39)                0.9606         calculate D2E/DX2 analytically  !
 ! A1    A(2,1,4)              114.7642         calculate D2E/DX2 analytically  !
 ! A2    A(2,1,14)             108.6796         calculate D2E/DX2 analytically  !
 ! A3    A(2,1,15)             109.2306         calculate D2E/DX2 analytically  !
 ! A4    A(4,1,14)             108.5905         calculate D2E/DX2 analytically  !
 ! A5    A(4,1,15)             109.1827         calculate D2E/DX2 analytically  !
 ! A6    A(14,1,15)            106.0323         calculate D2E/DX2 analytically  !
 ! A7    A(1,2,3)              114.7596         calculate D2E/DX2 analytically  !
 ! A8    A(1,2,16)             108.6921         calculate D2E/DX2 analytically  !
 ! A9    A(1,2,17)             109.2126         calculate D2E/DX2 analytically  !
 ! A10   A(3,2,16)             108.5845         calculate D2E/DX2 analytically  !
 ! A11   A(3,2,17)             109.2177         calculate D2E/DX2 analytically  !
 ! A12   A(16,2,17)            106.0118         calculate D2E/DX2 analytically  !
 ! A13   A(2,3,5)              113.0394         calculate D2E/DX2 analytically  !
 ! A14   A(2,3,18)             108.9965         calculate D2E/DX2 analytically  !
 ! A15   A(2,3,19)             109.9354         calculate D2E/DX2 analytically  !
 ! A16   A(5,3,18)             109.2727         calculate D2E/DX2 analytically  !
 ! A17   A(5,3,19)             109.1974         calculate D2E/DX2 analytically  !
 ! A18   A(18,3,19)            106.1658         calculate D2E/DX2 analytically  !
 ! A19   A(1,4,6)              112.5161         calculate D2E/DX2 analytically  !
 ! A20   A(1,4,20)             109.9884         calculate D2E/DX2 analytically  !
 ! A21   A(1,4,21)             108.6723         calculate D2E/DX2 analytically  !
 ! A22   A(6,4,20)             109.1098         calculate D2E/DX2 analytically  !
 ! A23   A(6,4,21)             109.9292         calculate D2E/DX2 analytically  !
 ! A24   A(20,4,21)            106.4434         calculate D2E/DX2 analytically  !
 ! A25   A(3,5,7)              112.8016         calculate D2E/DX2 analytically  !
 ! A26   A(3,5,22)             109.2363         calculate D2E/DX2 analytically  !
 ! A27   A(3,5,23)             110.0011         calculate D2E/DX2 analytically  !
 ! A28   A(7,5,22)             108.8381         calculate D2E/DX2 analytically  !
 ! A29   A(7,5,23)             109.6292         calculate D2E/DX2 analytically  !
 ! A30   A(22,5,23)            106.1057         calculate D2E/DX2 analytically  !
 ! A31   A(4,6,8)              116.2001         calculate D2E/DX2 analytically  !
 ! A32   A(4,6,24)             108.4472         calculate D2E/DX2 analytically  !
 ! A33   A(4,6,25)             108.9228         calculate D2E/DX2 analytically  !
 ! A34   A(8,6,24)             108.1285         calculate D2E/DX2 analytically  !
 ! A35   A(8,6,25)             108.7762         calculate D2E/DX2 analytically  !
 ! A36   A(24,6,25)            105.8815         calculate D2E/DX2 analytically  !
 ! A37   A(5,7,9)              115.4127         calculate D2E/DX2 analytically  !
 ! A38   A(5,7,26)             108.4745         calculate D2E/DX2 analytically  !
 ! A39   A(5,7,27)             109.4728         calculate D2E/DX2 analytically  !
 ! A40   A(9,7,26)             108.1848         calculate D2E/DX2 analytically  !
 ! A41   A(9,7,27)             108.9837         calculate D2E/DX2 analytically  !
 ! A42   A(26,7,27)            105.8828         calculate D2E/DX2 analytically  !
 ! A43   A(6,8,10)             115.9491         calculate D2E/DX2 analytically  !
 ! A44   A(6,8,28)             109.4208         calculate D2E/DX2 analytically  !
 ! A45   A(6,8,29)             107.2883         calculate D2E/DX2 analytically  !
 ! A46   A(10,8,28)            109.2255         calculate D2E/DX2 analytically  !
 ! A47   A(10,8,29)            108.6325         calculate D2E/DX2 analytically  !
 ! A48   A(28,8,29)            105.8366         calculate D2E/DX2 analytically  !
 ! A49   A(7,9,11)             115.8766         calculate D2E/DX2 analytically  !
 ! A50   A(7,9,30)             110.0812         calculate D2E/DX2 analytically  !
 ! A51   A(7,9,31)             108.771          calculate D2E/DX2 analytically  !
 ! A52   A(11,9,30)            108.6327         calculate D2E/DX2 analytically  !
 ! A53   A(11,9,31)            106.5232         calculate D2E/DX2 analytically  !
 ! A54   A(30,9,31)            106.5082         calculate D2E/DX2 analytically  !
 ! A55   A(8,10,12)            114.9564         calculate D2E/DX2 analytically  !
 ! A56   A(8,10,32)            108.732          calculate D2E/DX2 analytically  !
 ! A57   A(8,10,33)            109.2381         calculate D2E/DX2 analytically  !
 ! A58   A(12,10,32)           107.9866         calculate D2E/DX2 analytically  !
 ! A59   A(12,10,33)           109.7402         calculate D2E/DX2 analytically  !
 ! A60   A(32,10,33)           105.7792         calculate D2E/DX2 analytically  !
 ! A61   A(9,11,13)            109.9422         calculate D2E/DX2 analytically  !
 ! A62   A(9,11,34)            109.0728         calculate D2E/DX2 analytically  !
 ! A63   A(9,11,35)            109.5238         calculate D2E/DX2 analytically  !
 ! A64   A(13,11,34)           110.0895         calculate D2E/DX2 analytically  !
 ! A65   A(13,11,35)           110.3709         calculate D2E/DX2 analytically  !
 ! A66   A(34,11,35)           107.8012         calculate D2E/DX2 analytically  !
 ! A67   A(10,12,36)           110.9993         calculate D2E/DX2 analytically  !
 ! A68   A(10,12,37)           112.2352         calculate D2E/DX2 analytically  !
 ! A69   A(10,12,38)           110.6278         calculate D2E/DX2 analytically  !
 ! A70   A(36,12,37)           107.6924         calculate D2E/DX2 analytically  !
 ! A71   A(36,12,38)           107.5798         calculate D2E/DX2 analytically  !
 ! A72   A(37,12,38)           107.5085         calculate D2E/DX2 analytically  !
 ! A73   A(11,13,39)           108.4512         calculate D2E/DX2 analytically  !
 ! D1    D(4,1,2,3)            -65.4143         calculate D2E/DX2 analytically  !
 ! D2    D(4,1,2,16)           172.8131         calculate D2E/DX2 analytically  !
 ! D3    D(4,1,2,17)            57.582          calculate D2E/DX2 analytically  !
 ! D4    D(14,1,2,3)           172.8116         calculate D2E/DX2 analytically  !
 ! D5    D(14,1,2,16)           51.039          calculate D2E/DX2 analytically  !
 ! D6    D(14,1,2,17)          -64.1922         calculate D2E/DX2 analytically  !
 ! D7    D(15,1,2,3)            57.5532         calculate D2E/DX2 analytically  !
 ! D8    D(15,1,2,16)          -64.2194         calculate D2E/DX2 analytically  !
 ! D9    D(15,1,2,17)         -179.4505         calculate D2E/DX2 analytically  !
 ! D10   D(2,1,4,6)           -175.546          calculate D2E/DX2 analytically  !
 ! D11   D(2,1,4,20)            62.5905         calculate D2E/DX2 analytically  !
 ! D12   D(2,1,4,21)           -53.569          calculate D2E/DX2 analytically  !
 ! D13   D(14,1,4,6)           -53.7234         calculate D2E/DX2 analytically  !
 ! D14   D(14,1,4,20)         -175.5869         calculate D2E/DX2 analytically  !
 ! D15   D(14,1,4,21)           68.2536         calculate D2E/DX2 analytically  !
 ! D16   D(15,1,4,6)            61.4608         calculate D2E/DX2 analytically  !
 ! D17   D(15,1,4,20)          -60.4027         calculate D2E/DX2 analytically  !
 ! D18   D(15,1,4,21)         -176.5622         calculate D2E/DX2 analytically  !
 ! D19   D(1,2,3,5)           -175.9109         calculate D2E/DX2 analytically  !
 ! D20   D(1,2,3,18)           -54.1927         calculate D2E/DX2 analytically  !
 ! D21   D(1,2,3,19)            61.7891         calculate D2E/DX2 analytically  !
 ! D22   D(16,2,3,5)           -54.0798         calculate D2E/DX2 analytically  !
 ! D23   D(16,2,3,18)           67.6385         calculate D2E/DX2 analytically  !
 ! D24   D(16,2,3,19)         -176.3798         calculate D2E/DX2 analytically  !
 ! D25   D(17,2,3,5)            61.0956         calculate D2E/DX2 analytically  !
 ! D26   D(17,2,3,18)         -177.1862         calculate D2E/DX2 analytically  !
 ! D27   D(17,2,3,19)          -61.2044         calculate D2E/DX2 analytically  !
 ! D28   D(2,3,5,7)           -179.0047         calculate D2E/DX2 analytically  !
 ! D29   D(2,3,5,22)           -57.8281         calculate D2E/DX2 analytically  !
 ! D30   D(2,3,5,23)            58.2559         calculate D2E/DX2 analytically  !
 ! D31   D(18,3,5,7)            59.4326         calculate D2E/DX2 analytically  !
 ! D32   D(18,3,5,22)         -179.3908         calculate D2E/DX2 analytically  !
 ! D33   D(18,3,5,23)          -63.3068         calculate D2E/DX2 analytically  !
 ! D34   D(19,3,5,7)           -56.2931         calculate D2E/DX2 analytically  !
 ! D35   D(19,3,5,22)           64.8835         calculate D2E/DX2 analytically  !
 ! D36   D(19,3,5,23)         -179.0325         calculate D2E/DX2 analytically  !
 ! D37   D(1,4,6,8)           -174.0754         calculate D2E/DX2 analytically  !
 ! D38   D(1,4,6,24)           -52.0902         calculate D2E/DX2 analytically  !
 ! D39   D(1,4,6,25)            62.7007         calculate D2E/DX2 analytically  !
 ! D40   D(20,4,6,8)           -51.7148         calculate D2E/DX2 analytically  !
 ! D41   D(20,4,6,24)           70.2703         calculate D2E/DX2 analytically  !
 ! D42   D(20,4,6,25)         -174.9388         calculate D2E/DX2 analytically  !
 ! D43   D(21,4,6,8)            64.6625         calculate D2E/DX2 analytically  !
 ! D44   D(21,4,6,24)         -173.3523         calculate D2E/DX2 analytically  !
 ! D45   D(21,4,6,25)          -58.5614         calculate D2E/DX2 analytically  !
 ! D46   D(3,5,7,9)            178.2964         calculate D2E/DX2 analytically  !
 ! D47   D(3,5,7,26)            56.7613         calculate D2E/DX2 analytically  !
 ! D48   D(3,5,7,27)           -58.3374         calculate D2E/DX2 analytically  !
 ! D49   D(22,5,7,9)            56.8938         calculate D2E/DX2 analytically  !
 ! D50   D(22,5,7,26)          -64.6414         calculate D2E/DX2 analytically  !
 ! D51   D(22,5,7,27)         -179.7401         calculate D2E/DX2 analytically  !
 ! D52   D(23,5,7,9)           -58.7566         calculate D2E/DX2 analytically  !
 ! D53   D(23,5,7,26)          179.7083         calculate D2E/DX2 analytically  !
 ! D54   D(23,5,7,27)           64.6096         calculate D2E/DX2 analytically  !
 ! D55   D(4,6,8,10)           -63.3598         calculate D2E/DX2 analytically  !
 ! D56   D(4,6,8,28)            60.687          calculate D2E/DX2 analytically  !
 ! D57   D(4,6,8,29)           175.0668         calculate D2E/DX2 analytically  !
 ! D58   D(24,6,8,10)          174.4869         calculate D2E/DX2 analytically  !
 ! D59   D(24,6,8,28)          -61.4663         calculate D2E/DX2 analytically  !
 ! D60   D(24,6,8,29)           52.9135         calculate D2E/DX2 analytically  !
 ! D61   D(25,6,8,10)           59.9405         calculate D2E/DX2 analytically  !
 ! D62   D(25,6,8,28)         -176.0127         calculate D2E/DX2 analytically  !
 ! D63   D(25,6,8,29)          -61.6329         calculate D2E/DX2 analytically  !
 ! D64   D(5,7,9,11)            76.6935         calculate D2E/DX2 analytically  !
 ! D65   D(5,7,9,30)           -47.046          calculate D2E/DX2 analytically  !
 ! D66   D(5,7,9,31)          -163.3917         calculate D2E/DX2 analytically  !
 ! D67   D(26,7,9,11)         -161.6154         calculate D2E/DX2 analytically  !
 ! D68   D(26,7,9,30)           74.6451         calculate D2E/DX2 analytically  !
 ! D69   D(26,7,9,31)          -41.7006         calculate D2E/DX2 analytically  !
 ! D70   D(27,7,9,11)          -46.9304         calculate D2E/DX2 analytically  !
 ! D71   D(27,7,9,30)         -170.67           calculate D2E/DX2 analytically  !
 ! D72   D(27,7,9,31)           72.9843         calculate D2E/DX2 analytically  !
 ! D73   D(6,8,10,12)           91.4174         calculate D2E/DX2 analytically  !
 ! D74   D(6,8,10,32)         -147.4206         calculate D2E/DX2 analytically  !
 ! D75   D(6,8,10,33)          -32.4302         calculate D2E/DX2 analytically  !
 ! D76   D(28,8,10,12)         -32.7306         calculate D2E/DX2 analytically  !
 ! D77   D(28,8,10,32)          88.4315         calculate D2E/DX2 analytically  !
 ! D78   D(28,8,10,33)        -156.5782         calculate D2E/DX2 analytically  !
 ! D79   D(29,8,10,12)        -147.7283         calculate D2E/DX2 analytically  !
 ! D80   D(29,8,10,32)         -26.5663         calculate D2E/DX2 analytically  !
 ! D81   D(29,8,10,33)          88.4241         calculate D2E/DX2 analytically  !
 ! D82   D(7,9,11,13)          -68.7668         calculate D2E/DX2 analytically  !
 ! D83   D(7,9,11,34)          170.4314         calculate D2E/DX2 analytically  !
 ! D84   D(7,9,11,35)           52.6691         calculate D2E/DX2 analytically  !
 ! D85   D(30,9,11,13)          55.724          calculate D2E/DX2 analytically  !
 ! D86   D(30,9,11,34)         -65.0778         calculate D2E/DX2 analytically  !
 ! D87   D(30,9,11,35)         177.1599         calculate D2E/DX2 analytically  !
 ! D88   D(31,9,11,13)         170.1054         calculate D2E/DX2 analytically  !
 ! D89   D(31,9,11,34)          49.3037         calculate D2E/DX2 analytically  !
 ! D90   D(31,9,11,35)         -68.4587         calculate D2E/DX2 analytically  !
 ! D91   D(8,10,12,36)         178.9496         calculate D2E/DX2 analytically  !
 ! D92   D(8,10,12,37)         -60.4798         calculate D2E/DX2 analytically  !
 ! D93   D(8,10,12,38)          59.5975         calculate D2E/DX2 analytically  !
 ! D94   D(32,10,12,36)         57.3818         calculate D2E/DX2 analytically  !
 ! D95   D(32,10,12,37)        177.9524         calculate D2E/DX2 analytically  !
 ! D96   D(32,10,12,38)        -61.9703         calculate D2E/DX2 analytically  !
 ! D97   D(33,10,12,36)        -57.4691         calculate D2E/DX2 analytically  !
 ! D98   D(33,10,12,37)         63.1015         calculate D2E/DX2 analytically  !
 ! D99   D(33,10,12,38)       -176.8212         calculate D2E/DX2 analytically  !
 ! D100  D(9,11,13,39)        -178.7355         calculate D2E/DX2 analytically  !
 ! D101  D(34,11,13,39)        -58.5478         calculate D2E/DX2 analytically  !
 ! D102  D(35,11,13,39)         60.3366         calculate D2E/DX2 analytically  !
 --------------------------------------------------------------------------------
 Trust Radius=3.00D-01 FncErr=1.00D-07 GrdErr=1.00D-06
 Number of steps in this run=    223 maximum allowed number of steps=    234.
 GradGradGradGradGradGradGradGradGradGradGradGradGradGradGradGradGradGrad

 Leave Link  103 at Sun Feb 22 13:44:12 2015, MaxMem=   524288000 cpu:         0.1
 (Enter /opt/g09/l202.exe)
                          Input orientation:                          
 ---------------------------------------------------------------------
 Center     Atomic      Atomic             Coordinates (Angstroms)
 Number     Number       Type             X           Y           Z
 ---------------------------------------------------------------------
      1          6           0        8.012780    4.881630    3.398310
      2          6           0        6.682080    4.551910    4.098560
      3          6           0        5.488930    4.348120    3.150720
      4          6           0        8.573700    3.753220    2.516680
      5          6           0        4.163460    4.120400    3.893060
      6          6           0        9.953460    4.094420    1.930880
      7          6           0        2.978180    3.892980    2.940150
      8          6           0       10.532640    3.084400    0.921010
      9          6           0        1.624230    3.617200    3.622800
     10          6           0       10.826020    1.668870    1.471890
     11          6           0        0.915520    4.834050    4.213320
     12          6           0        9.669550    0.665620    1.331520
     13          8           0        1.642370    5.320580    5.343470
     14          1           0        8.760560    5.132910    4.163730
     15          1           0        7.886200    5.788200    2.788030
     16          1           0        6.440170    5.365610    4.796090
     17          1           0        6.811660    3.651050    4.716440
     18          1           0        5.393760    5.230480    2.499690
     19          1           0        5.681030    3.495630    2.484480
     20          1           0        7.877460    3.537440    1.694870
     21          1           0        8.638610    2.836170    3.118160
     22          1           0        4.262710    3.245030    4.551670
     23          1           0        3.950340    4.971390    4.548800
     24          1           0        9.888730    5.074130    1.436020
     25          1           0       10.670100    4.220690    2.756050
     26          1           0        3.213880    3.039790    2.288540
     27          1           0        2.872230    4.761450    2.272680
     28          1           0        9.857640    3.003820    0.056310
     29          1           0       11.466890    3.510300    0.533040
     30          1           0        1.746830    2.864620    4.413320
     31          1           0        0.937240    3.183960    2.883230
     32          1           0       11.696380    1.258720    0.944140
     33          1           0       11.124970    1.745570    2.526820
     34          1           0       -0.103230    4.545920    4.514480
     35          1           0        0.830260    5.619490    3.444910
     36          1           0        9.952740   -0.317560    1.724100
     37          1           0        8.771950    0.991070    1.865860
     38          1           0        9.396920    0.535350    0.277350
     39          1           0        1.168440    6.071770    5.709330
 ---------------------------------------------------------------------
                    Distance matrix (angstroms):
                    1          2          3          4          5
     1  C    0.000000
     2  C    1.539425   0.000000
     3  C    2.591477   1.537380   0.000000
     4  C    1.537925   2.592002   3.204952   0.000000
     5  C    3.954935   2.563567   1.536163   4.634594   0.000000
     6  C    2.557203   3.950957   4.635127   1.537308   6.113504
     7  C    5.151168   3.936366   2.560343   5.613261   1.537741
     8  C    3.964435   5.203578   5.657526   2.613605   7.104423
     9  C    6.516345   5.165450   3.961440   7.038262   2.602679
    10  C    4.684788   5.690655   6.203336   3.241766   7.500785
    11  C    7.144061   5.774598   4.720310   7.917986   3.340805
    12  C    4.979081   5.628920   5.860706   3.484073   6.986703
    13  O    6.675211   5.247793   4.533195   7.647921   3.146429
    14  H    1.099174   2.159140   3.513637   2.156672   4.715057
    15  H    1.100152   2.166981   2.819978   2.165047   4.226280
    16  H    2.158965   1.098716   2.155780   3.513896   2.747621
    17  H    2.166676   1.100052   2.164948   2.820313   2.812687
    18  H    2.790785   2.162547   1.100662   3.506366   2.165039
    19  H    2.862366   2.173265   1.098871   2.904295   2.162742
    20  H    2.174136   2.869810   2.912349   1.098491   4.354960
    21  H    2.157326   2.780820   3.493929   1.098623   4.719818
    22  H    4.251085   2.786861   2.164043   4.794171   1.099950
    23  H    4.223163   2.800193   2.170335   5.195085   1.095262
    24  H    2.721549   4.200528   4.777607   2.154515   6.302806
    25  H    2.812595   4.220941   5.197742   2.161185   6.605998
    26  H    5.258651   4.194173   2.762415   5.411904   2.154972
    27  H    5.263719   4.229977   2.790863   5.795069   2.168836
    28  H    4.254250   5.368477   5.519796   2.874634   6.956370
    29  H    4.692675   6.057416   6.579529   3.516303   8.062385
    30  H    6.660383   5.225200   4.218796   7.140939   2.772680
    31  H    7.294564   6.029221   4.705816   7.666416   3.507873
    32  H    5.719907   6.777807   7.276388   4.294944   8.580806
    33  H    4.503343   5.484996   6.239188   3.246497   7.481247
    34  H    8.199278   6.798048   5.759446   8.939166   4.332652
    35  H    7.220471   5.984211   4.837989   8.019067   3.682164
    36  H    5.796378   6.328271   6.612822   4.370490   7.610233
    37  H    4.249847   4.693835   4.868149   2.844704   5.927936
    38  H    5.526878   6.172905   6.169753   4.005868   7.301715
    39  H    7.321355   5.941783   5.308869   8.390862   4.009592
                    6          7          8          9         10
     6  C    0.000000
     7  C    7.050797   0.000000
     8  C    1.541242   7.861335   0.000000
     9  C    8.512720   1.541183   9.324340   0.000000
    10  C    2.618268   8.288006   1.547018   9.648593   0.000000
    11  C    9.350986   2.600219  10.314532   1.526993  10.758802
    12  C    3.492350   7.601183   2.600757   8.870680   1.537412
    13  O    9.067715   3.098125  10.178190   2.421268  10.614309
    14  H    2.736255   6.039080   4.225150   7.315544   4.848887
    15  H    2.806628   5.263427   4.218998   6.679996   5.229115
    16  H    4.708350   4.195060   6.080171   5.256123   6.629621
    17  H    4.222183   4.231939   5.345285   5.301568   5.529125
    18  H    4.733396   2.796058   5.788435   4.251283   6.576541
    19  H    4.349561   2.769643   5.113870   4.215232   5.552775
    20  H    2.162337   5.067551   2.802514   6.544170   3.497897
    21  H    2.172938   5.760990   2.911432   7.075747   2.976165
    22  H    6.322550   2.160290   7.247035   2.821859   7.419324
    23  H    6.607574   2.166984   7.749082   2.846418   8.224901
    24  H    1.099504   7.170302   2.153806   8.672175   3.532081
    25  H    1.100192   7.701099   2.162735   9.107317   2.860972
    26  H    6.830967   1.099128   7.445561   2.154214   7.777597
    27  H    7.120785   1.100446   7.957474   2.165557   8.571353
    28  H    2.170853   7.512264   1.099920   8.993616   2.173412
    29  H    2.141407   8.831694   1.097604  10.316782   2.164028
    30  H    8.661622   2.178067   9.457007   1.098330   9.618395
    31  H    9.111977   2.161339   9.794484   1.098461  10.103235
    32  H    3.471688   9.323647   2.165164  10.685778   1.097392
    33  H    2.691594   8.435188   2.173004   9.745165   1.099150
    34  H   10.393068   3.521354  11.321254   2.154468  11.703985
    35  H    9.372881   2.801639  10.340838   2.161296  10.927736
    36  H    4.416823   8.237227   3.543243   9.404865   2.184521
    37  H    3.321291   6.568329   2.893925   7.814941   2.198597
    38  H    3.963695   7.717798   2.863881   9.005806   2.180395
    39  H    9.765407   3.961142  10.933464   3.253654  11.428485
                   11         12         13         14         15
    11  C    0.000000
    12  C   10.115020   0.000000
    13  O    1.429077  10.109402   0.000000
    14  H    7.850887   5.366969   7.217731   0.000000
    15  H    7.178596   5.616279   6.762718   1.756833   0.000000
    16  H    5.580675   6.672484   4.829134   2.416245   2.510357
    17  H    6.034657   5.342098   5.468277   2.509902   3.072590
    18  H    4.811270   6.362778   4.708304   3.756846   2.570301
    19  H    5.243123   5.024596   5.273997   3.870926   3.195433
    20  H    7.516142   3.404550   7.440982   3.069309   2.502198
    21  H    8.052144   2.994363   7.750592   2.526480   3.064243
    22  H    3.720638   6.801223   3.435264   4.893388   4.765272
    23  H    3.056394   7.848561   2.465798   4.828311   4.388449
    24  H    9.396251   4.415192   9.128601   2.952393   2.519515
    25  H    9.881886   3.958397   9.455390   2.541663   3.195029
    26  H    3.493795   6.944656   4.123620   6.217970   5.443696
    27  H    2.756822   7.991568   3.354837   6.195683   5.143899
    28  H   10.029556   2.669966  10.040523   4.754735   4.370543
    29  H   11.252919   3.458353  11.087765   4.810301   4.805741
    30  H    2.147028   8.780808   2.628275   7.375625   6.991477
    31  H    2.119530   9.219711   3.333937   8.163481   7.421534
    32  H   11.819368   2.147061  11.701963   5.830450   6.199483
    33  H   10.798882   2.171009  10.518266   4.443420   5.186590
    34  H    1.100712  10.986136   2.081932   8.890127   8.267701
    35  H    1.102107  10.350860   2.086480   7.977664   7.088458
    36  H   10.696104   1.095883  10.674770   6.089393   6.533211
    37  H    9.055526   1.094131   9.037109   4.736578   4.964615
    38  H   10.291007   1.096618  10.425787   6.053632   6.014834
    39  H    1.958051  10.984560   0.960599   7.804526   7.330942
                   16         17         18         19         20
    16  H    0.000000
    17  H    1.756151   0.000000
    18  H    2.527190   3.069042   0.000000
    19  H    3.068658   2.506816   1.758539   0.000000
    20  H    3.876283   3.206045   3.111733   2.334424   0.000000
    21  H    3.747887   2.560522   4.079740   3.095758   1.759796
    22  H    3.049251   2.586339   3.071141   2.519466   4.616625
    23  H    2.532946   3.155718   2.519810   3.071575   5.061956
    24  H    4.823650   4.717486   4.621752   4.614723   2.544332
    25  H    4.833727   4.365224   5.378212   5.048790   3.064600
    26  H    4.701722   4.383190   3.097674   2.516548   4.727481
    27  H    4.411667   4.766976   2.574808   3.088125   5.185016
    28  H    6.302592   5.604794   5.554669   4.856126   2.625022
    29  H    6.847166   6.260336   6.611327   6.106104   3.772876
    30  H    5.331876   5.134477   4.749671   4.426796   6.739976
    31  H    6.221002   6.171519   4.918935   4.770711   7.050092
    32  H    7.702714   6.619213   7.610363   6.600064   4.510023
    33  H    6.340475   5.199032   6.707615   5.718478   3.801218
    34  H    6.600551   6.975477   5.894480   6.219459   8.524004
    35  H    5.775918   6.424071   4.676569   5.381745   7.553847
    36  H    7.353482   5.879655   7.222644   5.776340   4.378204
    37  H    5.758476   4.363947   5.457701   4.026077   2.704321
    38  H    7.245191   6.008051   6.558074   5.238561   3.651118
    39  H    5.396648   6.220261   5.372419   6.115523   8.218860
                   21         22         23         24         25
    21  H    0.000000
    22  H    4.622837   0.000000
    23  H    5.346566   1.754395   0.000000
    24  H    3.066082   6.686178   6.705552   0.000000
    25  H    2.484949   6.725386   6.995190   1.755385   0.000000
    26  H    5.491578   2.502783   3.063042   7.029861   7.563617
    27  H    6.137807   3.070303   2.527275   7.073121   7.831529
    28  H    3.299858   7.181204   7.677890   2.488122   3.070743
    29  H    3.890561   8.253482   8.646365   2.398234   2.466030
    30  H    7.012480   2.548236   3.051605   8.946328   9.176613
    31  H    7.712798   3.721045   3.879150   9.262631   9.788746
    32  H    4.069972   8.498185   9.315505   4.250517   3.620709
    33  H    2.778683   7.310199   8.122169   3.714491   2.526989
    34  H    9.016248   4.555780   4.075982  10.468772  10.920737
    35  H    8.296021   4.317950   3.372463   9.294565   9.962611
    36  H    3.690034   7.284479   8.484146   5.399760   4.709059
    37  H    2.233927   5.712019   6.803605   4.254802   3.850436
    38  H    3.733498   7.209181   8.221251   4.710087   4.620246
    39  H    8.543226   4.348004   3.208837   9.762168  10.120766
                   26         27         28         29         30
    26  H    0.000000
    27  H    1.755303   0.000000
    28  H    7.008830   7.536412   0.000000
    29  H    8.450759   8.857760   1.753134   0.000000
    30  H    2.587974   3.073569   9.208048  10.485850   0.000000
    31  H    2.357442   2.570104   9.359352  10.793675   1.760281
    32  H    8.771113   9.586436   2.685997   2.300279  10.658690
    33  H    8.019796   8.790213   3.048399   2.684463   9.631234
    34  H    4.269245   3.731686  11.021447  12.279741   2.501944
    35  H    3.697795   2.505992   9.990892  11.227892   3.060593
    36  H    7.550008   8.731031   3.717813   4.285299   9.202996
    37  H    5.938691   7.013413   2.916223   3.922452   7.704028
    38  H    6.967574   8.025761   2.520807   3.633247   9.003090
    39  H    5.007847   4.053443  10.810696  11.807336   3.507134
                   31         32         33         34         35
    31  H    0.000000
    32  H   11.100708   0.000000
    33  H   10.294942   1.751687   0.000000
    34  H    2.366113  12.758676  11.741602   0.000000
    35  H    2.501746  11.972582  11.037717   1.779870   0.000000
    36  H    9.740814   2.476545   2.504993  11.513566  11.019500
    37  H    8.199176   3.077904   2.557898   9.920734   9.326634
    38  H    9.239693   2.501078   3.083975  11.148578  10.453209
    39  H    4.047189  12.518387  11.312686   2.317980   2.333778
                   36         37         38         39
    36  H    0.000000
    37  H    1.768297   0.000000
    38  H    1.769033   1.766814   0.000000
    39  H   11.570200   9.919634  11.307795   0.000000
 Symmetry turned off by external request.
 Stoichiometry    C12H26O
 Framework group  C1[X(C12H26O)]
 Deg. of freedom   111
 Full point group                 C1      NOp   1
 Rotational constants (GHZ):      1.6437774      0.1826842      0.1712460
 Leave Link  202 at Sun Feb 22 13:44:12 2015, MaxMem=   524288000 cpu:         0.0
 (Enter /opt/g09/l301.exe)
 Standard basis: 6-311+G(d,p) (5D, 7F)
 Ernie: Thresh=  0.10000D-02 Tol=  0.10000D-05 Strict=F.
 AO basis set in the form of general basis input (Overlap normalization):
      1 0
 S   6 1.00       0.000000000000
      0.4563240000D+04  0.1966650249D-02
      0.6820240000D+03  0.1523060193D-01
      0.1549730000D+03  0.7612690966D-01
      0.4445530000D+02  0.2608010331D+00
      0.1302900000D+02  0.6164620782D+00
      0.1827730000D+01  0.2210060280D+00
 SP   3 1.00       0.000000000000
      0.2096420000D+02  0.1146600807D+00  0.4024869267D-01
      0.4803310000D+01  0.9199996477D+00  0.2375939567D+00
      0.1459330000D+01 -0.3030682134D-02  0.8158538515D+00
 SP   1 1.00       0.000000000000
      0.4834560000D+00  0.1000000000D+01  0.1000000000D+01
 SP   1 1.00       0.000000000000
      0.1455850000D+00  0.1000000000D+01  0.1000000000D+01
 SP   1 1.00       0.000000000000
      0.4380000000D-01  0.1000000000D+01  0.1000000000D+01
 D   1 1.00       0.000000000000
      0.6260000000D+00  0.1000000000D+01
 ****
      2 0
 S   6 1.00       0.000000000000
      0.4563240000D+04  0.1966650249D-02
      0.6820240000D+03  0.1523060193D-01
      0.1549730000D+03  0.7612690966D-01
      0.4445530000D+02  0.2608010331D+00
      0.1302900000D+02  0.6164620782D+00
      0.1827730000D+01  0.2210060280D+00
 SP   3 1.00       0.000000000000
      0.2096420000D+02  0.1146600807D+00  0.4024869267D-01
      0.4803310000D+01  0.9199996477D+00  0.2375939567D+00
      0.1459330000D+01 -0.3030682134D-02  0.8158538515D+00
 SP   1 1.00       0.000000000000
      0.4834560000D+00  0.1000000000D+01  0.1000000000D+01
 SP   1 1.00       0.000000000000
      0.1455850000D+00  0.1000000000D+01  0.1000000000D+01
 SP   1 1.00       0.000000000000
      0.4380000000D-01  0.1000000000D+01  0.1000000000D+01
 D   1 1.00       0.000000000000
      0.6260000000D+00  0.1000000000D+01
 ****
      3 0
 S   6 1.00       0.000000000000
      0.4563240000D+04  0.1966650249D-02
      0.6820240000D+03  0.1523060193D-01
      0.1549730000D+03  0.7612690966D-01
      0.4445530000D+02  0.2608010331D+00
      0.1302900000D+02  0.6164620782D+00
      0.1827730000D+01  0.2210060280D+00
 SP   3 1.00       0.000000000000
      0.2096420000D+02  0.1146600807D+00  0.4024869267D-01
      0.4803310000D+01  0.9199996477D+00  0.2375939567D+00
      0.1459330000D+01 -0.3030682134D-02  0.8158538515D+00
 SP   1 1.00       0.000000000000
      0.4834560000D+00  0.1000000000D+01  0.1000000000D+01
 SP   1 1.00       0.000000000000
      0.1455850000D+00  0.1000000000D+01  0.1000000000D+01
 SP   1 1.00       0.000000000000
      0.4380000000D-01  0.1000000000D+01  0.1000000000D+01
 D   1 1.00       0.000000000000
      0.6260000000D+00  0.1000000000D+01
 ****
      4 0
 S   6 1.00       0.000000000000
      0.4563240000D+04  0.1966650249D-02
      0.6820240000D+03  0.1523060193D-01
      0.1549730000D+03  0.7612690966D-01
      0.4445530000D+02  0.2608010331D+00
      0.1302900000D+02  0.6164620782D+00
      0.1827730000D+01  0.2210060280D+00
 SP   3 1.00       0.000000000000
      0.2096420000D+02  0.1146600807D+00  0.4024869267D-01
      0.4803310000D+01  0.9199996477D+00  0.2375939567D+00
      0.1459330000D+01 -0.3030682134D-02  0.8158538515D+00
 SP   1 1.00       0.000000000000
      0.4834560000D+00  0.1000000000D+01  0.1000000000D+01
 SP   1 1.00       0.000000000000
      0.1455850000D+00  0.1000000000D+01  0.1000000000D+01
 SP   1 1.00       0.000000000000
      0.4380000000D-01  0.1000000000D+01  0.1000000000D+01
 D   1 1.00       0.000000000000
      0.6260000000D+00  0.1000000000D+01
 ****
      5 0
 S   6 1.00       0.000000000000
      0.4563240000D+04  0.1966650249D-02
      0.6820240000D+03  0.1523060193D-01
      0.1549730000D+03  0.7612690966D-01
      0.4445530000D+02  0.2608010331D+00
      0.1302900000D+02  0.6164620782D+00
      0.1827730000D+01  0.2210060280D+00
 SP   3 1.00       0.000000000000
      0.2096420000D+02  0.1146600807D+00  0.4024869267D-01
      0.4803310000D+01  0.9199996477D+00  0.2375939567D+00
      0.1459330000D+01 -0.3030682134D-02  0.8158538515D+00
 SP   1 1.00       0.000000000000
      0.4834560000D+00  0.1000000000D+01  0.1000000000D+01
 SP   1 1.00       0.000000000000
      0.1455850000D+00  0.1000000000D+01  0.1000000000D+01
 SP   1 1.00       0.000000000000
      0.4380000000D-01  0.1000000000D+01  0.1000000000D+01
 D   1 1.00       0.000000000000
      0.6260000000D+00  0.1000000000D+01
 ****
      6 0
 S   6 1.00       0.000000000000
      0.4563240000D+04  0.1966650249D-02
      0.6820240000D+03  0.1523060193D-01
      0.1549730000D+03  0.7612690966D-01
      0.4445530000D+02  0.2608010331D+00
      0.1302900000D+02  0.6164620782D+00
      0.1827730000D+01  0.2210060280D+00
 SP   3 1.00       0.000000000000
      0.2096420000D+02  0.1146600807D+00  0.4024869267D-01
      0.4803310000D+01  0.9199996477D+00  0.2375939567D+00
      0.1459330000D+01 -0.3030682134D-02  0.8158538515D+00
 SP   1 1.00       0.000000000000
      0.4834560000D+00  0.1000000000D+01  0.1000000000D+01
 SP   1 1.00       0.000000000000
      0.1455850000D+00  0.1000000000D+01  0.1000000000D+01
 SP   1 1.00       0.000000000000
      0.4380000000D-01  0.1000000000D+01  0.1000000000D+01
 D   1 1.00       0.000000000000
      0.6260000000D+00  0.1000000000D+01
 ****
      7 0
 S   6 1.00       0.000000000000
      0.4563240000D+04  0.1966650249D-02
      0.6820240000D+03  0.1523060193D-01
      0.1549730000D+03  0.7612690966D-01
      0.4445530000D+02  0.2608010331D+00
      0.1302900000D+02  0.6164620782D+00
      0.1827730000D+01  0.2210060280D+00
 SP   3 1.00       0.000000000000
      0.2096420000D+02  0.1146600807D+00  0.4024869267D-01
      0.4803310000D+01  0.9199996477D+00  0.2375939567D+00
      0.1459330000D+01 -0.3030682134D-02  0.8158538515D+00
 SP   1 1.00       0.000000000000
      0.4834560000D+00  0.1000000000D+01  0.1000000000D+01
 SP   1 1.00       0.000000000000
      0.1455850000D+00  0.1000000000D+01  0.1000000000D+01
 SP   1 1.00       0.000000000000
      0.4380000000D-01  0.1000000000D+01  0.1000000000D+01
 D   1 1.00       0.000000000000
      0.6260000000D+00  0.1000000000D+01
 ****
      8 0
 S   6 1.00       0.000000000000
      0.4563240000D+04  0.1966650249D-02
      0.6820240000D+03  0.1523060193D-01
      0.1549730000D+03  0.7612690966D-01
      0.4445530000D+02  0.2608010331D+00
      0.1302900000D+02  0.6164620782D+00
      0.1827730000D+01  0.2210060280D+00
 SP   3 1.00       0.000000000000
      0.2096420000D+02  0.1146600807D+00  0.4024869267D-01
      0.4803310000D+01  0.9199996477D+00  0.2375939567D+00
      0.1459330000D+01 -0.3030682134D-02  0.8158538515D+00
 SP   1 1.00       0.000000000000
      0.4834560000D+00  0.1000000000D+01  0.1000000000D+01
 SP   1 1.00       0.000000000000
      0.1455850000D+00  0.1000000000D+01  0.1000000000D+01
 SP   1 1.00       0.000000000000
      0.4380000000D-01  0.1000000000D+01  0.1000000000D+01
 D   1 1.00       0.000000000000
      0.6260000000D+00  0.1000000000D+01
 ****
      9 0
 S   6 1.00       0.000000000000
      0.4563240000D+04  0.1966650249D-02
      0.6820240000D+03  0.1523060193D-01
      0.1549730000D+03  0.7612690966D-01
      0.4445530000D+02  0.2608010331D+00
      0.1302900000D+02  0.6164620782D+00
      0.1827730000D+01  0.2210060280D+00
 SP   3 1.00       0.000000000000
      0.2096420000D+02  0.1146600807D+00  0.4024869267D-01
      0.4803310000D+01  0.9199996477D+00  0.2375939567D+00
      0.1459330000D+01 -0.3030682134D-02  0.8158538515D+00
 SP   1 1.00       0.000000000000
      0.4834560000D+00  0.1000000000D+01  0.1000000000D+01
 SP   1 1.00       0.000000000000
      0.1455850000D+00  0.1000000000D+01  0.1000000000D+01
 SP   1 1.00       0.000000000000
      0.4380000000D-01  0.1000000000D+01  0.1000000000D+01
 D   1 1.00       0.000000000000
      0.6260000000D+00  0.1000000000D+01
 ****
     10 0
 S   6 1.00       0.000000000000
      0.4563240000D+04  0.1966650249D-02
      0.6820240000D+03  0.1523060193D-01
      0.1549730000D+03  0.7612690966D-01
      0.4445530000D+02  0.2608010331D+00
      0.1302900000D+02  0.6164620782D+00
      0.1827730000D+01  0.2210060280D+00
 SP   3 1.00       0.000000000000
      0.2096420000D+02  0.1146600807D+00  0.4024869267D-01
      0.4803310000D+01  0.9199996477D+00  0.2375939567D+00
      0.1459330000D+01 -0.3030682134D-02  0.8158538515D+00
 SP   1 1.00       0.000000000000
      0.4834560000D+00  0.1000000000D+01  0.1000000000D+01
 SP   1 1.00       0.000000000000
      0.1455850000D+00  0.1000000000D+01  0.1000000000D+01
 SP   1 1.00       0.000000000000
      0.4380000000D-01  0.1000000000D+01  0.1000000000D+01
 D   1 1.00       0.000000000000
      0.6260000000D+00  0.1000000000D+01
 ****
     11 0
 S   6 1.00       0.000000000000
      0.4563240000D+04  0.1966650249D-02
      0.6820240000D+03  0.1523060193D-01
      0.1549730000D+03  0.7612690966D-01
      0.4445530000D+02  0.2608010331D+00
      0.1302900000D+02  0.6164620782D+00
      0.1827730000D+01  0.2210060280D+00
 SP   3 1.00       0.000000000000
      0.2096420000D+02  0.1146600807D+00  0.4024869267D-01
      0.4803310000D+01  0.9199996477D+00  0.2375939567D+00
      0.1459330000D+01 -0.3030682134D-02  0.8158538515D+00
 SP   1 1.00       0.000000000000
      0.4834560000D+00  0.1000000000D+01  0.1000000000D+01
 SP   1 1.00       0.000000000000
      0.1455850000D+00  0.1000000000D+01  0.1000000000D+01
 SP   1 1.00       0.000000000000
      0.4380000000D-01  0.1000000000D+01  0.1000000000D+01
 D   1 1.00       0.000000000000
      0.6260000000D+00  0.1000000000D+01
 ****
     12 0
 S   6 1.00       0.000000000000
      0.4563240000D+04  0.1966650249D-02
      0.6820240000D+03  0.1523060193D-01
      0.1549730000D+03  0.7612690966D-01
      0.4445530000D+02  0.2608010331D+00
      0.1302900000D+02  0.6164620782D+00
      0.1827730000D+01  0.2210060280D+00
 SP   3 1.00       0.000000000000
      0.2096420000D+02  0.1146600807D+00  0.4024869267D-01
      0.4803310000D+01  0.9199996477D+00  0.2375939567D+00
      0.1459330000D+01 -0.3030682134D-02  0.8158538515D+00
 SP   1 1.00       0.000000000000
      0.4834560000D+00  0.1000000000D+01  0.1000000000D+01
 SP   1 1.00       0.000000000000
      0.1455850000D+00  0.1000000000D+01  0.1000000000D+01
 SP   1 1.00       0.000000000000
      0.4380000000D-01  0.1000000000D+01  0.1000000000D+01
 D   1 1.00       0.000000000000
      0.6260000000D+00  0.1000000000D+01
 ****
     13 0
 S   6 1.00       0.000000000000
      0.8588500000D+04  0.1895150083D-02
      0.1297230000D+04  0.1438590063D-01
      0.2992960000D+03  0.7073200310D-01
      0.8737710000D+02  0.2400010105D+00
      0.2567890000D+02  0.5947970261D+00
      0.3740040000D+01  0.2808020123D+00
 SP   3 1.00       0.000000000000
      0.4211750000D+02  0.1138890124D+00  0.3651139738D-01
      0.9628370000D+01  0.9208111006D+00  0.2371529830D+00
      0.2853320000D+01 -0.3274470358D-02  0.8197019412D+00
 SP   1 1.00       0.000000000000
      0.9056610000D+00  0.1000000000D+01  0.1000000000D+01
 SP   1 1.00       0.000000000000
      0.2556110000D+00  0.1000000000D+01  0.1000000000D+01
 SP   1 1.00       0.000000000000
      0.8450000000D-01  0.1000000000D+01  0.1000000000D+01
 D   1 1.00       0.000000000000
      0.1292000000D+01  0.1000000000D+01
 ****
     14 0
 S   3 1.00       0.000000000000
      0.3386500000D+02  0.2549381454D-01
      0.5094790000D+01  0.1903731086D+00
      0.1158790000D+01  0.8521614860D+00
 S   1 1.00       0.000000000000
      0.3258400000D+00  0.1000000000D+01
 S   1 1.00       0.000000000000
      0.1027410000D+00  0.1000000000D+01
 P   1 1.00       0.000000000000
      0.7500000000D+00  0.1000000000D+01
 ****
     15 0
 S   3 1.00       0.000000000000
      0.3386500000D+02  0.2549381454D-01
      0.5094790000D+01  0.1903731086D+00
      0.1158790000D+01  0.8521614860D+00
 S   1 1.00       0.000000000000
      0.3258400000D+00  0.1000000000D+01
 S   1 1.00       0.000000000000
      0.1027410000D+00  0.1000000000D+01
 P   1 1.00       0.000000000000
      0.7500000000D+00  0.1000000000D+01
 ****
     16 0
 S   3 1.00       0.000000000000
      0.3386500000D+02  0.2549381454D-01
      0.5094790000D+01  0.1903731086D+00
      0.1158790000D+01  0.8521614860D+00
 S   1 1.00       0.000000000000
      0.3258400000D+00  0.1000000000D+01
 S   1 1.00       0.000000000000
      0.1027410000D+00  0.1000000000D+01
 P   1 1.00       0.000000000000
      0.7500000000D+00  0.1000000000D+01
 ****
     17 0
 S   3 1.00       0.000000000000
      0.3386500000D+02  0.2549381454D-01
      0.5094790000D+01  0.1903731086D+00
      0.1158790000D+01  0.8521614860D+00
 S   1 1.00       0.000000000000
      0.3258400000D+00  0.1000000000D+01
 S   1 1.00       0.000000000000
      0.1027410000D+00  0.1000000000D+01
 P   1 1.00       0.000000000000
      0.7500000000D+00  0.1000000000D+01
 ****
     18 0
 S   3 1.00       0.000000000000
      0.3386500000D+02  0.2549381454D-01
      0.5094790000D+01  0.1903731086D+00
      0.1158790000D+01  0.8521614860D+00
 S   1 1.00       0.000000000000
      0.3258400000D+00  0.1000000000D+01
 S   1 1.00       0.000000000000
      0.1027410000D+00  0.1000000000D+01
 P   1 1.00       0.000000000000
      0.7500000000D+00  0.1000000000D+01
 ****
     19 0
 S   3 1.00       0.000000000000
      0.3386500000D+02  0.2549381454D-01
      0.5094790000D+01  0.1903731086D+00
      0.1158790000D+01  0.8521614860D+00
 S   1 1.00       0.000000000000
      0.3258400000D+00  0.1000000000D+01
 S   1 1.00       0.000000000000
      0.1027410000D+00  0.1000000000D+01
 P   1 1.00       0.000000000000
      0.7500000000D+00  0.1000000000D+01
 ****
     20 0
 S   3 1.00       0.000000000000
      0.3386500000D+02  0.2549381454D-01
      0.5094790000D+01  0.1903731086D+00
      0.1158790000D+01  0.8521614860D+00
 S   1 1.00       0.000000000000
      0.3258400000D+00  0.1000000000D+01
 S   1 1.00       0.000000000000
      0.1027410000D+00  0.1000000000D+01
 P   1 1.00       0.000000000000
      0.7500000000D+00  0.1000000000D+01
 ****
     21 0
 S   3 1.00       0.000000000000
      0.3386500000D+02  0.2549381454D-01
      0.5094790000D+01  0.1903731086D+00
      0.1158790000D+01  0.8521614860D+00
 S   1 1.00       0.000000000000
      0.3258400000D+00  0.1000000000D+01
 S   1 1.00       0.000000000000
      0.1027410000D+00  0.1000000000D+01
 P   1 1.00       0.000000000000
      0.7500000000D+00  0.1000000000D+01
 ****
     22 0
 S   3 1.00       0.000000000000
      0.3386500000D+02  0.2549381454D-01
      0.5094790000D+01  0.1903731086D+00
      0.1158790000D+01  0.8521614860D+00
 S   1 1.00       0.000000000000
      0.3258400000D+00  0.1000000000D+01
 S   1 1.00       0.000000000000
      0.1027410000D+00  0.1000000000D+01
 P   1 1.00       0.000000000000
      0.7500000000D+00  0.1000000000D+01
 ****
     23 0
 S   3 1.00       0.000000000000
      0.3386500000D+02  0.2549381454D-01
      0.5094790000D+01  0.1903731086D+00
      0.1158790000D+01  0.8521614860D+00
 S   1 1.00       0.000000000000
      0.3258400000D+00  0.1000000000D+01
 S   1 1.00       0.000000000000
      0.1027410000D+00  0.1000000000D+01
 P   1 1.00       0.000000000000
      0.7500000000D+00  0.1000000000D+01
 ****
     24 0
 S   3 1.00       0.000000000000
      0.3386500000D+02  0.2549381454D-01
      0.5094790000D+01  0.1903731086D+00
      0.1158790000D+01  0.8521614860D+00
 S   1 1.00       0.000000000000
      0.3258400000D+00  0.1000000000D+01
 S   1 1.00       0.000000000000
      0.1027410000D+00  0.1000000000D+01
 P   1 1.00       0.000000000000
      0.7500000000D+00  0.1000000000D+01
 ****
     25 0
 S   3 1.00       0.000000000000
      0.3386500000D+02  0.2549381454D-01
      0.5094790000D+01  0.1903731086D+00
      0.1158790000D+01  0.8521614860D+00
 S   1 1.00       0.000000000000
      0.3258400000D+00  0.1000000000D+01
 S   1 1.00       0.000000000000
      0.1027410000D+00  0.1000000000D+01
 P   1 1.00       0.000000000000
      0.7500000000D+00  0.1000000000D+01
 ****
     26 0
 S   3 1.00       0.000000000000
      0.3386500000D+02  0.2549381454D-01
      0.5094790000D+01  0.1903731086D+00
      0.1158790000D+01  0.8521614860D+00
 S   1 1.00       0.000000000000
      0.3258400000D+00  0.1000000000D+01
 S   1 1.00       0.000000000000
      0.1027410000D+00  0.1000000000D+01
 P   1 1.00       0.000000000000
      0.7500000000D+00  0.1000000000D+01
 ****
     27 0
 S   3 1.00       0.000000000000
      0.3386500000D+02  0.2549381454D-01
      0.5094790000D+01  0.1903731086D+00
      0.1158790000D+01  0.8521614860D+00
 S   1 1.00       0.000000000000
      0.3258400000D+00  0.1000000000D+01
 S   1 1.00       0.000000000000
      0.1027410000D+00  0.1000000000D+01
 P   1 1.00       0.000000000000
      0.7500000000D+00  0.1000000000D+01
 ****
     28 0
 S   3 1.00       0.000000000000
      0.3386500000D+02  0.2549381454D-01
      0.5094790000D+01  0.1903731086D+00
      0.1158790000D+01  0.8521614860D+00
 S   1 1.00       0.000000000000
      0.3258400000D+00  0.1000000000D+01
 S   1 1.00       0.000000000000
      0.1027410000D+00  0.1000000000D+01
 P   1 1.00       0.000000000000
      0.7500000000D+00  0.1000000000D+01
 ****
     29 0
 S   3 1.00       0.000000000000
      0.3386500000D+02  0.2549381454D-01
      0.5094790000D+01  0.1903731086D+00
      0.1158790000D+01  0.8521614860D+00
 S   1 1.00       0.000000000000
      0.3258400000D+00  0.1000000000D+01
 S   1 1.00       0.000000000000
      0.1027410000D+00  0.1000000000D+01
 P   1 1.00       0.000000000000
      0.7500000000D+00  0.1000000000D+01
 ****
     30 0
 S   3 1.00       0.000000000000
      0.3386500000D+02  0.2549381454D-01
      0.5094790000D+01  0.1903731086D+00
      0.1158790000D+01  0.8521614860D+00
 S   1 1.00       0.000000000000
      0.3258400000D+00  0.1000000000D+01
 S   1 1.00       0.000000000000
      0.1027410000D+00  0.1000000000D+01
 P   1 1.00       0.000000000000
      0.7500000000D+00  0.1000000000D+01
 ****
     31 0
 S   3 1.00       0.000000000000
      0.3386500000D+02  0.2549381454D-01
      0.5094790000D+01  0.1903731086D+00
      0.1158790000D+01  0.8521614860D+00
 S   1 1.00       0.000000000000
      0.3258400000D+00  0.1000000000D+01
 S   1 1.00       0.000000000000
      0.1027410000D+00  0.1000000000D+01
 P   1 1.00       0.000000000000
      0.7500000000D+00  0.1000000000D+01
 ****
     32 0
 S   3 1.00       0.000000000000
      0.3386500000D+02  0.2549381454D-01
      0.5094790000D+01  0.1903731086D+00
      0.1158790000D+01  0.8521614860D+00
 S   1 1.00       0.000000000000
      0.3258400000D+00  0.1000000000D+01
 S   1 1.00       0.000000000000
      0.1027410000D+00  0.1000000000D+01
 P   1 1.00       0.000000000000
      0.7500000000D+00  0.1000000000D+01
 ****
     33 0
 S   3 1.00       0.000000000000
      0.3386500000D+02  0.2549381454D-01
      0.5094790000D+01  0.1903731086D+00
      0.1158790000D+01  0.8521614860D+00
 S   1 1.00       0.000000000000
      0.3258400000D+00  0.1000000000D+01
 S   1 1.00       0.000000000000
      0.1027410000D+00  0.1000000000D+01
 P   1 1.00       0.000000000000
      0.7500000000D+00  0.1000000000D+01
 ****
     34 0
 S   3 1.00       0.000000000000
      0.3386500000D+02  0.2549381454D-01
      0.5094790000D+01  0.1903731086D+00
      0.1158790000D+01  0.8521614860D+00
 S   1 1.00       0.000000000000
      0.3258400000D+00  0.1000000000D+01
 S   1 1.00       0.000000000000
      0.1027410000D+00  0.1000000000D+01
 P   1 1.00       0.000000000000
      0.7500000000D+00  0.1000000000D+01
 ****
     35 0
 S   3 1.00       0.000000000000
      0.3386500000D+02  0.2549381454D-01
      0.5094790000D+01  0.1903731086D+00
      0.1158790000D+01  0.8521614860D+00
 S   1 1.00       0.000000000000
      0.3258400000D+00  0.1000000000D+01
 S   1 1.00       0.000000000000
      0.1027410000D+00  0.1000000000D+01
 P   1 1.00       0.000000000000
      0.7500000000D+00  0.1000000000D+01
 ****
     36 0
 S   3 1.00       0.000000000000
      0.3386500000D+02  0.2549381454D-01
      0.5094790000D+01  0.1903731086D+00
      0.1158790000D+01  0.8521614860D+00
 S   1 1.00       0.000000000000
      0.3258400000D+00  0.1000000000D+01
 S   1 1.00       0.000000000000
      0.1027410000D+00  0.1000000000D+01
 P   1 1.00       0.000000000000
      0.7500000000D+00  0.1000000000D+01
 ****
     37 0
 S   3 1.00       0.000000000000
      0.3386500000D+02  0.2549381454D-01
      0.5094790000D+01  0.1903731086D+00
      0.1158790000D+01  0.8521614860D+00
 S   1 1.00       0.000000000000
      0.3258400000D+00  0.1000000000D+01
 S   1 1.00       0.000000000000
      0.1027410000D+00  0.1000000000D+01
 P   1 1.00       0.000000000000
      0.7500000000D+00  0.1000000000D+01
 ****
     38 0
 S   3 1.00       0.000000000000
      0.3386500000D+02  0.2549381454D-01
      0.5094790000D+01  0.1903731086D+00
      0.1158790000D+01  0.8521614860D+00
 S   1 1.00       0.000000000000
      0.3258400000D+00  0.1000000000D+01
 S   1 1.00       0.000000000000
      0.1027410000D+00  0.1000000000D+01
 P   1 1.00       0.000000000000
      0.7500000000D+00  0.1000000000D+01
 ****
     39 0
 S   3 1.00       0.000000000000
      0.3386500000D+02  0.2549381454D-01
      0.5094790000D+01  0.1903731086D+00
      0.1158790000D+01  0.8521614860D+00
 S   1 1.00       0.000000000000
      0.3258400000D+00  0.1000000000D+01
 S   1 1.00       0.000000000000
      0.1027410000D+00  0.1000000000D+01
 P   1 1.00       0.000000000000
      0.7500000000D+00  0.1000000000D+01
 ****

   442 basis functions,   676 primitive gaussians,   455 cartesian basis functions
    53 alpha electrons       53 beta electrons
       nuclear repulsion energy       795.9402627583 Hartrees.
 IExCor= 1614 DFT=T Ex+Corr=B971 ExCW=0 ScaHFX=  0.210000
 ScaDFX=  1.000000  1.000000  1.000000  1.000000 ScalE2=  1.000000  1.000000
 IRadAn=      5 IRanWt=     -1 IRanGd=            0 ICorTp=0 IEmpDi=  4
 NAtoms=   39 NActive=   39 NUniq=   39 SFac= 1.00D+00 NAtFMM=   60 NAOKFM=F Big=F
 Integral buffers will be    131072 words long.
 Raffenetti 2 integral format.
 Two-electron integral symmetry is turned off.
 Leave Link  301 at Sun Feb 22 13:44:12 2015, MaxMem=   524288000 cpu:         0.4
 (Enter /opt/g09/l302.exe)
 NPDir=0 NMtPBC=     1 NCelOv=     1 NCel=       1 NClECP=     1 NCelD=      1
         NCelK=      1 NCelE2=     1 NClLst=     1 CellRange=     0.0.
 One-electron integrals computed using PRISM.
 NBasis=   442 RedAO= T EigKep=  4.46D-06  NBF=   442
 NBsUse=   442 1.00D-06 EigRej= -1.00D+00 NBFU=   442
 Precomputing XC quadrature grid using
 IXCGrd= 4 IRadAn=           5 IRanWt=          -1 IRanGd=           0 AccXCQ= 0.00D+00.
 Generated NRdTot=       0 NPtTot=           0 NUsed=           0 NTot=          32
 NSgBfM=   451   451   451   451   451 MxSgAt=    39 MxSgA2=    39.
 Leave Link  302 at Sun Feb 22 13:44:13 2015, MaxMem=   524288000 cpu:         7.7
 (Enter /opt/g09/l303.exe)
 DipDrv:  MaxL=1.
 Leave Link  303 at Sun Feb 22 13:44:13 2015, MaxMem=   524288000 cpu:         0.7
 (Enter /opt/g09/l401.exe)
 ExpMin= 4.38D-02 ExpMax= 8.59D+03 ExpMxC= 1.30D+03 IAcc=3 IRadAn=         5 AccDes= 0.00D+00
 Harris functional with IExCor= 1614 and IRadAn=       5 diagonalized for initial guess.
 HarFok:  IExCor= 1614 AccDes= 0.00D+00 IRadAn=         5 IDoV= 1 UseB2=F ITyADJ=14
 ICtDFT=  3500011 ScaDFX=  1.000000  1.000000  1.000000  1.000000
 FoFCou: FMM=F IPFlag=           0 FMFlag=      100000 FMFlg1=           0
         NFxFlg=           0 DoJE=T BraDBF=F KetDBF=T FulRan=T
         wScrn=  0.000000 ICntrl=     500 IOpCl=  0 I1Cent=   200000004 NGrid=           0
         NMat0=    1 NMatS0=      1 NMatT0=    0 NMatD0=    1 NMtDS0=    0 NMtDT0=    0
 Symmetry not used in FoFCou.
 Harris En= -531.776842803438    
 JPrj=0 DoOrth=F DoCkMO=T.
 Mixing orbitals, IMix= 1 IMixAn=  0 NRI=1 NE=   53 Coef=  7.07106781D-01  7.07106781D-01
 Leave Link  401 at Sun Feb 22 13:44:20 2015, MaxMem=   524288000 cpu:        53.9
 (Enter /opt/g09/l502.exe)
 Closed shell SCF:
 Using DIIS extrapolation, IDIIS=  1040.
 Two-electron integral symmetry not used.
 IVT=      646073 IEndB=      646073 NGot=   524288000 MDV=   523866048
 LenX=   523866048 LenY=   523658568
 Requested convergence on RMS density matrix=1.00D-08 within 128 cycles.
 Requested convergence on MAX density matrix=1.00D-06.
 Requested convergence on             energy=1.00D-06.
 No special actions if energy rises.
 Fock matrices will be formed incrementally for  20 cycles.

 Cycle   1  Pass 1  IDiag  1:
 FoFJK:  IHMeth= 1 ICntrl=       0 DoSepK=F KAlg= 0 I1Cent=   0 FoldK=F
 IRaf= 760000000 NMat=   1 IRICut=       1 DoRegI=T DoRafI=F ISym2E= 0.
 FoFCou: FMM=F IPFlag=           0 FMFlag=      100000 FMFlg1=           0
         NFxFlg=           0 DoJE=F BraDBF=F KetDBF=F FulRan=T
         wScrn=  0.000000 ICntrl=       0 IOpCl=  0 I1Cent=           0 NGrid=           0
         NMat0=    1 NMatS0=      1 NMatT0=    0 NMatD0=    1 NMtDS0=    0 NMtDT0=    0
 Symmetry not used in FoFCou.
 E= -547.438561083290    
 DIIS: error= 4.44D-02 at cycle   1 NSaved=   1.
 NSaved= 1 IEnMin= 1 EnMin= -547.438561083290     IErMin= 1 ErrMin= 4.44D-02
 ErrMax= 4.44D-02  0.00D+00 EMaxC= 1.00D-01 BMatC= 1.31D+00 BMatP= 1.31D+00
 IDIUse=3 WtCom= 5.56D-01 WtEn= 4.44D-01
 Coeff-Com:  0.100D+01
 Coeff-En:   0.100D+01
 Coeff:      0.100D+01
 Gap=     0.011 Goal=   None    Shift=    0.000
 GapD=    0.011 DampG=0.250 DampE=0.500 DampFc=0.2500 IDamp=-1.
 Damping current iteration by 2.50D-01
 RMSDP=1.00D-01 MaxDP=9.37D+00              OVMax= 9.30D-01

 Cycle   2  Pass 1  IDiag  1:
 RMSU=  4.30D-03    CP:  7.58D-01
 E= -547.564236210497     Delta-E=       -0.125675127208 Rises=F Damp=T
 DIIS: error= 3.28D-02 at cycle   2 NSaved=   2.
 NSaved= 2 IEnMin= 2 EnMin= -547.564236210497     IErMin= 2 ErrMin= 3.28D-02
 ErrMax= 3.28D-02  0.00D+00 EMaxC= 1.00D-01 BMatC= 5.42D-01 BMatP= 1.31D+00
 IDIUse=3 WtCom= 6.72D-01 WtEn= 3.28D-01
 Coeff-Com: -0.742D+00 0.174D+01
 Coeff-En:   0.224D+00 0.776D+00
 Coeff:     -0.425D+00 0.143D+01
 Gap=     0.005 Goal=   None    Shift=    0.000
 RMSDP=7.42D-02 MaxDP=6.89D+00 DE=-1.26D-01 OVMax= 5.30D-01

 Cycle   3  Pass 1  IDiag  1:
 RMSU=  9.80D-03    CP:  3.72D-02  1.88D+00
 E= -548.054583241568     Delta-E=       -0.490347031071 Rises=F Damp=F
 DIIS: error= 8.86D-03 at cycle   3 NSaved=   3.
 NSaved= 3 IEnMin= 3 EnMin= -548.054583241568     IErMin= 3 ErrMin= 8.86D-03
 ErrMax= 8.86D-03  0.00D+00 EMaxC= 1.00D-01 BMatC= 7.45D-02 BMatP= 5.42D-01
 IDIUse=3 WtCom= 9.11D-01 WtEn= 8.86D-02
 Coeff-Com: -0.334D+00 0.571D+00 0.762D+00
 Coeff-En:   0.000D+00 0.000D+00 0.100D+01
 Coeff:     -0.304D+00 0.521D+00 0.783D+00
 Gap=     0.236 Goal=   None    Shift=    0.000
 RMSDP=4.00D-03 MaxDP=4.93D-01 DE=-4.90D-01 OVMax= 6.88D-02

 Cycle   4  Pass 1  IDiag  1:
 RMSU=  2.97D-03    CP:  2.63D-02  1.62D+00  7.79D-01
 E= -548.107975920522     Delta-E=       -0.053392678954 Rises=F Damp=F
 DIIS: error= 5.11D-03 at cycle   4 NSaved=   4.
 NSaved= 4 IEnMin= 4 EnMin= -548.107975920522     IErMin= 4 ErrMin= 5.11D-03
 ErrMax= 5.11D-03  0.00D+00 EMaxC= 1.00D-01 BMatC= 2.82D-02 BMatP= 7.45D-02
 IDIUse=3 WtCom= 9.49D-01 WtEn= 5.11D-02
 Coeff-Com: -0.178D+00 0.270D+00 0.397D+00 0.511D+00
 Coeff-En:   0.000D+00 0.000D+00 0.201D+00 0.799D+00
 Coeff:     -0.169D+00 0.256D+00 0.387D+00 0.526D+00
 Gap=     0.274 Goal=   None    Shift=    0.000
 RMSDP=1.30D-03 MaxDP=1.40D-01 DE=-5.34D-02 OVMax= 2.64D-02

 Cycle   5  Pass 1  IDiag  1:
 RMSU=  8.40D-04    CP:  2.71D-02  1.63D+00  8.27D-01  7.07D-01
 E= -548.133686143944     Delta-E=       -0.025710223423 Rises=F Damp=F
 DIIS: error= 1.22D-03 at cycle   5 NSaved=   5.
 NSaved= 5 IEnMin= 5 EnMin= -548.133686143944     IErMin= 5 ErrMin= 1.22D-03
 ErrMax= 1.22D-03  0.00D+00 EMaxC= 1.00D-01 BMatC= 1.22D-03 BMatP= 2.82D-02
 IDIUse=3 WtCom= 9.88D-01 WtEn= 1.22D-02
 Coeff-Com: -0.978D-02 0.139D-01-0.107D-01 0.154D+00 0.853D+00
 Coeff-En:   0.000D+00 0.000D+00 0.000D+00 0.000D+00 0.100D+01
 Coeff:     -0.966D-02 0.137D-01-0.106D-01 0.152D+00 0.855D+00
 Gap=     0.292 Goal=   None    Shift=    0.000
 RMSDP=4.26D-04 MaxDP=3.98D-02 DE=-2.57D-02 OVMax= 6.69D-03

 Cycle   6  Pass 1  IDiag  1:
 RMSU=  2.70D-04    CP:  2.64D-02  1.62D+00  8.08D-01  7.92D-01  1.05D+00
 E= -548.135030248823     Delta-E=       -0.001344104878 Rises=F Damp=F
 DIIS: error= 3.88D-04 at cycle   6 NSaved=   6.
 NSaved= 6 IEnMin= 6 EnMin= -548.135030248823     IErMin= 6 ErrMin= 3.88D-04
 ErrMax= 3.88D-04  0.00D+00 EMaxC= 1.00D-01 BMatC= 7.23D-05 BMatP= 1.22D-03
 IDIUse=3 WtCom= 9.96D-01 WtEn= 3.88D-03
 Coeff-Com: -0.102D-02 0.108D-02-0.146D-01 0.377D-01 0.311D+00 0.666D+00
 Coeff-En:   0.000D+00 0.000D+00 0.000D+00 0.000D+00 0.000D+00 0.100D+01
 Coeff:     -0.102D-02 0.107D-02-0.145D-01 0.375D-01 0.309D+00 0.668D+00
 Gap=     0.283 Goal=   None    Shift=    0.000
 RMSDP=5.54D-05 MaxDP=2.37D-03 DE=-1.34D-03 OVMax= 1.63D-03

 Cycle   7  Pass 1  IDiag  1:
 RMSU=  5.13D-05    CP:  2.64D-02  1.62D+00  8.09D-01  7.91D-01  1.05D+00
                    CP:  9.45D-01
 E= -548.135078689863     Delta-E=       -0.000048441040 Rises=F Damp=F
 DIIS: error= 1.32D-04 at cycle   7 NSaved=   7.
 NSaved= 7 IEnMin= 7 EnMin= -548.135078689863     IErMin= 7 ErrMin= 1.32D-04
 ErrMax= 1.32D-04  0.00D+00 EMaxC= 1.00D-01 BMatC= 1.60D-05 BMatP= 7.23D-05
 IDIUse=3 WtCom= 9.99D-01 WtEn= 1.32D-03
 Coeff-Com: -0.238D-03 0.306D-03-0.279D-02 0.405D-02 0.534D-01 0.337D+00
 Coeff-Com:  0.608D+00
 Coeff-En:   0.000D+00 0.000D+00 0.000D+00 0.000D+00 0.000D+00 0.162D+00
 Coeff-En:   0.838D+00
 Coeff:     -0.238D-03 0.306D-03-0.279D-02 0.404D-02 0.534D-01 0.337D+00
 Coeff:      0.608D+00
 Gap=     0.283 Goal=   None    Shift=    0.000
 RMSDP=1.63D-05 MaxDP=9.60D-04 DE=-4.84D-05 OVMax= 5.21D-04

 Cycle   8  Pass 1  IDiag  1:
 RMSU=  1.07D-05    CP:  2.64D-02  1.62D+00  8.09D-01  7.89D-01  1.06D+00
                    CP:  9.53D-01  8.13D-01
 E= -548.135092624103     Delta-E=       -0.000013934240 Rises=F Damp=F
 DIIS: error= 1.54D-05 at cycle   8 NSaved=   8.
 NSaved= 8 IEnMin= 8 EnMin= -548.135092624103     IErMin= 8 ErrMin= 1.54D-05
 ErrMax= 1.54D-05  0.00D+00 EMaxC= 1.00D-01 BMatC= 2.00D-07 BMatP= 1.60D-05
 IDIUse=1 WtCom= 1.00D+00 WtEn= 0.00D+00
 Coeff-Com:  0.104D-03-0.156D-03-0.435D-03-0.281D-03 0.291D-02 0.620D-01
 Coeff-Com:  0.155D+00 0.781D+00
 Coeff:      0.104D-03-0.156D-03-0.435D-03-0.281D-03 0.291D-02 0.620D-01
 Coeff:      0.155D+00 0.781D+00
 Gap=     0.283 Goal=   None    Shift=    0.000
 RMSDP=4.45D-06 MaxDP=3.78D-04 DE=-1.39D-05 OVMax= 7.90D-05

 Cycle   9  Pass 1  IDiag  1:
 RMSU=  3.54D-06    CP:  2.64D-02  1.62D+00  8.09D-01  7.89D-01  1.06D+00
                    CP:  9.60D-01  8.19D-01  9.16D-01
 E= -548.135092780484     Delta-E=       -0.000000156381 Rises=F Damp=F
 DIIS: error= 7.64D-06 at cycle   9 NSaved=   9.
 NSaved= 9 IEnMin= 9 EnMin= -548.135092780484     IErMin= 9 ErrMin= 7.64D-06
 ErrMax= 7.64D-06  0.00D+00 EMaxC= 1.00D-01 BMatC= 3.79D-08 BMatP= 2.00D-07
 IDIUse=1 WtCom= 1.00D+00 WtEn= 0.00D+00
 Coeff-Com:  0.324D-04-0.469D-04-0.530D-04-0.223D-03-0.113D-02 0.482D-02
 Coeff-Com:  0.236D-01 0.325D+00 0.648D+00
 Coeff:      0.324D-04-0.469D-04-0.530D-04-0.223D-03-0.113D-02 0.482D-02
 Coeff:      0.236D-01 0.325D+00 0.648D+00
 Gap=     0.283 Goal=   None    Shift=    0.000
 RMSDP=1.39D-06 MaxDP=1.51D-04 DE=-1.56D-07 OVMax= 3.36D-05

 Cycle  10  Pass 1  IDiag  1:
 RMSU=  8.47D-07    CP:  2.64D-02  1.62D+00  8.09D-01  7.89D-01  1.06D+00
                    CP:  9.60D-01  8.16D-01  9.47D-01  7.63D-01
 E= -548.135092814655     Delta-E=       -0.000000034171 Rises=F Damp=F
 DIIS: error= 2.91D-06 at cycle  10 NSaved=  10.
 NSaved=10 IEnMin=10 EnMin= -548.135092814655     IErMin=10 ErrMin= 2.91D-06
 ErrMax= 2.91D-06  0.00D+00 EMaxC= 1.00D-01 BMatC= 4.14D-09 BMatP= 3.79D-08
 IDIUse=1 WtCom= 1.00D+00 WtEn= 0.00D+00
 Coeff-Com: -0.112D-04 0.146D-04 0.650D-05-0.439D-04-0.495D-03-0.240D-02
 Coeff-Com: -0.165D-02 0.804D-01 0.298D+00 0.626D+00
 Coeff:     -0.112D-04 0.146D-04 0.650D-05-0.439D-04-0.495D-03-0.240D-02
 Coeff:     -0.165D-02 0.804D-01 0.298D+00 0.626D+00
 Gap=     0.283 Goal=   None    Shift=    0.000
 RMSDP=4.01D-07 MaxDP=1.71D-05 DE=-3.42D-08 OVMax= 8.49D-06

 Cycle  11  Pass 1  IDiag  1:
 RMSU=  2.32D-07    CP:  2.64D-02  1.62D+00  8.09D-01  7.89D-01  1.06D+00
                    CP:  9.59D-01  8.18D-01  9.50D-01  7.84D-01  7.63D-01
 E= -548.135092818418     Delta-E=       -0.000000003762 Rises=F Damp=F
 DIIS: error= 3.75D-07 at cycle  11 NSaved=  11.
 NSaved=11 IEnMin=11 EnMin= -548.135092818418     IErMin=11 ErrMin= 3.75D-07
 ErrMax= 3.75D-07  0.00D+00 EMaxC= 1.00D-01 BMatC= 8.68D-11 BMatP= 4.14D-09
 IDIUse=1 WtCom= 1.00D+00 WtEn= 0.00D+00
 Coeff-Com: -0.106D-06-0.324D-06-0.131D-05-0.151D-04-0.135D-03-0.748D-03
 Coeff-Com: -0.112D-02 0.104D-01 0.594D-01 0.186D+00 0.746D+00
 Coeff:     -0.106D-06-0.324D-06-0.131D-05-0.151D-04-0.135D-03-0.748D-03
 Coeff:     -0.112D-02 0.104D-01 0.594D-01 0.186D+00 0.746D+00
 Gap=     0.283 Goal=   None    Shift=    0.000
 RMSDP=9.99D-08 MaxDP=7.94D-06 DE=-3.76D-09 OVMax= 1.63D-06

 Cycle  12  Pass 1  IDiag  1:
 RMSU=  7.74D-08    CP:  2.64D-02  1.62D+00  8.09D-01  7.89D-01  1.06D+00
                    CP:  9.59D-01  8.18D-01  9.51D-01  7.94D-01  7.70D-01
                    CP:  8.61D-01
 E= -548.135092818519     Delta-E=       -0.000000000102 Rises=F Damp=F
 DIIS: error= 1.15D-07 at cycle  12 NSaved=  12.
 NSaved=12 IEnMin=12 EnMin= -548.135092818519     IErMin=12 ErrMin= 1.15D-07
 ErrMax= 1.15D-07  0.00D+00 EMaxC= 1.00D-01 BMatC= 1.33D-11 BMatP= 8.68D-11
 IDIUse=1 WtCom= 1.00D+00 WtEn= 0.00D+00
 Coeff-Com:  0.860D-06-0.133D-05-0.190D-06-0.507D-05-0.408D-04-0.180D-03
 Coeff-Com: -0.370D-03 0.172D-03 0.915D-02 0.465D-01 0.338D+00 0.607D+00
 Coeff:      0.860D-06-0.133D-05-0.190D-06-0.507D-05-0.408D-04-0.180D-03
 Coeff:     -0.370D-03 0.172D-03 0.915D-02 0.465D-01 0.338D+00 0.607D+00
 Gap=     0.283 Goal=   None    Shift=    0.000
 RMSDP=2.90D-08 MaxDP=2.75D-06 DE=-1.02D-10 OVMax= 6.00D-07

 Cycle  13  Pass 1  IDiag  1:
 RMSU=  1.34D-08    CP:  2.64D-02  1.62D+00  8.09D-01  7.89D-01  1.06D+00
                    CP:  9.59D-01  8.18D-01  9.50D-01  7.93D-01  7.76D-01
                    CP:  9.00D-01  7.19D-01
 E= -548.135092818538     Delta-E=       -0.000000000019 Rises=F Damp=F
 DIIS: error= 3.17D-08 at cycle  13 NSaved=  13.
 NSaved=13 IEnMin=13 EnMin= -548.135092818538     IErMin=13 ErrMin= 3.17D-08
 ErrMax= 3.17D-08  0.00D+00 EMaxC= 1.00D-01 BMatC= 8.54D-13 BMatP= 1.33D-11
 IDIUse=1 WtCom= 1.00D+00 WtEn= 0.00D+00
 Coeff-Com:  0.171D-06-0.229D-06 0.649D-06-0.221D-06-0.532D-05-0.119D-04
 Coeff-Com: -0.697D-04-0.880D-03-0.154D-02 0.316D-02 0.793D-01 0.253D+00
 Coeff-Com:  0.667D+00
 Coeff:      0.171D-06-0.229D-06 0.649D-06-0.221D-06-0.532D-05-0.119D-04
 Coeff:     -0.697D-04-0.880D-03-0.154D-02 0.316D-02 0.793D-01 0.253D+00
 Coeff:      0.667D+00
 Gap=     0.283 Goal=   None    Shift=    0.000
 RMSDP=6.05D-09 MaxDP=4.28D-07 DE=-1.89D-11 OVMax= 1.63D-07

 SCF Done:  E(RB971) =  -548.135092819     A.U. after   13 cycles
            NFock= 13  Conv=0.61D-08     -V/T= 2.0044
 KE= 5.457417779552D+02 PE=-2.864742893240D+03 EE= 9.749257597078D+02
 Leave Link  502 at Sun Feb 22 13:48:33 2015, MaxMem=   524288000 cpu:      2025.1
 (Enter /opt/g09/l801.exe)
 DoSCS=F DFT=T ScalE2(SS,OS)=  1.000000  1.000000
 Range of M.O.s used for correlation:     1   442
 NBasis=   442 NAE=    53 NBE=    53 NFC=     0 NFV=     0
[...]
 .00003344,0.00002257,0.00007691,0.00000608,0.00000290,0.00000165,0.000
 14603,0.00017985,-0.00012397,-0.00000352,-0.00000537,0.00000131,-0.001
 67096,0.00104814,0.00113470,0.00000327,0.00000157,0.00000310,0.0024348
 5,-0.02126661,0.01859954,-0.00000131,-0.00000272,-0.00000140,0.0082876
 6,-0.17908757,0.11896344,-0.00000238,0.00000318,0.00000423,-0.00299598
 ,0.01353294,-0.01383485,0.00001031,0.00000108,-0.00000121,0.00000191,0
 .00000651,-0.00000723,-0.00000007,0.00000139,0.00000465,-0.00000977,0.
 00000627,-0.00000596,0.00004306,0.00003496,-0.00002914,-0.00000357,-0.
 00000966,0.00000038,-0.00000200,-0.00000168,0.00000334,-0.00000324,0.0
 0000427,-0.00000263,-0.00021198,0.00004779,-0.00014807,0.00008017,-0.0
 0002481,0.00000980,0.00000107,0.00000442,-0.00000176,0.00000101,0.0000
 0027,-0.00000052,-0.00031966,0.00035197,-0.00015783,0.00088877,0.00080
 087,-0.00096444,-0.00000225,-0.00000163,-0.00000104,0.00000367,0.00000
 040,-0.00000188,0.00245757,-0.00377724,-0.00298523,-0.00045337,0.00018
 553,-0.00034187,0.00000261,0.00000026,-0.00000102,-0.00000142,0.000000
 66,-0.00000074,0.00050281,-0.00536016,0.00572199,-0.00951116,0.1918852
 8,0.00000694,0.00002057,-0.00001049,0.00000411,-0.00002988,0.00000495,
 0.00001068,0.00012544,-0.00000084,-0.00001037,-0.00001119,0.00000283,-
 0.00000084,-0.00016740,0.00007432,0.00000319,0.00001019,-0.00000237,-0
 .00037787,-0.00067210,0.00082636,-0.00000357,-0.00000397,-0.00000272,0
 .00225717,-0.00881180,0.00913339,0.00000056,-0.00000011,-0.00000050,-0
 .00455897,0.11715345,-0.15375605,0.00000212,-0.00000082,-0.00000296,-0
 .01328338,0.00907507,-0.03237150,-0.00000443,-0.00000064,0.00000103,-0
 .00000372,-0.00000767,0.00000924,0.00000662,0.00002326,-0.00000117,0.0
 0000850,-0.00001257,0.00000272,-0.00001091,-0.00003428,0.00002522,-0.0
 0003622,-0.00000394,0.00003877,0.00000240,0.00000153,-0.00000126,0.000
 00196,-0.00000368,-0.00000040,0.00006831,0.00001140,-0.00004325,0.0002
 2115,0.00013794,-0.00014518,-0.00000117,-0.00000359,0.00000152,-0.0000
 0026,-0.00000038,0.00000109,-0.00014020,-0.00010082,0.00016348,-0.0005
 7509,0.00026837,0.00015025,0.00000237,0.00000162,0.00000186,-0.0000040
 2,0.00000114,0.00000229,0.00193231,-0.00259947,-0.00026079,-0.00048992
 ,0.00109735,0.00041669,-0.00000183,0.00000105,0.00000101,0.00000217,-0
 .00000028,0.00000158,0.00130500,0.00972415,-0.00513201,0.01439216,-0.1
 2618993,0.18068962,0.00023534,0.00008164,-0.00009129,0.00001558,0.0000
 0670,-0.00003509,0.00000094,-0.00004784,-0.00002493,-0.00033125,0.0000
 8481,0.00014291,0.00000927,0.00002733,-0.00000703,-0.00023850,-0.00035
 328,0.00047991,-0.00000084,-0.00000609,0.00000766,-0.00405556,-0.00235
 110,-0.00116162,0.00000315,0.00000619,-0.00000805,0.00726255,-0.023792
 66,0.01002948,0.00000258,-0.00000163,0.00000069,-0.06555905,0.06377047
 ,-0.02551976,-0.00000825,-0.00000230,0.00000697,-0.00001167,0.00005755
 ,0.00006534,-0.00003670,0.00007396,0.00002502,-0.00000508,0.00000761,0
 .00001027,0.00000515,-0.00001186,-0.00000441,-0.00000086,0.00000415,0.
 00000553,0.00002136,0.00001975,0.00001038,0.00018798,-0.00014258,0.000
 20640,-0.00005548,0.00017544,-0.00029534,-0.00000171,-0.00000761,0.000
 00547,-0.00000690,-0.00000238,0.00000592,0.00016948,-0.00010091,-0.000
 18526,0.00004159,0.00001547,-0.00001639,0.00000328,0.00000558,-0.00000
 201,0.00000138,-0.00000318,0.00000035,-0.00001691,0.00013596,0.0001330
 5,0.00011293,-0.00127153,0.00049545,-0.00000046,-0.00000097,0.00000528
 ,-0.00000589,-0.00000006,-0.00000158,0.00103669,0.00064157,0.00046283,
 0.00103807,0.00069090,-0.00019273,-0.00000466,0.00000108,0.00000215,0.
 00000137,-0.00000137,-0.00000001,0.07014263,-0.00002499,0.00006625,0.0
 0009037,-0.00002676,-0.00007515,0.00002290,0.00001165,0.00002713,-0.00
 001852,0.00003778,-0.00007758,-0.00025446,-0.00000662,-0.00002481,0.00
 002812,-0.00005419,0.00004638,0.00035371,0.00000548,0.00000114,-0.0000
 2068,-0.00468883,-0.00055434,-0.00060756,-0.00000310,-0.00000508,0.000
 01429,0.00710987,-0.01802434,0.00751149,-0.00000730,0.00000007,-0.0000
 0079,0.06285923,-0.25125179,0.08305969,0.00001586,0.00000573,-0.000010
 93,-0.00000320,-0.00003094,-0.00002543,0.00000571,-0.00003755,-0.00001
 460,0.00004017,-0.00000861,-0.00002740,0.00000422,0.00002792,-0.000006
 62,-0.00000567,0.00000441,-0.00000439,-0.00001891,-0.00001949,-0.00000
 476,-0.00004797,0.00008630,-0.00005086,0.00009540,-0.00012704,0.000116
 27,0.00000378,0.00001087,-0.00000969,0.00000383,0.00000356,-0.00000332
 ,0.00009597,-0.00014296,-0.00009641,-0.00003522,-0.00003860,-0.0000778
 0,-0.00000211,-0.00000190,0.00000461,-0.00000238,0.00000404,-0.0000003
 4,-0.00006184,0.00038415,-0.00028375,0.00014674,-0.00141075,0.00023891
 ,0.00000003,0.00000131,-0.00000698,0.00001100,0.00000064,0.00000202,-0
 .00018005,0.00089405,0.00038650,0.00029458,0.00032623,-0.00068854,0.00
 000794,-0.00000076,-0.00000334,-0.00000223,0.00000158,-0.00000011,-0.0
 6675055,0.27471986,-0.00006335,-0.00006139,0.00006271,-0.00000834,-0.0
 0000449,0.00001240,-0.00000007,0.00000435,0.00000204,0.00006105,-0.000
 08760,-0.00026070,0.00000099,-0.00000336,0.00000104,0.00033378,0.00019
 205,-0.00000927,0.00000049,0.00000064,0.00000012,-0.00091982,0.0001340
 0,0.00034131,0.00000212,0.00000056,-0.00000019,0.00092814,-0.00454901,
 0.00043999,0.00000254,0.00000002,0.00000054,-0.02492548,0.08319708,-0.
 08032782,-0.00000402,-0.00000065,0.00000084,0.00000108,-0.00001772,-0.
 00001893,0.00000945,-0.00003690,-0.00001352,-0.00000003,0.00000198,0.0
 0000032,0.00000073,0.00000498,-0.00000036,0.00000033,-0.00000448,-0.00
 000260,-0.00000396,0.00000413,-0.00000336,-0.00002725,0.00006460,-0.00
 007269,0.00005992,-0.00011074,0.00014930,0.00000056,0.00000067,0.00000
 018,0.00000065,0.00000044,-0.00000010,-0.00001421,0.00000014,0.0000162
 7,-0.00005148,0.00004792,0.00005825,0.00000035,0.00000171,-0.00000035,
 0.00000006,-0.00000127,-0.00000082,0.00026399,-0.00027950,0.00041369,0
 .00010315,-0.00010580,0.00033757,0.00000022,0.00000015,0.00000111,-0.0
 0000193,0.00000005,-0.00000118,0.00022212,0.00036431,-0.00011606,0.000
 45327,-0.00010082,0.00035174,-0.00000222,-0.00000003,0.00000104,0.0000
 0040,0.00000012,-0.00000042,0.02833903,-0.09176473,0.08316784,0.000239
 30,0.00032895,-0.00040409,0.00006055,-0.00003121,-0.00001231,0.0000013
 3,0.00000894,0.00004361,-0.00037546,0.00028930,0.00141765,0.00000338,-
 0.00000432,-0.00001741,-0.00014113,-0.00048995,0.00021128,-0.00000173,
 0.00000229,0.00001973,0.00072625,0.00054128,-0.00036508,0.00000196,-0.
 00000036,-0.00000837,-0.02038400,0.00838899,0.01230654,0.00001003,-0.0
 0000336,0.00000396,-0.21815818,0.06560515,0.10475211,-0.00001442,0.000
 00112,0.00000386,-0.00000542,0.00003546,0.00007222,-0.00007813,0.00021
 529,0.00007910,-0.00003000,0.00001767,0.00000248,0.00001164,-0.0000059
 1,-0.00003010,-0.00000193,0.00000164,-0.00001049,0.00001482,-0.0000114
 2,-0.00000571,0.00011220,0.00000352,0.00008082,0.00011450,0.00073943,-
 0.00056951,0.00000184,0.00000134,-0.00000146,0.00000073,0.00000048,-0.
 00000146,0.00015537,-0.00001116,-0.00016882,0.00000103,0.00003448,0.00
 002100,0.00000035,-0.00000266,-0.00000099,-0.00000165,0.00000294,-0.00
 000405,0.00026768,-0.00031395,0.00016445,0.00022211,0.00005431,-0.0000
 7522,0.00000165,0.00000145,0.00000113,-0.00001007,-0.00000156,-0.00000
 151,-0.00298352,-0.00413109,-0.00109330,0.00069973,0.00051068,-0.00040
 258,-0.00000688,-0.00000005,0.00000285,0.00000104,0.00000239,-0.000002
 40,-0.00683750,0.00237069,0.00383458,0.23942114,0.00015146,-0.00004892
 ,-0.00022606,0.00005936,0.00005891,-0.00004554,-0.00001802,-0.00002307
 ,0.00002602,0.00014815,-0.00141864,-0.00027984,0.00000783,0.00003511,-
 0.00003665,-0.00032094,-0.00000240,-0.00000084,-0.00001036,0.00001302,
 0.00003484,0.00048027,0.00121302,0.00021828,-0.00000085,-0.00000061,-0
 .00001684,-0.01862125,0.00741492,0.01187495,0.00000576,0.00000767,0.00
 000857,0.06723395,-0.07148642,-0.03991445,-0.00001333,-0.00001139,-0.0
 0000061,-0.00001628,0.00005016,0.00007003,-0.00005275,0.00008802,0.000
 06077,-0.00003701,0.00000636,0.00002321,0.00000778,-0.00002753,0.00000
 398,0.00000532,-0.00001002,0.00000130,0.00003212,0.00003051,-0.0000018
 8,0.00016222,-0.00023659,0.00002036,0.00013638,-0.00101247,-0.00107994
 ,-0.00000665,-0.00001071,0.00001995,-0.00000574,-0.00001035,0.00000386
 ,0.00006508,0.00006055,-0.00003599,0.00009290,0.00001555,0.00001313,0.
 00000075,-0.00000482,-0.00001490,0.00000452,-0.00000797,0.00000016,0.0
 0022428,-0.00003498,0.00014604,0.00023905,0.00020455,-0.00002160,-0.00
 000064,-0.00000070,0.00000889,-0.00001146,0.00000029,-0.00000135,-0.00
 441071,-0.00251075,-0.00043404,0.00109862,0.00076869,-0.00007776,-0.00
 000424,-0.00000016,0.00000051,0.00000140,-0.00000311,-0.00000020,0.022
 74306,-0.00870156,-0.01542540,-0.07131745,0.07754195,-0.00023555,-0.00
 002441,-0.00006902,0.00002075,-0.00004703,0.00005632,-0.00000089,0.000
 08789,0.00005381,0.00066825,-0.00112356,0.00001820,-0.00000897,-0.0000
 3435,-0.00000867,-0.00003458,0.00022014,-0.00002432,-0.00000445,0.0000
 2891,0.00001367,0.00045823,-0.00000562,0.00016422,-0.00000620,-0.00001
 286,0.00000182,-0.00376389,0.00163442,0.00172951,-0.00000054,0.0000132
 4,0.00000965,0.10512417,-0.03939146,-0.11089144,0.00000474,-0.00000842
 ,-0.00001914,0.00000309,-0.00008542,-0.00006464,0.00000209,-0.00002049
 ,0.00002152,-0.00000335,0.00000366,-0.00002089,0.00000500,0.00002170,-
 0.00002203,-0.00000376,-0.00000661,-0.00001181,-0.00001640,-0.00002675
 ,-0.00001082,-0.00029860,0.00037079,-0.00033434,0.00026669,-0.00100734
 ,-0.00033294,0.00000340,0.00001027,0.00000010,0.00000839,-0.00000217,-
 0.00001067,-0.00000888,-0.00002797,-0.00003051,-0.00009502,-0.00003995
 ,-0.00001541,-0.00000419,-0.00001632,-0.00000948,-0.00000083,-0.000001
 43,-0.00000164,0.00005058,0.00005731,-0.00020855,-0.00014394,0.0000818
 7,-0.00009706,0.00000139,0.00000177,-0.00000132,0.00000097,0.00000134,
 0.00000087,-0.00110636,-0.00055055,0.00113629,-0.00003867,0.00064040,0
 .00052792,0.00000585,-0.00000226,-0.00000448,-0.00000189,-0.00000091,-
 0.00000020,-0.01104187,0.00356798,0.00614412,-0.11582210,0.04595690,0.
 11737511,-0.00002955,0.00010320,-0.00013564,0.00001742,-0.00002654,0.0
 0001830,0.00000194,0.00001588,0.00000835,0.00008909,-0.00010868,0.0004
 4343,0.00000088,-0.00000965,-0.00000096,-0.00001077,-0.00003495,0.0000
 2577,-0.00000061,0.00001164,0.00000909,0.00045441,0.00162705,-0.000283
 39,-0.00000154,-0.00000472,-0.00000093,-0.00766419,-0.00385610,-0.0255
 3391,0.00000124,0.00000373,0.00000368,-0.05978548,-0.00570694,-0.05723
 824,-0.00000084,-0.00000214,-0.00000531,0.00000422,-0.00000642,0.00000
 757,-0.00001943,0.00005566,0.00003049,-0.00000629,0.00000808,-0.000006
 51,0.00000037,0.00000391,-0.00002067,-0.00000353,0.00000671,-0.0000021
 8,0.00000558,-0.00001092,0.00001043,-0.00002660,0.00000752,-0.00005391
 ,-0.00001583,0.00006476,-0.00025103,0.00000254,0.00000367,-0.00000384,
 -0.00000008,0.00000023,-0.00000343,0.00010298,-0.00002742,-0.00001145,
 0.00000973,0.00013089,0.00013434,-0.00000006,-0.00000732,-0.00000179,-
 0.00000151,0.00000162,-0.00000148,0.00056447,-0.00027446,0.00056389,-0
 .00000765,0.00019838,0.00006636,0.00000125,0.00000100,-0.00000080,-0.0
 0000230,0.00000021,0.00000014,0.00070861,0.00086376,-0.00003213,-0.003
 67332,-0.00387488,-0.00009815,0.00000099,-0.00000063,-0.00000102,-0.00
 000059,0.00000033,-0.00000035,-0.00311508,-0.00119498,-0.00859784,0.00
 695976,0.00194482,0.02601712,0.06544009,0.00003330,-0.00006784,0.00010
 467,-0.00001012,0.00000705,-0.00000078,-0.00000121,-0.00001182,-0.0000
 1218,-0.00009911,0.00012464,-0.00029124,0.00000319,0.00000468,0.000004
 60,0.00018646,-0.00020298,-0.00003091,0.00000047,-0.00000238,-0.000003
 02,-0.00037857,0.00153782,-0.00197763,0.00000253,0.00000210,0.00000052
 ,-0.00569892,-0.00398286,-0.02118090,0.00000037,-0.00000131,-0.0000018
 9,-0.00547649,-0.04899705,-0.02671533,-0.00000184,0.00000052,0.0000036
 5,-0.00000520,0.00002045,0.00001445,0.00001369,-0.00003845,-0.00002129
 ,0.00000135,0.00000006,0.00000408,-0.00000119,-0.00000179,0.00000635,0
 .00000206,-0.00000535,0.00000084,0.00000132,0.00001179,-0.00000267,0.0
 0010413,-0.00003711,0.00004204,-0.00007311,-0.00012813,0.00016112,-0.0
 0000081,-0.00000192,0.00000171,-0.00000184,0.00000031,0.00000198,0.000
 04001,-0.00005474,0.00003979,0.00006414,0.00008173,0.00021604,0.000001
 07,0.00000423,0.00000017,0.00000105,-0.00000243,0.00000003,0.00054871,
 -0.00033379,0.00074848,0.00015422,0.00025259,0.00012525,-0.00000047,-0
 .00000044,0.00000146,-0.00000083,0.00000024,-0.00000090,0.00073784,0.0
 0082151,0.00059308,-0.00370338,-0.00252217,-0.00025707,-0.00000167,0.0
 0000031,0.00000113,0.00000064,-0.00000034,0.00000015,0.00629723,0.0039
 2485,0.02853367,-0.00283314,-0.00194935,-0.01026300,0.01009379,0.05154
 713,0.00002739,-0.00008033,0.00017214,-0.00003249,0.00002036,-0.000021
 70,0.00000177,-0.00002141,-0.00003097,-0.00014460,0.00016854,-0.000529
 48,-0.00000242,0.00001169,0.00001489,0.00021543,0.00011744,0.00023691,
 0.00000291,-0.00001785,-0.00002669,0.00024590,0.00042416,0.00047908,0.
 00000060,0.00000687,0.00000595,-0.00064673,0.00003842,-0.00292032,-0.0
 0000988,-0.00000807,-0.00001503,-0.05799672,-0.02731310,-0.28532605,0.
 00001313,0.00000791,0.00001366,0.00000377,0.00002436,0.00000515,0.0000
 2590,-0.00007689,-0.00003206,0.00002161,-0.00001144,0.00000085,-0.0000
 0354,-0.00000772,0.00002727,0.00000547,-0.00001142,0.00000661,-0.00001
 134,0.00001501,-0.00001021,0.00008357,-0.00003452,0.00006714,-0.000044
 29,-0.00013898,0.00025968,-0.00000304,-0.00000598,0.00000383,-0.000000
 32,0.00000241,0.00000541,0.00000247,-0.00008812,0.00000849,-0.00006989
 ,0.00016975,0.00004207,-0.00000142,0.00001360,0.00000483,0.00000285,-0
 .00000456,0.00000397,0.00019708,-0.00078956,0.00043294,0.00016446,-0.0
 0010073,0.00025868,-0.00000291,-0.00000272,-0.00000038,0.00001093,0.00
 000081,0.00000155,-0.00058589,-0.00007565,0.00075604,-0.00054997,-0.00
 009032,0.00164820,0.00000316,0.00000139,0.00000033,0.00000039,-0.00000
 177,0.00000281,-0.00184946,-0.00142111,-0.01067303,-0.00401699,-0.0008
 7477,-0.01506848,0.06494518,0.03015488,0.31019677,-0.00001409,-0.00000
 908,-0.00002982,0.00000752,0.00007268,0.00010088,0.00006548,0.00028463
 ,0.00010586,0.00000341,0.00000710,0.00000754,-0.00057449,-0.00034997,0
 .00005220,-0.00000294,-0.00000395,-0.00000614,-0.00001630,-0.00017904,
 -0.00050953,0.00000061,0.00000329,0.00000267,-0.00200871,-0.00094683,-
 0.00269193,0.00000030,0.00000301,0.00000033,0.00811017,-0.02084027,-0.
 01356311,-0.00000052,-0.00000082,0.00000077,-0.15887658,0.22313591,0.0
 9489642,-0.00002030,-0.00000073,0.00000053,-0.00000246,-0.00000480,0.0
 0001361,-0.00000081,-0.00003336,-0.00004307,0.00001027,-0.00001505,-0.
 00000308,-0.00002938,-0.00002976,0.00005993,-0.00010336,-0.00002466,0.
 00006034,-0.00000028,-0.00000386,-0.00001351,0.00000241,-0.00000517,0.
 00000156,0.00006664,-0.00008817,-0.00005312,0.00018720,0.00069908,0.00
 018110,-0.00000042,-0.00000287,0.00000335,-0.00000324,0.00000027,-0.00
 000032,0.00006523,0.00002564,0.00004944,0.00002127,-0.00002541,0.00010
 263,-0.00000074,-0.00000068,-0.00000163,0.00000181,-0.00000162,-0.0000
 0126,-0.00006697,-0.00012337,0.00013339,0.00051728,-0.00081847,-0.0005
 8597,0.00000140,-0.00000282,-0.00000117,-0.00000184,0.00000023,-0.0000
 0072,0.00022611,-0.00110020,-0.00042810,0.00008894,0.00026269,-0.00072
 220,0.00000100,-0.00000303,0.00000100,0.00000163,0.00000261,0.00000023
 ,-0.00000029,0.00000032,-0.00000205,0.15234505,-0.00000352,0.00000273,
 -0.00001638,-0.00001690,0.00002770,0.00003879,-0.00006248,0.00005618,-
 0.00003931,-0.00000133,0.00000236,0.00000151,-0.00022645,0.00032444,0.
 00030423,-0.00000101,0.00000158,-0.00000351,-0.00008630,0.00012743,-0.
 00003347,-0.00000030,0.00000169,0.00000149,-0.00355844,-0.00063844,-0.
 00270124,0.00000085,0.00000282,-0.00000065,0.00997872,-0.01039871,-0.0
 0070212,0.00000018,-0.00000152,-0.00000039,0.19185550,-0.32332447,-0.1
 6600324,-0.00000880,0.00000066,-0.00000008,-0.00000333,-0.00000729,0.0
 0001286,-0.00000227,-0.00000545,-0.00002324,0.00000821,-0.00001807,0.0
 0000119,-0.00000032,-0.00001237,0.00002829,-0.00000783,-0.00001222,0.0
 0000135,0.00000028,-0.00000042,-0.00000481,0.00000233,-0.00000627,0.00
 000181,-0.00000696,-0.00001128,-0.00001099,0.00037331,-0.00003829,-0.0
 0014063,-0.00000032,-0.00000407,0.00000330,-0.00000089,0.00000061,-0.0
 0000053,-0.00006843,0.00001288,0.00002522,0.00004102,-0.00000969,-0.00
 001052,0.00000044,0.00000009,-0.00000060,-0.00000072,-0.00000146,-0.00
 000006,-0.00017417,0.00062098,0.00012268,0.00079198,-0.00048952,-0.000
 70676,-0.00000009,-0.00000191,-0.00000017,-0.00000049,0.00000006,0.000
 00017,0.00065989,0.00028257,0.00116560,0.00040091,0.00143088,0.0010021
 6,0.00000146,-0.00000322,0.00000031,-0.00000018,0.00000326,0.00000029,
 -0.00000009,0.00000022,-0.00000062,-0.19988348,0.33208553,0.00000674,-
 0.00000418,-0.00001320,0.00002374,0.00001177,0.00004596,0.00005898,-0.
 00001066,0.00007449,-0.00000205,-0.00001178,0.00001254,0.00004721,0.00
 003325,-0.00000147,0.00001116,0.00000664,0.00000086,-0.00015282,0.0002
 3338,0.00023828,-0.00000089,-0.00000644,-0.00000157,-0.00513250,-0.000
 74768,-0.00490911,0.00000232,-0.00000133,0.00000443,0.01802427,-0.0273
 2246,-0.01408167,0.00000533,-0.00000186,-0.00000390,0.06246776,-0.1390
 3333,-0.09217417,-0.00003070,-0.00000211,-0.00000524,0.00000725,0.0000
 0889,-0.00000125,0.00001056,-0.00001334,0.00001110,-0.00001105,0.00002
 198,-0.00001087,-0.00000218,-0.00000016,-0.00002209,-0.00004686,0.0000
 2034,0.00001545,0.00000099,-0.00000676,-0.00001440,0.00000010,0.000005
 65,-0.00000319,0.00000514,-0.00000877,0.00000054,0.00039668,-0.0001381
 3,-0.00005681,0.00000124,0.00000235,-0.00000006,-0.00000930,-0.0000012
 3,-0.00000324,-0.00001746,0.00010925,0.00007057,0.00010465,0.00003711,
 -0.00012646,0.00000021,0.00000033,-0.00000354,-0.00000682,0.00000246,0
 .00000445,-0.00022710,0.00023705,0.00027969,0.00087582,-0.00163016,-0.
 00034550,-0.00000503,0.00000362,0.00000318,0.00000162,-0.00000161,-0.0
 0000356,-0.00032146,0.00022033,0.00163583,0.00103736,0.00029766,0.0001
 8109,-0.00000323,0.00000627,-0.00000101,-0.00000341,-0.00000309,0.0000
 0474,0.00000082,-0.00000134,-0.00000083,-0.07711706,0.16768811,0.10919
 992\\0.00000007,-0.00000014,0.00000012,0.,-0.00000008,0.00000006,0.000
 00002,0.00000007,0.00000003,0.00000004,-0.00000011,0.00000002,0.000000
 02,0.00000009,-0.00000004,0.00000005,-0.00000016,0.00000010,0.,0.00000
 025,-0.00000006,0.,-0.00000011,0.00000004,-0.00000002,0.00000028,-0.00
 000012,-0.00000009,-0.00000018,-0.00000006,0.00000002,0.00000023,-0.00
 000014,-0.00000016,-0.00000010,-0.00000016,0.00000007,0.00000011,0.000
 00002,0.00000008,-0.00000025,0.00000018,0.00000014,-0.00000009,0.00000
 020,0.00000007,-0.00000015,0.00000013,-0.00000004,-0.00000019,0.000000
 03,0.00000012,0.00000008,0.00000011,0.,0.00000006,-0.00000004,0.000000
 02,0.,0.00000003,-0.00000006,-0.00000018,0.,-0.00000007,0.,-0.00000007
 ,0.00000005,0.00000003,0.00000004,0.00000013,-0.00000014,0.00000020,0.
 00000004,-0.00000027,0.00000015,-0.00000002,0.00000025,-0.00000012,0.0
 0000009,0.00000027,0.,0.00000004,-0.00000002,0.00000005,0.00000003,-0.
 00000017,0.00000011,-0.00000009,0.00000019,-0.00000016,-0.00000003,0.0
 0000037,-0.00000016,-0.00000012,-0.00000021,-0.00000005,-0.00000012,-0
 .00000029,-0.00000002,0.00000003,0.00000031,-0.00000007,0.00000013,0.0
 0000032,0.00000004,-0.00000024,-0.00000016,-0.00000021,-0.00000016,-0.
 00000008,-0.00000014,-0.00000015,0.,-0.00000016,0.00000009,0.00000017,
 0.00000008\\\@


 WHAT, THEN, IS TIME?  IF NO ONE ASKS ME, I KNOW WHAT IT IS.
 IF I WISH TO EXPLAIN WHAT IT IS TO HIM WHO ASKS ME, I DO NOT KNOW.
                                   -- ST. AUGUSTINE (FIFTH CENTURY)
 Job cpu time:       0 days  7 hours 49 minutes 54.6 seconds.
 File lengths (MBytes):  RWF=    657 Int=      0 D2E=      0 Chk=     15 Scr=      1
 Normal termination of Gaussian 09 at Sun Feb 22 16:45:04 2015.
