 Entering Gaussian System, Link 0=g09
 Input=freq-b971_112-30-1.gau
 Output=freq-b971_112-30-1.log
 Initial command:
 /opt/g09/l1.exe "/scratch/pb556/g09_run/add_hco//Gau-2728.inp" -scrdir="/scratch/pb556/g09_run/add_hco//"
 Entering Link 1 = /opt/g09/l1.exe PID=      2737.
  
 Copyright (c) 1988,1990,1992,1993,1995,1998,2003,2009,2013,
            Gaussian, Inc.  All Rights Reserved.
  
 This is part of the Gaussian(R) 09 program.  It is based on
 the Gaussian(R) 03 system (copyright 2003, Gaussian, Inc.),
 the Gaussian(R) 98 system (copyright 1998, Gaussian, Inc.),
 the Gaussian(R) 94 system (copyright 1995, Gaussian, Inc.),
 the Gaussian 92(TM) system (copyright 1992, Gaussian, Inc.),
 the Gaussian 90(TM) system (copyright 1990, Gaussian, Inc.),
 the Gaussian 88(TM) system (copyright 1988, Gaussian, Inc.),
 the Gaussian 86(TM) system (copyright 1986, Carnegie Mellon
 University), and the Gaussian 82(TM) system (copyright 1983,
 Carnegie Mellon University). Gaussian is a federally registered
 trademark of Gaussian, Inc.
  
 This software contains proprietary and confidential information,
 including trade secrets, belonging to Gaussian, Inc.
  
 This software is provided under written license and may be
 used, copied, transmitted, or stored only in accord with that
 written license.
  
 The following legend is applicable only to US Government
 contracts under FAR:
  
                    RESTRICTED RIGHTS LEGEND
  
 Use, reproduction and disclosure by the US Government is
 subject to restrictions as set forth in subparagraphs (a)
 and (c) of the Commercial Computer Software - Restricted
 Rights clause in FAR 52.227-19.
  
 Gaussian, Inc.
 340 Quinnipiac St., Bldg. 40, Wallingford CT 06492
  
  
 ---------------------------------------------------------------
 Warning -- This program may not be used in any manner that
 competes with the business of Gaussian, Inc. or will provide
 assistance to any competitor of Gaussian, Inc.  The licensee
 of this program is prohibited from giving any competitor of
 Gaussian, Inc. access to this program.  By using this program,
 the user acknowledges that Gaussian, Inc. is engaged in the
 business of creating and licensing software in the field of
 computational chemistry and represents and warrants to the
 licensee that it is not a competitor of Gaussian, Inc. and that
 it will not use this program in any manner prohibited above.
 ---------------------------------------------------------------
  

 Cite this work as:
 Gaussian 09, Revision D.01,
 M. J. Frisch, G. W. Trucks, H. B. Schlegel, G. E. Scuseria, 
 M. A. Robb, J. R. Cheeseman, G. Scalmani, V. Barone, B. Mennucci, 
 G. A. Petersson, H. Nakatsuji, M. Caricato, X. Li, H. P. Hratchian, 
 A. F. Izmaylov, J. Bloino, G. Zheng, J. L. Sonnenberg, M. Hada, 
 M. Ehara, K. Toyota, R. Fukuda, J. Hasegawa, M. Ishida, T. Nakajima, 
 Y. Honda, O. Kitao, H. Nakai, T. Vreven, J. A. Montgomery, Jr., 
 J. E. Peralta, F. Ogliaro, M. Bearpark, J. J. Heyd, E. Brothers, 
 K. N. Kudin, V. N. Staroverov, T. Keith, R. Kobayashi, J. Normand, 
 K. Raghavachari, A. Rendell, J. C. Burant, S. S. Iyengar, J. Tomasi, 
 M. Cossi, N. Rega, J. M. Millam, M. Klene, J. E. Knox, J. B. Cross, 
 V. Bakken, C. Adamo, J. Jaramillo, R. Gomperts, R. E. Stratmann, 
 O. Yazyev, A. J. Austin, R. Cammi, C. Pomelli, J. W. Ochterski, 
 R. L. Martin, K. Morokuma, V. G. Zakrzewski, G. A. Voth, 
 P. Salvador, J. J. Dannenberg, S. Dapprich, A. D. Daniels, 
 O. Farkas, J. B. Foresman, J. V. Ortiz, J. Cioslowski, 
 and D. J. Fox, Gaussian, Inc., Wallingford CT, 2013.
 
 ******************************************
 Gaussian 09:  ES64L-G09RevD.01 24-Apr-2013
                22-Feb-2015 
 ******************************************
 %NProcShared=8
 Will use up to    8 processors via shared memory.
 %Mem=500MW
 ----------------------------------------------------------------------
 #p rB971/6-311+G(d,p) Opt=(Tight, CalcAll) Freq GFInput Population=Non
 e Integral(Grid=UltraFine) Guess=MIX NoSymmetry
 ----------------------------------------------------------------------
 1/7=10,10=4,14=-1,18=20,19=15,26=4,38=1/1,3;
 2/9=110,12=2,15=1,17=6,18=5,40=1/2;
 3/5=4,6=6,7=111,11=2,16=1,24=10,25=1,30=1,71=2,74=-20,75=-5,116=1,140=1/1,2,3;
 4/13=-1/1;
 5/5=2,38=5/2;
 8/6=4,10=90,11=11/1;
 11/6=1,8=1,9=11,15=111,16=1,31=1/1,2,10;
 10/6=1,31=1/2;
 7/10=1,25=1,30=1/1,2,3,16;
 1/7=10,10=4,14=-1,18=20,19=15,26=4/3(3);
 2/9=110,15=1/2;
 7/8=1,9=1,25=1,30=1,44=-1/16;
 99//99;
 2/9=110,15=1/2;
 3/5=4,6=6,7=111,11=2,16=1,25=1,30=1,71=2,74=-20,75=-5,116=1,140=1/1,2,3;
 4/5=5,16=3,69=1/1;
 5/5=2,38=5/2;
 8/6=4,10=90,11=11/1;
 11/6=1,8=1,9=11,15=111,16=1,31=1/1,2,10;
 10/6=1,31=1/2;
 7/10=1,25=1,30=1/1,2,3,16;
 1/7=10,10=4,14=-1,18=20,19=15,26=4/3(-8);
 2/9=110,15=1/2;
 7/8=1,9=1,25=1,30=1,44=-1/16;
 99//99;
 Leave Link    1 at Sun Feb 22 05:48:47 2015, MaxMem=   524288000 cpu:         0.5
 (Enter /opt/g09/l101.exe)
 ----------------------
 freq-b971_112-30-1.gau
 ----------------------
 Symbolic Z-matrix:
 Charge =  0 Multiplicity = 1
 C                     3.94523   4.07029   3.36964 
 C                     5.34832   3.52519   3.06133 
 C                     5.57849   3.26113   1.56433 
 C                     3.71435   4.3339    4.86649 
 C                     7.00273   2.80184   1.20379 
 C                     2.29174   4.79922   5.2263 
 C                     7.37878   1.41674   1.75381 
 C                     1.9061    6.18065   4.67247 
 C                     8.76745   0.9525    1.32594 
 C                     0.51192   6.63494   5.12567 
 O                     9.73579   1.8376    1.89106 
 H                     3.1908    3.35457   3.00989 
 H                     3.78857   4.99439   2.79706 
 H                     5.50538   2.60176   3.63495 
 H                     6.10308   4.24028   3.42004 
 H                     5.35791   4.18295   1.0084 
 H                     4.85261   2.51282   1.21207 
 H                     4.43969   5.08199   5.21897 
 H                     3.93402   3.41225   5.42311 
 H                     7.09987   2.78027   0.1089 
 H                     7.73072   3.5391    1.5636 
 H                     2.19453   4.82204   6.32087 
 H                     1.56549   4.05235   4.87229 
 H                     7.34114   1.4136    2.84995 
 H                     6.64949   0.67064   1.407 
 H                     1.9416    6.16688   3.57586 
 H                     2.65483   6.91786   4.99524 
 H                     8.93872  -0.07709   1.67496 
 H                     8.83944   0.95468   0.22633 
 H                     0.25998   7.62089   4.72036 
 H                    -0.25984   5.93064   4.79288 
 H                     0.45288   6.69801   6.21878 
 H                     10.60869   1.5647    1.59829 
 
 NAtoms=     33 NQM=       33 NQMF=       0 NMMI=      0 NMMIF=      0
                NMic=       0 NMicF=      0.
                    Isotopes and Nuclear Properties:
 (Nuclear quadrupole moments (NQMom) in fm**2, nuclear magnetic moments (NMagM)
  in nuclear magnetons)

  Atom         1           2           3           4           5           6           7           8           9          10
 IAtWgt=          12          12          12          12          12          12          12          12          12          12
 AtmWgt=  12.0000000  12.0000000  12.0000000  12.0000000  12.0000000  12.0000000  12.0000000  12.0000000  12.0000000  12.0000000
 NucSpn=           0           0           0           0           0           0           0           0           0           0
 AtZEff=   0.0000000   0.0000000   0.0000000   0.0000000   0.0000000   0.0000000   0.0000000   0.0000000   0.0000000   0.0000000
 NQMom=    0.0000000   0.0000000   0.0000000   0.0000000   0.0000000   0.0000000   0.0000000   0.0000000   0.0000000   0.0000000
 NMagM=    0.0000000   0.0000000   0.0000000   0.0000000   0.0000000   0.0000000   0.0000000   0.0000000   0.0000000   0.0000000
 AtZNuc=   6.0000000   6.0000000   6.0000000   6.0000000   6.0000000   6.0000000   6.0000000   6.0000000   6.0000000   6.0000000

  Atom        11          12          13          14          15          16          17          18          19          20
 IAtWgt=          16           1           1           1           1           1           1           1           1           1
 AtmWgt=  15.9949146   1.0078250   1.0078250   1.0078250   1.0078250   1.0078250   1.0078250   1.0078250   1.0078250   1.0078250
 NucSpn=           0           1           1           1           1           1           1           1           1           1
 AtZEff=   0.0000000   0.0000000   0.0000000   0.0000000   0.0000000   0.0000000   0.0000000   0.0000000   0.0000000   0.0000000
 NQMom=    0.0000000   0.0000000   0.0000000   0.0000000   0.0000000   0.0000000   0.0000000   0.0000000   0.0000000   0.0000000
 NMagM=    0.0000000   2.7928460   2.7928460   2.7928460   2.7928460   2.7928460   2.7928460   2.7928460   2.7928460   2.7928460
 AtZNuc=   8.0000000   1.0000000   1.0000000   1.0000000   1.0000000   1.0000000   1.0000000   1.0000000   1.0000000   1.0000000

  Atom        21          22          23          24          25          26          27          28          29          30
 IAtWgt=           1           1           1           1           1           1           1           1           1           1
 AtmWgt=   1.0078250   1.0078250   1.0078250   1.0078250   1.0078250   1.0078250   1.0078250   1.0078250   1.0078250   1.0078250
 NucSpn=           1           1           1           1           1           1           1           1           1           1
 AtZEff=   0.0000000   0.0000000   0.0000000   0.0000000   0.0000000   0.0000000   0.0000000   0.0000000   0.0000000   0.0000000
 NQMom=    0.0000000   0.0000000   0.0000000   0.0000000   0.0000000   0.0000000   0.0000000   0.0000000   0.0000000   0.0000000
 NMagM=    2.7928460   2.7928460   2.7928460   2.7928460   2.7928460   2.7928460   2.7928460   2.7928460   2.7928460   2.7928460
 AtZNuc=   1.0000000   1.0000000   1.0000000   1.0000000   1.0000000   1.0000000   1.0000000   1.0000000   1.0000000   1.0000000

  Atom        31          32          33
 IAtWgt=           1           1           1
 AtmWgt=   1.0078250   1.0078250   1.0078250
 NucSpn=           1           1           1
 AtZEff=   0.0000000   0.0000000   0.0000000
 NQMom=    0.0000000   0.0000000   0.0000000
 NMagM=    2.7928460   2.7928460   2.7928460
 AtZNuc=   1.0000000   1.0000000   1.0000000
 Leave Link  101 at Sun Feb 22 05:48:48 2015, MaxMem=   524288000 cpu:         2.0
 (Enter /opt/g09/l103.exe)

 GradGradGradGradGradGradGradGradGradGradGradGradGradGradGradGradGradGrad
 Berny optimization.
 Initialization pass.
                           ----------------------------
                           !    Initial Parameters    !
                           ! (Angstroms and Degrees)  !
 --------------------------                            --------------------------
 ! Name  Definition              Value          Derivative Info.                !
 --------------------------------------------------------------------------------
 ! R1    R(1,2)                  1.5365         calculate D2E/DX2 analytically  !
 ! R2    R(1,4)                  1.5373         calculate D2E/DX2 analytically  !
 ! R3    R(1,12)                 1.1004         calculate D2E/DX2 analytically  !
 ! R4    R(1,13)                 1.0983         calculate D2E/DX2 analytically  !
 ! R5    R(2,3)                  1.5374         calculate D2E/DX2 analytically  !
 ! R6    R(2,14)                 1.0984         calculate D2E/DX2 analytically  !
 ! R7    R(2,15)                 1.0999         calculate D2E/DX2 analytically  !
 ! R8    R(3,5)                  1.5393         calculate D2E/DX2 analytically  !
 ! R9    R(3,16)                 1.0988         calculate D2E/DX2 analytically  !
 ! R10   R(3,17)                 1.1004         calculate D2E/DX2 analytically  !
 ! R11   R(4,6)                  1.5394         calculate D2E/DX2 analytically  !
 ! R12   R(4,18)                 1.1            calculate D2E/DX2 analytically  !
 ! R13   R(4,19)                 1.0989         calculate D2E/DX2 analytically  !
 ! R14   R(5,7)                  1.537          calculate D2E/DX2 analytically  !
 ! R15   R(5,20)                 1.0994         calculate D2E/DX2 analytically  !
 ! R16   R(5,21)                 1.0968         calculate D2E/DX2 analytically  !
 ! R17   R(6,8)                  1.5375         calculate D2E/DX2 analytically  !
 ! R18   R(6,22)                 1.0991         calculate D2E/DX2 analytically  !
 ! R19   R(6,23)                 1.1003         calculate D2E/DX2 analytically  !
 ! R20   R(7,9)                  1.5254         calculate D2E/DX2 analytically  !
 ! R21   R(7,24)                 1.0968         calculate D2E/DX2 analytically  !
 ! R22   R(7,25)                 1.0995         calculate D2E/DX2 analytically  !
 ! R23   R(8,10)                 1.5348         calculate D2E/DX2 analytically  !
 ! R24   R(8,26)                 1.0973         calculate D2E/DX2 analytically  !
 ! R25   R(8,27)                 1.0992         calculate D2E/DX2 analytically  !
 ! R26   R(9,11)                 1.4284         calculate D2E/DX2 analytically  !
 ! R27   R(9,28)                 1.1005         calculate D2E/DX2 analytically  !
 ! R28   R(9,29)                 1.102          calculate D2E/DX2 analytically  !
 ! R29   R(10,30)                1.0954         calculate D2E/DX2 analytically  !
 ! R30   R(10,31)                1.0965         calculate D2E/DX2 analytically  !
 ! R31   R(10,32)                1.0965         calculate D2E/DX2 analytically  !
 ! R32   R(11,33)                0.9603         calculate D2E/DX2 analytically  !
 ! A1    A(2,1,4)              113.1631         calculate D2E/DX2 analytically  !
 ! A2    A(2,1,12)             109.2521         calculate D2E/DX2 analytically  !
 ! A3    A(2,1,13)             108.9128         calculate D2E/DX2 analytically  !
 ! A4    A(4,1,12)             109.0801         calculate D2E/DX2 analytically  !
 ! A5    A(4,1,13)             109.9925         calculate D2E/DX2 analytically  !
 ! A6    A(12,1,13)            106.2017         calculate D2E/DX2 analytically  !
 ! A7    A(1,2,3)              113.1427         calculate D2E/DX2 analytically  !
 ! A8    A(1,2,14)             108.9077         calculate D2E/DX2 analytically  !
 ! A9    A(1,2,15)             109.3021         calculate D2E/DX2 analytically  !
 ! A10   A(3,2,14)             110.0416         calculate D2E/DX2 analytically  !
 ! A11   A(3,2,15)             109.0562         calculate D2E/DX2 analytically  !
 ! A12   A(14,2,15)            106.1502         calculate D2E/DX2 analytically  !
 ! A13   A(2,3,5)              114.6979         calculate D2E/DX2 analytically  !
 ! A14   A(2,3,16)             108.5709         calculate D2E/DX2 analytically  !
 ! A15   A(2,3,17)             109.2525         calculate D2E/DX2 analytically  !
 ! A16   A(5,3,16)             108.5145         calculate D2E/DX2 analytically  !
 ! A17   A(5,3,17)             109.4176         calculate D2E/DX2 analytically  !
 ! A18   A(16,3,17)            106.0275         calculate D2E/DX2 analytically  !
 ! A19   A(1,4,6)              114.7208         calculate D2E/DX2 analytically  !
 ! A20   A(1,4,18)             109.2437         calculate D2E/DX2 analytically  !
 ! A21   A(1,4,19)             108.6243         calculate D2E/DX2 analytically  !
 ! A22   A(6,4,18)             109.2021         calculate D2E/DX2 analytically  !
 ! A23   A(6,4,19)             108.6547         calculate D2E/DX2 analytically  !
 ! A24   A(18,4,19)            106.0377         calculate D2E/DX2 analytically  !
 ! A25   A(3,5,7)              114.2956         calculate D2E/DX2 analytically  !
 ! A26   A(3,5,20)             108.7157         calculate D2E/DX2 analytically  !
 ! A27   A(3,5,21)             109.6774         calculate D2E/DX2 analytically  !
 ! A28   A(7,5,20)             108.4865         calculate D2E/DX2 analytically  !
 ! A29   A(7,5,21)             109.024          calculate D2E/DX2 analytically  !
 ! A30   A(20,5,21)            106.3347         calculate D2E/DX2 analytically  !
 ! A31   A(4,6,8)              114.7837         calculate D2E/DX2 analytically  !
 ! A32   A(4,6,22)             108.7097         calculate D2E/DX2 analytically  !
 ! A33   A(4,6,23)             109.2444         calculate D2E/DX2 analytically  !
 ! A34   A(8,6,22)             108.5356         calculate D2E/DX2 analytically  !
 ! A35   A(8,6,23)             109.1749         calculate D2E/DX2 analytically  !
 ! A36   A(22,6,23)            106.0296         calculate D2E/DX2 analytically  !
 ! A37   A(5,7,9)              113.3659         calculate D2E/DX2 analytically  !
 ! A38   A(5,7,24)             110.5986         calculate D2E/DX2 analytically  !
 ! A39   A(5,7,25)             109.6556         calculate D2E/DX2 analytically  !
 ! A40   A(9,7,24)             108.1009         calculate D2E/DX2 analytically  !
 ! A41   A(9,7,25)             107.9896         calculate D2E/DX2 analytically  !
 ! A42   A(24,7,25)            106.8905         calculate D2E/DX2 analytically  !
 ! A43   A(6,8,10)             112.7954         calculate D2E/DX2 analytically  !
 ! A44   A(6,8,26)             109.9144         calculate D2E/DX2 analytically  !
 ! A45   A(6,8,27)             109.025          calculate D2E/DX2 analytically  !
 ! A46   A(10,8,26)            109.1605         calculate D2E/DX2 analytically  !
 ! A47   A(10,8,27)            109.4833         calculate D2E/DX2 analytically  !
 ! A48   A(26,8,27)            106.2507         calculate D2E/DX2 analytically  !
 ! A49   A(7,9,11)             108.5165         calculate D2E/DX2 analytically  !
 ! A50   A(7,9,28)             109.7201         calculate D2E/DX2 analytically  !
 ! A51   A(7,9,29)             109.8012         calculate D2E/DX2 analytically  !
 ! A52   A(11,9,28)            110.4088         calculate D2E/DX2 analytically  !
 ! A53   A(11,9,29)            110.4422         calculate D2E/DX2 analytically  !
 ! A54   A(28,9,29)            107.9471         calculate D2E/DX2 analytically  !
 ! A55   A(8,10,30)            111.4754         calculate D2E/DX2 analytically  !
 ! A56   A(8,10,31)            111.0761         calculate D2E/DX2 analytically  !
 ! A57   A(8,10,32)            111.1191         calculate D2E/DX2 analytically  !
 ! A58   A(30,10,31)           107.6951         calculate D2E/DX2 analytically  !
 ! A59   A(30,10,32)           107.7409         calculate D2E/DX2 analytically  !
 ! A60   A(31,10,32)           107.5535         calculate D2E/DX2 analytically  !
 ! A61   A(9,11,33)            108.6331         calculate D2E/DX2 analytically  !
 ! D1    D(4,1,2,3)            179.9739         calculate D2E/DX2 analytically  !
 ! D2    D(4,1,2,14)            57.2663         calculate D2E/DX2 analytically  !
 ! D3    D(4,1,2,15)           -58.2964         calculate D2E/DX2 analytically  !
 ! D4    D(12,1,2,3)            58.2358         calculate D2E/DX2 analytically  !
 ! D5    D(12,1,2,14)          -64.4719         calculate D2E/DX2 analytically  !
 ! D6    D(12,1,2,15)          179.9654         calculate D2E/DX2 analytically  !
 ! D7    D(13,1,2,3)           -57.3638         calculate D2E/DX2 analytically  !
 ! D8    D(13,1,2,14)          179.9285         calculate D2E/DX2 analytically  !
 ! D9    D(13,1,2,15)           64.3659         calculate D2E/DX2 analytically  !
 ! D10   D(2,1,4,6)           -176.4358         calculate D2E/DX2 analytically  !
 ! D11   D(2,1,4,18)            60.592          calculate D2E/DX2 analytically  !
 ! D12   D(2,1,4,19)           -54.6497         calculate D2E/DX2 analytically  !
 ! D13   D(12,1,4,6)           -54.6013         calculate D2E/DX2 analytically  !
 ! D14   D(12,1,4,18)         -177.5734         calculate D2E/DX2 analytically  !
 ! D15   D(12,1,4,19)           67.1849         calculate D2E/DX2 analytically  !
 ! D16   D(13,1,4,6)            61.5037         calculate D2E/DX2 analytically  !
 ! D17   D(13,1,4,18)          -61.4685         calculate D2E/DX2 analytically  !
 ! D18   D(13,1,4,19)         -176.7102         calculate D2E/DX2 analytically  !
 ! D19   D(1,2,3,5)            176.1781         calculate D2E/DX2 analytically  !
 ! D20   D(1,2,3,16)            54.6289         calculate D2E/DX2 analytically  !
 ! D21   D(1,2,3,17)           -60.5763         calculate D2E/DX2 analytically  !
 ! D22   D(14,2,3,5)           -61.7463         calculate D2E/DX2 analytically  !
 ! D23   D(14,2,3,16)          176.7044         calculate D2E/DX2 analytically  !
 ! D24   D(14,2,3,17)           61.4993         calculate D2E/DX2 analytically  !
 ! D25   D(15,2,3,5)            54.3105         calculate D2E/DX2 analytically  !
 ! D26   D(15,2,3,16)          -67.2387         calculate D2E/DX2 analytically  !
 ! D27   D(15,2,3,17)          177.5561         calculate D2E/DX2 analytically  !
 ! D28   D(2,3,5,7)             66.5937         calculate D2E/DX2 analytically  !
 ! D29   D(2,3,5,20)          -172.0572         calculate D2E/DX2 analytically  !
 ! D30   D(2,3,5,21)           -56.1752         calculate D2E/DX2 analytically  !
 ! D31   D(16,3,5,7)          -171.8263         calculate D2E/DX2 analytically  !
 ! D32   D(16,3,5,20)          -50.4772         calculate D2E/DX2 analytically  !
 ! D33   D(16,3,5,21)           65.4048         calculate D2E/DX2 analytically  !
 ! D34   D(17,3,5,7)           -56.5634         calculate D2E/DX2 analytically  !
 ! D35   D(17,3,5,20)           64.7857         calculate D2E/DX2 analytically  !
 ! D36   D(17,3,5,21)         -179.3323         calculate D2E/DX2 analytically  !
 ! D37   D(1,4,6,8)            -66.0858         calculate D2E/DX2 analytically  !
 ! D38   D(1,4,6,22)           172.1753         calculate D2E/DX2 analytically  !
 ! D39   D(1,4,6,23)            56.8962         calculate D2E/DX2 analytically  !
 ! D40   D(18,4,6,8)            56.9087         calculate D2E/DX2 analytically  !
 ! D41   D(18,4,6,22)          -64.8303         calculate D2E/DX2 analytically  !
 ! D42   D(18,4,6,23)          179.8906         calculate D2E/DX2 analytically  !
 ! D43   D(19,4,6,8)           172.1446         calculate D2E/DX2 analytically  !
 ! D44   D(19,4,6,22)           50.4057         calculate D2E/DX2 analytically  !
 ! D45   D(19,4,6,23)          -64.8734         calculate D2E/DX2 analytically  !
 ! D46   D(3,5,7,9)            177.1054         calculate D2E/DX2 analytically  !
 ! D47   D(3,5,7,24)           -61.2977         calculate D2E/DX2 analytically  !
 ! D48   D(3,5,7,25)            56.3373         calculate D2E/DX2 analytically  !
 ! D49   D(20,5,7,9)            55.6299         calculate D2E/DX2 analytically  !
 ! D50   D(20,5,7,24)          177.2269         calculate D2E/DX2 analytically  !
 ! D51   D(20,5,7,25)          -65.1381         calculate D2E/DX2 analytically  !
 ! D52   D(21,5,7,9)           -59.7716         calculate D2E/DX2 analytically  !
 ! D53   D(21,5,7,24)           61.8253         calculate D2E/DX2 analytically  !
 ! D54   D(21,5,7,25)          179.4603         calculate D2E/DX2 analytically  !
 ! D55   D(4,6,8,10)          -176.6434         calculate D2E/DX2 analytically  !
 ! D56   D(4,6,8,26)            61.289          calculate D2E/DX2 analytically  !
 ! D57   D(4,6,8,27)           -54.7993         calculate D2E/DX2 analytically  !
 ! D58   D(22,6,8,10)          -54.8098         calculate D2E/DX2 analytically  !
 ! D59   D(22,6,8,26)         -176.8774         calculate D2E/DX2 analytically  !
 ! D60   D(22,6,8,27)           67.0343         calculate D2E/DX2 analytically  !
 ! D61   D(23,6,8,10)           60.3374         calculate D2E/DX2 analytically  !
 ! D62   D(23,6,8,26)          -61.7303         calculate D2E/DX2 analytically  !
 ! D63   D(23,6,8,27)         -177.8186         calculate D2E/DX2 analytically  !
 ! D64   D(5,7,9,11)            64.3424         calculate D2E/DX2 analytically  !
 ! D65   D(5,7,9,28)          -174.9461         calculate D2E/DX2 analytically  !
 ! D66   D(5,7,9,29)           -56.4588         calculate D2E/DX2 analytically  !
 ! D67   D(24,7,9,11)          -58.6426         calculate D2E/DX2 analytically  !
 ! D68   D(24,7,9,28)           62.0688         calculate D2E/DX2 analytically  !
 ! D69   D(24,7,9,29)         -179.4439         calculate D2E/DX2 analytically  !
 ! D70   D(25,7,9,11)         -173.9531         calculate D2E/DX2 analytically  !
 ! D71   D(25,7,9,28)          -53.2416         calculate D2E/DX2 analytically  !
 ! D72   D(25,7,9,29)           65.2457         calculate D2E/DX2 analytically  !
 ! D73   D(6,8,10,30)          179.9255         calculate D2E/DX2 analytically  !
 ! D74   D(6,8,10,31)          -59.9644         calculate D2E/DX2 analytically  !
 ! D75   D(6,8,10,32)           59.7282         calculate D2E/DX2 analytically  !
 ! D76   D(26,8,10,30)         -57.5834         calculate D2E/DX2 analytically  !
 ! D77   D(26,8,10,31)          62.5267         calculate D2E/DX2 analytically  !
 ! D78   D(26,8,10,32)        -177.7807         calculate D2E/DX2 analytically  !
 ! D79   D(27,8,10,30)          58.3405         calculate D2E/DX2 analytically  !
 ! D80   D(27,8,10,31)         178.4506         calculate D2E/DX2 analytically  !
 ! D81   D(27,8,10,32)         -61.8568         calculate D2E/DX2 analytically  !
 ! D82   D(7,9,11,33)         -178.0901         calculate D2E/DX2 analytically  !
 ! D83   D(28,9,11,33)          61.6255         calculate D2E/DX2 analytically  !
 ! D84   D(29,9,11,33)         -57.686          calculate D2E/DX2 analytically  !
 --------------------------------------------------------------------------------
 Trust Radius=3.00D-01 FncErr=1.00D-07 GrdErr=1.00D-06
 Number of steps in this run=    187 maximum allowed number of steps=    198.
 GradGradGradGradGradGradGradGradGradGradGradGradGradGradGradGradGradGrad

 Leave Link  103 at Sun Feb 22 05:48:48 2015, MaxMem=   524288000 cpu:         0.1
 (Enter /opt/g09/l202.exe)
                          Input orientation:                          
 ---------------------------------------------------------------------
 Center     Atomic      Atomic             Coordinates (Angstroms)
 Number     Number       Type             X           Y           Z
 ---------------------------------------------------------------------
      1          6           0        3.945230    4.070290    3.369640
      2          6           0        5.348320    3.525190    3.061330
      3          6           0        5.578490    3.261130    1.564330
      4          6           0        3.714350    4.333900    4.866490
      5          6           0        7.002730    2.801840    1.203790
      6          6           0        2.291740    4.799220    5.226300
      7          6           0        7.378780    1.416740    1.753810
      8          6           0        1.906100    6.180650    4.672470
      9          6           0        8.767450    0.952500    1.325940
     10          6           0        0.511920    6.634940    5.125670
     11          8           0        9.735790    1.837600    1.891060
     12          1           0        3.190800    3.354570    3.009890
     13          1           0        3.788570    4.994390    2.797060
     14          1           0        5.505380    2.601760    3.634950
     15          1           0        6.103080    4.240280    3.420040
     16          1           0        5.357910    4.182950    1.008400
     17          1           0        4.852610    2.512820    1.212070
     18          1           0        4.439690    5.081990    5.218970
     19          1           0        3.934020    3.412250    5.423110
     20          1           0        7.099870    2.780270    0.108900
     21          1           0        7.730720    3.539100    1.563600
     22          1           0        2.194530    4.822040    6.320870
     23          1           0        1.565490    4.052350    4.872290
     24          1           0        7.341140    1.413600    2.849950
     25          1           0        6.649490    0.670640    1.407000
     26          1           0        1.941600    6.166880    3.575860
     27          1           0        2.654830    6.917860    4.995240
     28          1           0        8.938720   -0.077090    1.674960
     29          1           0        8.839440    0.954680    0.226330
     30          1           0        0.259980    7.620890    4.720360
     31          1           0       -0.259840    5.930640    4.792880
     32          1           0        0.452880    6.698010    6.218780
     33          1           0       10.608690    1.564700    1.598290
 ---------------------------------------------------------------------
                    Distance matrix (angstroms):
                    1          2          3          4          5
     1  C    0.000000
     2  C    1.536506   0.000000
     3  C    2.565428   1.537438   0.000000
     4  C    1.537321   2.565633   3.940827   0.000000
     5  C    3.955778   2.590514   1.539284   5.155194   0.000000
     6  C    2.590860   3.956378   5.155431   1.539417   6.508728
     7  C    4.630497   3.205922   2.584322   5.623757   1.537022
     8  C    3.210769   4.636391   5.627662   2.591891   7.030202
     9  C    6.095173   4.617441   3.944118   7.035850   2.559144
    10  C    4.631273   6.109240   7.052366   3.951900   8.497318
    11  O    6.379788   4.844315   4.406397   7.165364   2.978543
    12  H    1.100382   2.164867   2.792747   2.163367   4.254212
    13  H    1.098340   2.158983   2.779861   2.173545   4.204356
    14  H    2.158944   1.098376   2.174300   2.779350   2.862277
    15  H    2.165122   1.099859   2.162773   2.794103   2.791101
    16  H    2.753872   2.155751   1.098847   4.196300   2.156635
    17  H    2.811434   2.165729   1.100435   4.238721   2.169474
    18  H    2.165190   2.811520   4.238961   1.100000   5.281092
    19  H    2.156358   2.755178   4.197297   1.098872   5.252832
    20  H    4.716814   3.512788   2.159653   6.042365   1.099402
    21  H    4.227751   2.814111   2.170106   5.260420   1.096807
    22  H    3.512810   4.717289   6.042541   2.159480   7.306470
    23  H    2.814506   4.226970   5.260494   2.167234   6.677218
    24  H    4.342843   2.911155   2.858867   5.074268   2.179811
    25  H    4.766823   3.546591   2.807567   5.831174   2.169812
    26  H    2.907361   4.341544   5.071154   2.858004   6.524205
    27  H    3.523686   4.743955   5.804361   2.795713   7.086674
    28  H    6.708774   5.271567   4.737837   7.545644   3.501185
    29  H    6.598539   5.180026   4.212333   7.695243   2.782253
    30  H    5.292662   6.739313   7.566676   4.770569   9.003010
    31  H    4.813432   6.343179   7.185814   4.283595   8.684232
    32  H    5.217185   6.633371   7.729678   4.249105   9.123092
    33  H    7.336032   5.801336   5.308667   8.116743   3.832635
                    6          7          8          9         10
     6  C    0.000000
     7  C    7.026901   0.000000
     8  C    1.537464   7.820719   0.000000
     9  C    8.482033   1.525449   9.252618   0.000000
    10  C    2.558858   9.260282   1.534766  10.718295   0.000000
    11  O    8.678070   2.398220   9.375626   1.428441  10.888386
    12  H    2.794243   4.782478   3.521556   6.301163   4.734316
    13  H    2.860035   5.174704   2.909995   6.579538   4.341689
    14  H    4.205794   2.907333   5.180706   4.323504   6.589646
    15  H    4.254562   3.517970   4.790434   4.721612   6.317012
    16  H    5.250892   3.505919   5.415829   4.707611   6.815261
    17  H    5.282019   2.806494   5.840314   4.215867   7.151904
    18  H    2.166495   5.837777   2.815101   7.137078   4.224658
    19  H    2.158588   5.414074   3.512828   6.797001   4.710092
    20  H    7.306302   2.154700   7.704804   2.757309   9.133868
    21  H    6.677258   2.159735   7.111192   2.796746   8.624595
    22  H    1.099115   7.702633   2.155513   9.117343   2.747050
    23  H    1.100262   7.103921   2.164626   8.605457   2.800711
    24  H    6.527320   1.096791   7.455602   2.137658   8.892668
    25  H    7.114929   1.099457   7.970148   2.138170   9.331192
    26  H    2.171876   7.446249   1.097271   8.879422   2.159856
    27  H    2.161911   7.942600   1.099207   9.295881   2.165437
    28  H    8.976233   2.161286   9.879379   1.100547  11.312370
    29  H    9.091346   2.163382   9.754493   1.101966  11.207876
    30  H    3.513666   9.897940   2.187760  11.329897   1.095375
    31  H    2.824628   9.378686   2.183644  10.876282   1.096541
    32  H    2.823442   9.787536   2.184167  11.228662   1.096519
    33  H    9.633080   3.237035  10.319528   1.959369  11.836153
                   11         12         13         14         15
    11  O    0.000000
    12  H    6.811011   0.000000
    13  H    6.793790   1.758305   0.000000
    14  H    4.639123   2.512907   3.061727   0.000000
    15  H    4.615976   3.071495   2.512716   1.757322   0.000000
    16  H    5.044362   3.064073   2.514074   3.069312   2.524792
    17  H    4.976183   2.588882   3.130905   2.510850   3.069678
    18  H    7.046256   3.069811   2.509438   3.129913   2.590655
    19  H    6.972477   2.525734   3.069277   2.514673   3.066389
    20  H    3.318553   4.901672   4.805543   3.873925   3.753514
    21  H    2.650026   4.768299   4.379479   3.181389   2.566561
    22  H    9.241250   3.756143   3.871422   4.806822   4.902043
    23  H    8.974779   2.568475   3.183725   4.376980   4.768026
    24  H    2.614115   4.584568   5.044364   2.323352   3.138139
    25  H    3.334870   4.662110   5.367676   3.162590   4.134395
    26  H    9.073622   3.128883   2.322189   5.041240   4.588462
    27  H    9.251214   4.114112   3.133225   5.348340   4.641241
    28  H    2.085200   6.826193   7.314579   4.775523   5.452141
    29  H    2.086700   6.739051   6.959827   5.044553   5.336911
    30  H   11.456106   5.451321   4.800889   7.340572   6.874676
    31  H   11.184192   4.660698   4.609716   6.757219   6.725233
    32  H   11.336894   5.382543   5.073196   6.998800   6.767432
    33  H    0.960283   7.760241   7.727474   5.591713   5.547794
                   16         17         18         19         20
    16  H    0.000000
    17  H    1.756742   0.000000
    18  H    4.402306   4.777697   0.000000
    19  H    4.702245   4.402913   1.756533   0.000000
    20  H    2.410609   2.517676   6.203812   6.217944   0.000000
    21  H    2.520519   3.075767   5.154912   5.415426   1.757824
    22  H    6.215927   6.204653   2.514458   2.412324   8.174335
    23  H    5.415640   5.154854   3.072681   2.514571   7.411979
    24  H    3.872184   3.175487   5.242876   4.714257   3.072353
    25  H    3.763427   2.580776   6.234929   5.569501   2.517627
    26  H    4.711582   5.235803   3.180763   3.869116   7.077901
    27  H    5.539067   6.208622   2.570253   3.756155   7.794508
    28  H    5.604859   4.859856   7.708267   7.160387   3.741446
    29  H    4.811903   4.392527   7.830641   7.557071   2.524415
    30  H    7.182407   7.713153   4.915750   5.630726   9.564584
    31  H    6.995415   7.116238   4.794512   4.932336   9.275227
    32  H    7.585045   7.870234   4.416536   4.852592   9.841839
    33  H    5.896939   5.846414   7.971023   7.911631   4.000964
                   21         22         23         24         25
    21  H    0.000000
    22  H    7.411272   0.000000
    23  H    7.015762   1.756843   0.000000
    24  H    2.514800   7.081832   6.664157   0.000000
    25  H    3.069470   7.824763   7.020773   1.764221   0.000000
    26  H    6.668458   3.067189   2.508670   7.230190   7.554921
    27  H    6.996916   2.522228   3.068049   7.540600   8.237750
    28  H    3.814249   9.543063   9.035470   2.480931   2.423113
    29  H    3.113965   9.810949   9.170106   3.055960   2.504105
    30  H    9.079543   3.760010   3.802883   9.600610  10.005507
    31  H    8.944091   3.096398   2.620326   9.052819   9.320441
    32  H    9.198716   2.561841   3.170245   9.312472   9.893452
    33  H    3.490297  10.183865   9.934130   3.502337   4.063398
                   26         27         28         29         30
    26  H    0.000000
    27  H    1.757074   0.000000
    28  H    9.568713   9.972004   0.000000
    29  H    9.271816   9.826058   1.781273   0.000000
    30  H    2.500374   2.510999  11.993910  11.757627   0.000000
    31  H    2.526516   3.083967  11.420497  11.331834   1.769864
    32  H    3.079515   2.528630  11.771056  11.799563   1.770362
    33  H   10.010459  10.171503   2.343107   2.320484  12.390341
                   31         32         33
    31  H    0.000000
    32  H    1.769185   0.000000
    33  H   12.140502  12.281705   0.000000
 Symmetry turned off by external request.
 Stoichiometry    C10H22O
 Framework group  C1[X(C10H22O)]
 Deg. of freedom    93
 Full point group                 C1      NOp   1
 Rotational constants (GHZ):      3.7163480      0.2348989      0.2308161
 Leave Link  202 at Sun Feb 22 05:48:48 2015, MaxMem=   524288000 cpu:         0.0
 (Enter /opt/g09/l301.exe)
 Standard basis: 6-311+G(d,p) (5D, 7F)
 Ernie: Thresh=  0.10000D-02 Tol=  0.10000D-05 Strict=F.
 AO basis set in the form of general basis input (Overlap normalization):
      1 0
 S   6 1.00       0.000000000000
      0.4563240000D+04  0.1966650249D-02
      0.6820240000D+03  0.1523060193D-01
      0.1549730000D+03  0.7612690966D-01
      0.4445530000D+02  0.2608010331D+00
      0.1302900000D+02  0.6164620782D+00
      0.1827730000D+01  0.2210060280D+00
 SP   3 1.00       0.000000000000
      0.2096420000D+02  0.1146600807D+00  0.4024869267D-01
      0.4803310000D+01  0.9199996477D+00  0.2375939567D+00
      0.1459330000D+01 -0.3030682134D-02  0.8158538515D+00
 SP   1 1.00       0.000000000000
      0.4834560000D+00  0.1000000000D+01  0.1000000000D+01
 SP   1 1.00       0.000000000000
      0.1455850000D+00  0.1000000000D+01  0.1000000000D+01
 SP   1 1.00       0.000000000000
      0.4380000000D-01  0.1000000000D+01  0.1000000000D+01
 D   1 1.00       0.000000000000
      0.6260000000D+00  0.1000000000D+01
 ****
      2 0
 S   6 1.00       0.000000000000
      0.4563240000D+04  0.1966650249D-02
      0.6820240000D+03  0.1523060193D-01
      0.1549730000D+03  0.7612690966D-01
      0.4445530000D+02  0.2608010331D+00
      0.1302900000D+02  0.6164620782D+00
      0.1827730000D+01  0.2210060280D+00
 SP   3 1.00       0.000000000000
      0.2096420000D+02  0.1146600807D+00  0.4024869267D-01
      0.4803310000D+01  0.9199996477D+00  0.2375939567D+00
      0.1459330000D+01 -0.3030682134D-02  0.8158538515D+00
 SP   1 1.00       0.000000000000
      0.4834560000D+00  0.1000000000D+01  0.1000000000D+01
 SP   1 1.00       0.000000000000
      0.1455850000D+00  0.1000000000D+01  0.1000000000D+01
 SP   1 1.00       0.000000000000
      0.4380000000D-01  0.1000000000D+01  0.1000000000D+01
 D   1 1.00       0.000000000000
      0.6260000000D+00  0.1000000000D+01
 ****
      3 0
 S   6 1.00       0.000000000000
      0.4563240000D+04  0.1966650249D-02
      0.6820240000D+03  0.1523060193D-01
      0.1549730000D+03  0.7612690966D-01
      0.4445530000D+02  0.2608010331D+00
      0.1302900000D+02  0.6164620782D+00
      0.1827730000D+01  0.2210060280D+00
 SP   3 1.00       0.000000000000
      0.2096420000D+02  0.1146600807D+00  0.4024869267D-01
      0.4803310000D+01  0.9199996477D+00  0.2375939567D+00
      0.1459330000D+01 -0.3030682134D-02  0.8158538515D+00
 SP   1 1.00       0.000000000000
      0.4834560000D+00  0.1000000000D+01  0.1000000000D+01
 SP   1 1.00       0.000000000000
      0.1455850000D+00  0.1000000000D+01  0.1000000000D+01
 SP   1 1.00       0.000000000000
      0.4380000000D-01  0.1000000000D+01  0.1000000000D+01
 D   1 1.00       0.000000000000
      0.6260000000D+00  0.1000000000D+01
 ****
      4 0
 S   6 1.00       0.000000000000
      0.4563240000D+04  0.1966650249D-02
      0.6820240000D+03  0.1523060193D-01
      0.1549730000D+03  0.7612690966D-01
      0.4445530000D+02  0.2608010331D+00
      0.1302900000D+02  0.6164620782D+00
      0.1827730000D+01  0.2210060280D+00
 SP   3 1.00       0.000000000000
      0.2096420000D+02  0.1146600807D+00  0.4024869267D-01
      0.4803310000D+01  0.9199996477D+00  0.2375939567D+00
      0.1459330000D+01 -0.3030682134D-02  0.8158538515D+00
 SP   1 1.00       0.000000000000
      0.4834560000D+00  0.1000000000D+01  0.1000000000D+01
 SP   1 1.00       0.000000000000
      0.1455850000D+00  0.1000000000D+01  0.1000000000D+01
 SP   1 1.00       0.000000000000
      0.4380000000D-01  0.1000000000D+01  0.1000000000D+01
 D   1 1.00       0.000000000000
      0.6260000000D+00  0.1000000000D+01
 ****
      5 0
 S   6 1.00       0.000000000000
      0.4563240000D+04  0.1966650249D-02
      0.6820240000D+03  0.1523060193D-01
      0.1549730000D+03  0.7612690966D-01
      0.4445530000D+02  0.2608010331D+00
      0.1302900000D+02  0.6164620782D+00
      0.1827730000D+01  0.2210060280D+00
 SP   3 1.00       0.000000000000
      0.2096420000D+02  0.1146600807D+00  0.4024869267D-01
      0.4803310000D+01  0.9199996477D+00  0.2375939567D+00
      0.1459330000D+01 -0.3030682134D-02  0.8158538515D+00
 SP   1 1.00       0.000000000000
      0.4834560000D+00  0.1000000000D+01  0.1000000000D+01
 SP   1 1.00       0.000000000000
      0.1455850000D+00  0.1000000000D+01  0.1000000000D+01
 SP   1 1.00       0.000000000000
      0.4380000000D-01  0.1000000000D+01  0.1000000000D+01
 D   1 1.00       0.000000000000
      0.6260000000D+00  0.1000000000D+01
 ****
      6 0
 S   6 1.00       0.000000000000
      0.4563240000D+04  0.1966650249D-02
      0.6820240000D+03  0.1523060193D-01
      0.1549730000D+03  0.7612690966D-01
      0.4445530000D+02  0.2608010331D+00
      0.1302900000D+02  0.6164620782D+00
      0.1827730000D+01  0.2210060280D+00
 SP   3 1.00       0.000000000000
      0.2096420000D+02  0.1146600807D+00  0.4024869267D-01
      0.4803310000D+01  0.9199996477D+00  0.2375939567D+00
      0.1459330000D+01 -0.3030682134D-02  0.8158538515D+00
 SP   1 1.00       0.000000000000
      0.4834560000D+00  0.1000000000D+01  0.1000000000D+01
 SP   1 1.00       0.000000000000
      0.1455850000D+00  0.1000000000D+01  0.1000000000D+01
 SP   1 1.00       0.000000000000
      0.4380000000D-01  0.1000000000D+01  0.1000000000D+01
 D   1 1.00       0.000000000000
      0.6260000000D+00  0.1000000000D+01
 ****
      7 0
 S   6 1.00       0.000000000000
      0.4563240000D+04  0.1966650249D-02
      0.6820240000D+03  0.1523060193D-01
      0.1549730000D+03  0.7612690966D-01
      0.4445530000D+02  0.2608010331D+00
      0.1302900000D+02  0.6164620782D+00
      0.1827730000D+01  0.2210060280D+00
 SP   3 1.00       0.000000000000
      0.2096420000D+02  0.1146600807D+00  0.4024869267D-01
      0.4803310000D+01  0.9199996477D+00  0.2375939567D+00
      0.1459330000D+01 -0.3030682134D-02  0.8158538515D+00
 SP   1 1.00       0.000000000000
      0.4834560000D+00  0.1000000000D+01  0.1000000000D+01
 SP   1 1.00       0.000000000000
      0.1455850000D+00  0.1000000000D+01  0.1000000000D+01
 SP   1 1.00       0.000000000000
      0.4380000000D-01  0.1000000000D+01  0.1000000000D+01
 D   1 1.00       0.000000000000
      0.6260000000D+00  0.1000000000D+01
 ****
      8 0
 S   6 1.00       0.000000000000
      0.4563240000D+04  0.1966650249D-02
      0.6820240000D+03  0.1523060193D-01
      0.1549730000D+03  0.7612690966D-01
      0.4445530000D+02  0.2608010331D+00
      0.1302900000D+02  0.6164620782D+00
      0.1827730000D+01  0.2210060280D+00
 SP   3 1.00       0.000000000000
      0.2096420000D+02  0.1146600807D+00  0.4024869267D-01
      0.4803310000D+01  0.9199996477D+00  0.2375939567D+00
      0.1459330000D+01 -0.3030682134D-02  0.8158538515D+00
 SP   1 1.00       0.000000000000
      0.4834560000D+00  0.1000000000D+01  0.1000000000D+01
 SP   1 1.00       0.000000000000
      0.1455850000D+00  0.1000000000D+01  0.1000000000D+01
 SP   1 1.00       0.000000000000
      0.4380000000D-01  0.1000000000D+01  0.1000000000D+01
 D   1 1.00       0.000000000000
      0.6260000000D+00  0.1000000000D+01
 ****
      9 0
 S   6 1.00       0.000000000000
      0.4563240000D+04  0.1966650249D-02
      0.6820240000D+03  0.1523060193D-01
      0.1549730000D+03  0.7612690966D-01
      0.4445530000D+02  0.2608010331D+00
      0.1302900000D+02  0.6164620782D+00
      0.1827730000D+01  0.2210060280D+00
 SP   3 1.00       0.000000000000
      0.2096420000D+02  0.1146600807D+00  0.4024869267D-01
      0.4803310000D+01  0.9199996477D+00  0.2375939567D+00
      0.1459330000D+01 -0.3030682134D-02  0.8158538515D+00
 SP   1 1.00       0.000000000000
      0.4834560000D+00  0.1000000000D+01  0.1000000000D+01
 SP   1 1.00       0.000000000000
      0.1455850000D+00  0.1000000000D+01  0.1000000000D+01
 SP   1 1.00       0.000000000000
      0.4380000000D-01  0.1000000000D+01  0.1000000000D+01
 D   1 1.00       0.000000000000
      0.6260000000D+00  0.1000000000D+01
 ****
     10 0
 S   6 1.00       0.000000000000
      0.4563240000D+04  0.1966650249D-02
      0.6820240000D+03  0.1523060193D-01
      0.1549730000D+03  0.7612690966D-01
      0.4445530000D+02  0.2608010331D+00
      0.1302900000D+02  0.6164620782D+00
      0.1827730000D+01  0.2210060280D+00
 SP   3 1.00       0.000000000000
      0.2096420000D+02  0.1146600807D+00  0.4024869267D-01
      0.4803310000D+01  0.9199996477D+00  0.2375939567D+00
      0.1459330000D+01 -0.3030682134D-02  0.8158538515D+00
 SP   1 1.00       0.000000000000
      0.4834560000D+00  0.1000000000D+01  0.1000000000D+01
 SP   1 1.00       0.000000000000
      0.1455850000D+00  0.1000000000D+01  0.1000000000D+01
 SP   1 1.00       0.000000000000
      0.4380000000D-01  0.1000000000D+01  0.1000000000D+01
 D   1 1.00       0.000000000000
      0.6260000000D+00  0.1000000000D+01
 ****
     11 0
 S   6 1.00       0.000000000000
      0.8588500000D+04  0.1895150083D-02
      0.1297230000D+04  0.1438590063D-01
      0.2992960000D+03  0.7073200310D-01
      0.8737710000D+02  0.2400010105D+00
      0.2567890000D+02  0.5947970261D+00
      0.3740040000D+01  0.2808020123D+00
 SP   3 1.00       0.000000000000
      0.4211750000D+02  0.1138890124D+00  0.3651139738D-01
      0.9628370000D+01  0.9208111006D+00  0.2371529830D+00
      0.2853320000D+01 -0.3274470358D-02  0.8197019412D+00
 SP   1 1.00       0.000000000000
      0.9056610000D+00  0.1000000000D+01  0.1000000000D+01
 SP   1 1.00       0.000000000000
      0.2556110000D+00  0.1000000000D+01  0.1000000000D+01
 SP   1 1.00       0.000000000000
      0.8450000000D-01  0.1000000000D+01  0.1000000000D+01
 D   1 1.00       0.000000000000
      0.1292000000D+01  0.1000000000D+01
 ****
     12 0
 S   3 1.00       0.000000000000
      0.3386500000D+02  0.2549381454D-01
      0.5094790000D+01  0.1903731086D+00
      0.1158790000D+01  0.8521614860D+00
 S   1 1.00       0.000000000000
      0.3258400000D+00  0.1000000000D+01
 S   1 1.00       0.000000000000
      0.1027410000D+00  0.1000000000D+01
 P   1 1.00       0.000000000000
      0.7500000000D+00  0.1000000000D+01
 ****
     13 0
 S   3 1.00       0.000000000000
      0.3386500000D+02  0.2549381454D-01
      0.5094790000D+01  0.1903731086D+00
      0.1158790000D+01  0.8521614860D+00
 S   1 1.00       0.000000000000
      0.3258400000D+00  0.1000000000D+01
 S   1 1.00       0.000000000000
      0.1027410000D+00  0.1000000000D+01
 P   1 1.00       0.000000000000
      0.7500000000D+00  0.1000000000D+01
 ****
     14 0
 S   3 1.00       0.000000000000
      0.3386500000D+02  0.2549381454D-01
      0.5094790000D+01  0.1903731086D+00
      0.1158790000D+01  0.8521614860D+00
 S   1 1.00       0.000000000000
      0.3258400000D+00  0.1000000000D+01
 S   1 1.00       0.000000000000
      0.1027410000D+00  0.1000000000D+01
 P   1 1.00       0.000000000000
      0.7500000000D+00  0.1000000000D+01
 ****
     15 0
 S   3 1.00       0.000000000000
      0.3386500000D+02  0.2549381454D-01
      0.5094790000D+01  0.1903731086D+00
      0.1158790000D+01  0.8521614860D+00
 S   1 1.00       0.000000000000
      0.3258400000D+00  0.1000000000D+01
 S   1 1.00       0.000000000000
      0.1027410000D+00  0.1000000000D+01
 P   1 1.00       0.000000000000
      0.7500000000D+00  0.1000000000D+01
 ****
     16 0
 S   3 1.00       0.000000000000
      0.3386500000D+02  0.2549381454D-01
      0.5094790000D+01  0.1903731086D+00
      0.1158790000D+01  0.8521614860D+00
 S   1 1.00       0.000000000000
      0.3258400000D+00  0.1000000000D+01
 S   1 1.00       0.000000000000
      0.1027410000D+00  0.1000000000D+01
 P   1 1.00       0.000000000000
      0.7500000000D+00  0.1000000000D+01
 ****
     17 0
 S   3 1.00       0.000000000000
      0.3386500000D+02  0.2549381454D-01
      0.5094790000D+01  0.1903731086D+00
      0.1158790000D+01  0.8521614860D+00
 S   1 1.00       0.000000000000
      0.3258400000D+00  0.1000000000D+01
 S   1 1.00       0.000000000000
      0.1027410000D+00  0.1000000000D+01
 P   1 1.00       0.000000000000
      0.7500000000D+00  0.1000000000D+01
 ****
     18 0
 S   3 1.00       0.000000000000
      0.3386500000D+02  0.2549381454D-01
      0.5094790000D+01  0.1903731086D+00
      0.1158790000D+01  0.8521614860D+00
 S   1 1.00       0.000000000000
      0.3258400000D+00  0.1000000000D+01
 S   1 1.00       0.000000000000
      0.1027410000D+00  0.1000000000D+01
 P   1 1.00       0.000000000000
      0.7500000000D+00  0.1000000000D+01
 ****
     19 0
 S   3 1.00       0.000000000000
      0.3386500000D+02  0.2549381454D-01
      0.5094790000D+01  0.1903731086D+00
      0.1158790000D+01  0.8521614860D+00
 S   1 1.00       0.000000000000
      0.3258400000D+00  0.1000000000D+01
 S   1 1.00       0.000000000000
      0.1027410000D+00  0.1000000000D+01
 P   1 1.00       0.000000000000
      0.7500000000D+00  0.1000000000D+01
 ****
     20 0
 S   3 1.00       0.000000000000
      0.3386500000D+02  0.2549381454D-01
      0.5094790000D+01  0.1903731086D+00
      0.1158790000D+01  0.8521614860D+00
 S   1 1.00       0.000000000000
      0.3258400000D+00  0.1000000000D+01
 S   1 1.00       0.000000000000
      0.1027410000D+00  0.1000000000D+01
 P   1 1.00       0.000000000000
      0.7500000000D+00  0.1000000000D+01
 ****
     21 0
 S   3 1.00       0.000000000000
      0.3386500000D+02  0.2549381454D-01
      0.5094790000D+01  0.1903731086D+00
      0.1158790000D+01  0.8521614860D+00
 S   1 1.00       0.000000000000
      0.3258400000D+00  0.1000000000D+01
 S   1 1.00       0.000000000000
      0.1027410000D+00  0.1000000000D+01
 P   1 1.00       0.000000000000
      0.7500000000D+00  0.1000000000D+01
 ****
     22 0
 S   3 1.00       0.000000000000
      0.3386500000D+02  0.2549381454D-01
      0.5094790000D+01  0.1903731086D+00
      0.1158790000D+01  0.8521614860D+00
 S   1 1.00       0.000000000000
      0.3258400000D+00  0.1000000000D+01
 S   1 1.00       0.000000000000
      0.1027410000D+00  0.1000000000D+01
 P   1 1.00       0.000000000000
      0.7500000000D+00  0.1000000000D+01
 ****
     23 0
 S   3 1.00       0.000000000000
      0.3386500000D+02  0.2549381454D-01
      0.5094790000D+01  0.1903731086D+00
      0.1158790000D+01  0.8521614860D+00
 S   1 1.00       0.000000000000
      0.3258400000D+00  0.1000000000D+01
 S   1 1.00       0.000000000000
      0.1027410000D+00  0.1000000000D+01
 P   1 1.00       0.000000000000
      0.7500000000D+00  0.1000000000D+01
 ****
     24 0
 S   3 1.00       0.000000000000
      0.3386500000D+02  0.2549381454D-01
      0.5094790000D+01  0.1903731086D+00
      0.1158790000D+01  0.8521614860D+00
 S   1 1.00       0.000000000000
      0.3258400000D+00  0.1000000000D+01
 S   1 1.00       0.000000000000
      0.1027410000D+00  0.1000000000D+01
 P   1 1.00       0.000000000000
      0.7500000000D+00  0.1000000000D+01
 ****
     25 0
 S   3 1.00       0.000000000000
      0.3386500000D+02  0.2549381454D-01
      0.5094790000D+01  0.1903731086D+00
      0.1158790000D+01  0.8521614860D+00
 S   1 1.00       0.000000000000
      0.3258400000D+00  0.1000000000D+01
 S   1 1.00       0.000000000000
      0.1027410000D+00  0.1000000000D+01
 P   1 1.00       0.000000000000
      0.7500000000D+00  0.1000000000D+01
 ****
     26 0
 S   3 1.00       0.000000000000
      0.3386500000D+02  0.2549381454D-01
      0.5094790000D+01  0.1903731086D+00
      0.1158790000D+01  0.8521614860D+00
 S   1 1.00       0.000000000000
      0.3258400000D+00  0.1000000000D+01
 S   1 1.00       0.000000000000
      0.1027410000D+00  0.1000000000D+01
 P   1 1.00       0.000000000000
      0.7500000000D+00  0.1000000000D+01
 ****
     27 0
 S   3 1.00       0.000000000000
      0.3386500000D+02  0.2549381454D-01
      0.5094790000D+01  0.1903731086D+00
      0.1158790000D+01  0.8521614860D+00
 S   1 1.00       0.000000000000
      0.3258400000D+00  0.1000000000D+01
 S   1 1.00       0.000000000000
      0.1027410000D+00  0.1000000000D+01
 P   1 1.00       0.000000000000
      0.7500000000D+00  0.1000000000D+01
 ****
     28 0
 S   3 1.00       0.000000000000
      0.3386500000D+02  0.2549381454D-01
      0.5094790000D+01  0.1903731086D+00
      0.1158790000D+01  0.8521614860D+00
 S   1 1.00       0.000000000000
      0.3258400000D+00  0.1000000000D+01
 S   1 1.00       0.000000000000
      0.1027410000D+00  0.1000000000D+01
 P   1 1.00       0.000000000000
      0.7500000000D+00  0.1000000000D+01
 ****
     29 0
 S   3 1.00       0.000000000000
      0.3386500000D+02  0.2549381454D-01
      0.5094790000D+01  0.1903731086D+00
      0.1158790000D+01  0.8521614860D+00
 S   1 1.00       0.000000000000
      0.3258400000D+00  0.1000000000D+01
 S   1 1.00       0.000000000000
      0.1027410000D+00  0.1000000000D+01
 P   1 1.00       0.000000000000
      0.7500000000D+00  0.1000000000D+01
 ****
     30 0
 S   3 1.00       0.000000000000
      0.3386500000D+02  0.2549381454D-01
      0.5094790000D+01  0.1903731086D+00
      0.1158790000D+01  0.8521614860D+00
 S   1 1.00       0.000000000000
      0.3258400000D+00  0.1000000000D+01
 S   1 1.00       0.000000000000
      0.1027410000D+00  0.1000000000D+01
 P   1 1.00       0.000000000000
      0.7500000000D+00  0.1000000000D+01
 ****
     31 0
 S   3 1.00       0.000000000000
      0.3386500000D+02  0.2549381454D-01
      0.5094790000D+01  0.1903731086D+00
      0.1158790000D+01  0.8521614860D+00
 S   1 1.00       0.000000000000
      0.3258400000D+00  0.1000000000D+01
 S   1 1.00       0.000000000000
      0.1027410000D+00  0.1000000000D+01
 P   1 1.00       0.000000000000
      0.7500000000D+00  0.1000000000D+01
 ****
     32 0
 S   3 1.00       0.000000000000
      0.3386500000D+02  0.2549381454D-01
      0.5094790000D+01  0.1903731086D+00
      0.1158790000D+01  0.8521614860D+00
 S   1 1.00       0.000000000000
      0.3258400000D+00  0.1000000000D+01
 S   1 1.00       0.000000000000
      0.1027410000D+00  0.1000000000D+01
 P   1 1.00       0.000000000000
      0.7500000000D+00  0.1000000000D+01
 ****
     33 0
 S   3 1.00       0.000000000000
      0.3386500000D+02  0.2549381454D-01
      0.5094790000D+01  0.1903731086D+00
      0.1158790000D+01  0.8521614860D+00
 S   1 1.00       0.000000000000
      0.3258400000D+00  0.1000000000D+01
 S   1 1.00       0.000000000000
      0.1027410000D+00  0.1000000000D+01
 P   1 1.00       0.000000000000
      0.7500000000D+00  0.1000000000D+01
 ****

   374 basis functions,   572 primitive gaussians,   385 cartesian basis functions
    45 alpha electrons       45 beta electrons
       nuclear repulsion energy       611.0186256878 Hartrees.
 IExCor= 1614 DFT=T Ex+Corr=B971 ExCW=0 ScaHFX=  0.210000
 ScaDFX=  1.000000  1.000000  1.000000  1.000000 ScalE2=  1.000000  1.000000
 IRadAn=      5 IRanWt=     -1 IRanGd=            0 ICorTp=0 IEmpDi=  4
 NAtoms=   33 NActive=   33 NUniq=   33 SFac= 1.00D+00 NAtFMM=   60 NAOKFM=F Big=F
 Integral buffers will be    131072 words long.
 Raffenetti 2 integral format.
 Two-electron integral symmetry is turned off.
 Leave Link  301 at Sun Feb 22 05:48:48 2015, MaxMem=   524288000 cpu:         0.4
 (Enter /opt/g09/l302.exe)
 NPDir=0 NMtPBC=     1 NCelOv=     1 NCel=       1 NClECP=     1 NCelD=      1
         NCelK=      1 NCelE2=     1 NClLst=     1 CellRange=     0.0.
 One-electron integrals computed using PRISM.
 NBasis=   374 RedAO= T EigKep=  5.07D-06  NBF=   374
 NBsUse=   374 1.00D-06 EigRej= -1.00D+00 NBFU=   374
 Precomputing XC quadrature grid using
 IXCGrd= 4 IRadAn=           5 IRanWt=          -1 IRanGd=           0 AccXCQ= 0.00D+00.
 Generated NRdTot=       0 NPtTot=           0 NUsed=           0 NTot=          32
 NSgBfM=   380   380   380   380   380 MxSgAt=    33 MxSgA2=    33.
 Leave Link  302 at Sun Feb 22 05:48:49 2015, MaxMem=   524288000 cpu:         6.0
 (Enter /opt/g09/l303.exe)
 DipDrv:  MaxL=1.
 Leave Link  303 at Sun Feb 22 05:48:49 2015, MaxMem=   524288000 cpu:         0.6
 (Enter /opt/g09/l401.exe)
 ExpMin= 4.38D-02 ExpMax= 8.59D+03 ExpMxC= 1.30D+03 IAcc=3 IRadAn=         5 AccDes= 0.00D+00
 Harris functional with IExCor= 1614 and IRadAn=       5 diagonalized for initial guess.
 HarFok:  IExCor= 1614 AccDes= 0.00D+00 IRadAn=         5 IDoV= 1 UseB2=F ITyADJ=14
 ICtDFT=  3500011 ScaDFX=  1.000000  1.000000  1.000000  1.000000
 FoFCou: FMM=F IPFlag=           0 FMFlag=      100000 FMFlg1=           0
         NFxFlg=           0 DoJE=T BraDBF=F KetDBF=T FulRan=T
         wScrn=  0.000000 ICntrl=     500 IOpCl=  0 I1Cent=   200000004 NGrid=           0
         NMat0=    1 NMatS0=      1 NMatT0=    0 NMatD0=    1 NMtDS0=    0 NMtDT0=    0
 Symmetry not used in FoFCou.
 Harris En= -455.579711350876    
 JPrj=0 DoOrth=F DoCkMO=T.
 Mixing orbitals, IMix= 1 IMixAn=  0 NRI=1 NE=   45 Coef=  7.07106781D-01  7.07106781D-01
 Leave Link  401 at Sun Feb 22 05:48:54 2015, MaxMem=   524288000 cpu:        39.4
 (Enter /opt/g09/l502.exe)
 Closed shell SCF:
 Using DIIS extrapolation, IDIIS=  1040.
 Two-electron integral symmetry not used.
 IVT=      468681 IEndB=      468681 NGot=   524288000 MDV=   523984570
 LenX=   523984570 LenY=   523835904
 Requested convergence on RMS density matrix=1.00D-08 within 128 cycles.
 Requested convergence on MAX density matrix=1.00D-06.
 Requested convergence on             energy=1.00D-06.
 No special actions if energy rises.
 Fock matrices will be formed incrementally for  20 cycles.

 Cycle   1  Pass 1  IDiag  1:
 FoFJK:  IHMeth= 1 ICntrl=       0 DoSepK=F KAlg= 0 I1Cent=   0 FoldK=F
 IRaf= 780000000 NMat=   1 IRICut=       1 DoRegI=T DoRafI=F ISym2E= 0.
 FoFCou: FMM=F IPFlag=           0 FMFlag=      100000 FMFlg1=           0
         NFxFlg=           0 DoJE=F BraDBF=F KetDBF=F FulRan=T
         wScrn=  0.000000 ICntrl=       0 IOpCl=  0 I1Cent=           0 NGrid=           0
         NMat0=    1 NMatS0=      1 NMatT0=    0 NMatD0=    1 NMtDS0=    0 NMtDT0=    0
 Symmetry not used in FoFCou.
 E= -468.846529998814    
 DIIS: error= 5.67D-02 at cycle   1 NSaved=   1.
 NSaved= 1 IEnMin= 1 EnMin= -468.846529998814     IErMin= 1 ErrMin= 5.67D-02
 ErrMax= 5.67D-02  0.00D+00 EMaxC= 1.00D-01 BMatC= 1.17D+00 BMatP= 1.17D+00
 IDIUse=3 WtCom= 4.33D-01 WtEn= 5.67D-01
 Coeff-Com:  0.100D+01
 Coeff-En:   0.100D+01
 Coeff:      0.100D+01
 Gap=     0.013 Goal=   None    Shift=    0.000
 GapD=    0.013 DampG=0.250 DampE=0.500 DampFc=0.2500 IDamp=-1.
 Damping current iteration by 2.50D-01
 RMSDP=1.04D-01 MaxDP=6.67D+00              OVMax= 9.57D-01

 Cycle   2  Pass 1  IDiag  1:
 RMSU=  4.94D-03    CP:  7.58D-01
 E= -468.963987689691     Delta-E=       -0.117457690877 Rises=F Damp=T
 DIIS: error= 4.26D-02 at cycle   2 NSaved=   2.
 NSaved= 2 IEnMin= 2 EnMin= -468.963987689691     IErMin= 2 ErrMin= 4.26D-02
 ErrMax= 4.26D-02  0.00D+00 EMaxC= 1.00D-01 BMatC= 4.64D-01 BMatP= 1.17D+00
 IDIUse=3 WtCom= 5.74D-01 WtEn= 4.26D-01
 Coeff-Com: -0.667D+00 0.167D+01
 Coeff-En:   0.244D+00 0.756D+00
 Coeff:     -0.279D+00 0.128D+01
 Gap=     0.009 Goal=   None    Shift=    0.000
 RMSDP=7.66D-02 MaxDP=4.82D+00 DE=-1.17D-01 OVMax= 5.92D-01

 Cycle   3  Pass 1  IDiag  1:
 RMSU=  1.06D-02    CP:  3.93D-02  1.54D+00
 E= -469.469845796565     Delta-E=       -0.505858106874 Rises=F Damp=F
 DIIS: error= 1.20D-02 at cycle   3 NSaved=   3.
 NSaved= 3 IEnMin= 3 EnMin= -469.469845796565     IErMin= 3 ErrMin= 1.20D-02
 ErrMax= 1.20D-02  0.00D+00 EMaxC= 1.00D-01 BMatC= 4.71D-02 BMatP= 4.64D-01
 IDIUse=3 WtCom= 8.80D-01 WtEn= 1.20D-01
 Coeff-Com: -0.182D+00 0.377D+00 0.806D+00
 Coeff-En:   0.000D+00 0.000D+00 0.100D+01
 Coeff:     -0.161D+00 0.332D+00 0.829D+00
 Gap=     0.243 Goal=   None    Shift=    0.000
 RMSDP=3.85D-03 MaxDP=3.55D-01 DE=-5.06D-01 OVMax= 7.04D-02

 Cycle   4  Pass 1  IDiag  1:
 RMSU=  2.91D-03    CP:  2.59D-02  1.40D+00  8.16D-01
 E= -469.483997122982     Delta-E=       -0.014151326417 Rises=F Damp=F
 DIIS: error= 1.37D-02 at cycle   4 NSaved=   4.
 NSaved= 4 IEnMin= 4 EnMin= -469.483997122982     IErMin= 3 ErrMin= 1.20D-02
 ErrMax= 1.37D-02  0.00D+00 EMaxC= 1.00D-01 BMatC= 4.11D-02 BMatP= 4.71D-02
 IDIUse=3 WtCom= 8.63D-01 WtEn= 1.37D-01
 Coeff-Com: -0.122D+00 0.194D+00 0.461D+00 0.467D+00
 Coeff-En:   0.000D+00 0.000D+00 0.417D+00 0.583D+00
 Coeff:     -0.105D+00 0.167D+00 0.455D+00 0.483D+00
 Gap=     0.284 Goal=   None    Shift=    0.000
 RMSDP=1.27D-03 MaxDP=9.07D-02 DE=-1.42D-02 OVMax= 3.49D-02

 Cycle   5  Pass 1  IDiag  1:
 RMSU=  8.70D-04    CP:  2.56D-02  1.39D+00  8.43D-01  6.96D-01
 E= -469.519265325659     Delta-E=       -0.035268202677 Rises=F Damp=F
 DIIS: error= 1.45D-03 at cycle   5 NSaved=   5.
 NSaved= 5 IEnMin= 5 EnMin= -469.519265325659     IErMin= 5 ErrMin= 1.45D-03
 ErrMax= 1.45D-03  0.00D+00 EMaxC= 1.00D-01 BMatC= 6.28D-04 BMatP= 4.11D-02
 IDIUse=3 WtCom= 9.86D-01 WtEn= 1.45D-02
 Coeff-Com: -0.114D-01 0.178D-01 0.398D-01 0.129D+00 0.825D+00
 Coeff-En:   0.000D+00 0.000D+00 0.000D+00 0.000D+00 0.100D+01
 Coeff:     -0.113D-01 0.176D-01 0.393D-01 0.127D+00 0.827D+00
 Gap=     0.290 Goal=   None    Shift=    0.000
 RMSDP=2.82D-04 MaxDP=1.69D-02 DE=-3.53D-02 OVMax= 4.44D-03

 Cycle   6  Pass 1  IDiag  1:
 RMSU=  1.88D-04    CP:  2.49D-02  1.39D+00  8.32D-01  7.50D-01  1.04D+00
 E= -469.519816190709     Delta-E=       -0.000550865050 Rises=F Damp=F
 DIIS: error= 3.10D-04 at cycle   6 NSaved=   6.
 NSaved= 6 IEnMin= 6 EnMin= -469.519816190709     IErMin= 6 ErrMin= 3.10D-04
 ErrMax= 3.10D-04  0.00D+00 EMaxC= 1.00D-01 BMatC= 6.49D-05 BMatP= 6.28D-04
 IDIUse=3 WtCom= 9.97D-01 WtEn= 3.10D-03
 Coeff-Com: -0.153D-02 0.217D-02-0.433D-02 0.340D-01 0.362D+00 0.608D+00
 Coeff-En:   0.000D+00 0.000D+00 0.000D+00 0.000D+00 0.000D+00 0.100D+01
 Coeff:     -0.152D-02 0.216D-02-0.431D-02 0.339D-01 0.361D+00 0.609D+00
 Gap=     0.285 Goal=   None    Shift=    0.000
 RMSDP=5.08D-05 MaxDP=3.04D-03 DE=-5.51D-04 OVMax= 1.50D-03

 Cycle   7  Pass 1  IDiag  1:
 RMSU=  3.92D-05    CP:  2.48D-02  1.39D+00  8.31D-01  7.52D-01  1.07D+00
                    CP:  9.12D-01
 E= -469.519870901314     Delta-E=       -0.000054710604 Rises=F Damp=F
 DIIS: error= 8.25D-05 at cycle   7 NSaved=   7.
 NSaved= 7 IEnMin= 7 EnMin= -469.519870901314     IErMin= 7 ErrMin= 8.25D-05
 ErrMax= 8.25D-05  0.00D+00 EMaxC= 1.00D-01 BMatC= 5.38D-06 BMatP= 6.49D-05
 IDIUse=1 WtCom= 1.00D+00 WtEn= 0.00D+00
 Coeff-Com:  0.692D-04-0.165D-03-0.334D-02 0.261D-02 0.559D-01 0.251D+00
 Coeff-Com:  0.693D+00
 Coeff:      0.692D-04-0.165D-03-0.334D-02 0.261D-02 0.559D-01 0.251D+00
 Coeff:      0.693D+00
 Gap=     0.285 Goal=   None    Shift=    0.000
 RMSDP=1.04D-05 MaxDP=5.21D-04 DE=-5.47D-05 OVMax= 3.51D-04

 Cycle   8  Pass 1  IDiag  1:
 RMSU=  9.77D-06    CP:  2.48D-02  1.39D+00  8.31D-01  7.51D-01  1.07D+00
                    CP:  9.15D-01  9.73D-01
 E= -469.519875398490     Delta-E=       -0.000004497177 Rises=F Damp=F
 DIIS: error= 1.97D-05 at cycle   8 NSaved=   8.
 NSaved= 8 IEnMin= 8 EnMin= -469.519875398490     IErMin= 8 ErrMin= 1.97D-05
 ErrMax= 1.97D-05  0.00D+00 EMaxC= 1.00D-01 BMatC= 2.50D-07 BMatP= 5.38D-06
 IDIUse=1 WtCom= 1.00D+00 WtEn= 0.00D+00
 Coeff-Com:  0.846D-04-0.152D-03-0.100D-02-0.131D-03 0.711D-02 0.726D-01
 Coeff-Com:  0.262D+00 0.659D+00
 Coeff:      0.846D-04-0.152D-03-0.100D-02-0.131D-03 0.711D-02 0.726D-01
 Coeff:      0.262D+00 0.659D+00
 Gap=     0.285 Goal=   None    Shift=    0.000
 RMSDP=5.05D-06 MaxDP=3.48D-04 DE=-4.50D-06 OVMax= 9.52D-05

 Cycle   9  Pass 1  IDiag  1:
 RMSU=  3.56D-06    CP:  2.48D-02  1.39D+00  8.32D-01  7.51D-01  1.07D+00
                    CP:  9.24D-01  9.63D-01  8.09D-01
 E= -469.519875623848     Delta-E=       -0.000000225358 Rises=F Damp=F
 DIIS: error= 6.82D-06 at cycle   9 NSaved=   9.
 NSaved= 9 IEnMin= 9 EnMin= -469.519875623848     IErMin= 9 ErrMin= 6.82D-06
 ErrMax= 6.82D-06  0.00D+00 EMaxC= 1.00D-01 BMatC= 2.82D-08 BMatP= 2.50D-07
 IDIUse=1 WtCom= 1.00D+00 WtEn= 0.00D+00
 Coeff-Com:  0.278D-04-0.440D-04-0.101D-03-0.135D-03-0.809D-03 0.833D-02
 Coeff-Com:  0.413D-01 0.274D+00 0.678D+00
 Coeff:      0.278D-04-0.440D-04-0.101D-03-0.135D-03-0.809D-03 0.833D-02
 Coeff:      0.413D-01 0.274D+00 0.678D+00
 Gap=     0.285 Goal=   None    Shift=    0.000
 RMSDP=1.32D-06 MaxDP=1.23D-04 DE=-2.25D-07 OVMax= 3.23D-05

 Cycle  10  Pass 1  IDiag  1:
 RMSU=  9.53D-07    CP:  2.48D-02  1.39D+00  8.32D-01  7.51D-01  1.07D+00
                    CP:  9.25D-01  9.57D-01  8.48D-01  8.70D-01
 E= -469.519875649406     Delta-E=       -0.000000025558 Rises=F Damp=F
 DIIS: error= 3.37D-06 at cycle  10 NSaved=  10.
 NSaved=10 IEnMin=10 EnMin= -469.519875649406     IErMin=10 ErrMin= 3.37D-06
 ErrMax= 3.37D-06  0.00D+00 EMaxC= 1.00D-01 BMatC= 2.87D-09 BMatP= 2.82D-08
 IDIUse=1 WtCom= 1.00D+00 WtEn= 0.00D+00
 Coeff-Com: -0.356D-05 0.429D-05 0.131D-04-0.377D-04-0.583D-03-0.896D-03
 Coeff-Com:  0.162D-03 0.729D-01 0.308D+00 0.620D+00
 Coeff:     -0.356D-05 0.429D-05 0.131D-04-0.377D-04-0.583D-03-0.896D-03
 Coeff:      0.162D-03 0.729D-01 0.308D+00 0.620D+00
 Gap=     0.285 Goal=   None    Shift=    0.000
 RMSDP=4.67D-07 MaxDP=2.97D-05 DE=-2.56D-08 OVMax= 8.49D-06

 Cycle  11  Pass 1  IDiag  1:
 RMSU=  2.28D-07    CP:  2.48D-02  1.39D+00  8.32D-01  7.51D-01  1.07D+00
                    CP:  9.24D-01  9.62D-01  8.60D-01  8.81D-01  7.20D-01
 E= -469.519875652153     Delta-E=       -0.000000002747 Rises=F Damp=F
 DIIS: error= 4.37D-07 at cycle  11 NSaved=  11.
 NSaved=11 IEnMin=11 EnMin= -469.519875652153     IErMin=11 ErrMin= 4.37D-07
 ErrMax= 4.37D-07  0.00D+00 EMaxC= 1.00D-01 BMatC= 8.17D-11 BMatP= 2.87D-09
 IDIUse=1 WtCom= 1.00D+00 WtEn= 0.00D+00
 Coeff-Com: -0.130D-05 0.137D-05 0.368D-06-0.138D-04-0.140D-03-0.604D-03
 Coeff-Com: -0.173D-02 0.896D-02 0.616D-01 0.200D+00 0.732D+00
 Coeff:     -0.130D-05 0.137D-05 0.368D-06-0.138D-04-0.140D-03-0.604D-03
 Coeff:     -0.173D-02 0.896D-02 0.616D-01 0.200D+00 0.732D+00
 Gap=     0.285 Goal=   None    Shift=    0.000
 RMSDP=7.84D-08 MaxDP=4.59D-06 DE=-2.75D-09 OVMax= 1.82D-06

 Cycle  12  Pass 1  IDiag  1:
 RMSU=  5.13D-08    CP:  2.48D-02  1.39D+00  8.32D-01  7.51D-01  1.07D+00
                    CP:  9.24D-01  9.61D-01  8.59D-01  8.89D-01  7.45D-01
                    CP:  8.38D-01
 E= -469.519875652239     Delta-E=       -0.000000000086 Rises=F Damp=F
 DIIS: error= 1.44D-07 at cycle  12 NSaved=  12.
 NSaved=12 IEnMin=12 EnMin= -469.519875652239     IErMin=12 ErrMin= 1.44D-07
 ErrMax= 1.44D-07  0.00D+00 EMaxC= 1.00D-01 BMatC= 7.05D-12 BMatP= 8.17D-11
 IDIUse=1 WtCom= 1.00D+00 WtEn= 0.00D+00
 Coeff-Com:  0.536D-06-0.934D-06-0.108D-05-0.564D-05-0.439D-04-0.170D-03
 Coeff-Com: -0.529D-03 0.624D-03 0.951D-02 0.454D-01 0.278D+00 0.667D+00
 Coeff:      0.536D-06-0.934D-06-0.108D-05-0.564D-05-0.439D-04-0.170D-03
 Coeff:     -0.529D-03 0.624D-03 0.951D-02 0.454D-01 0.278D+00 0.667D+00
 Gap=     0.285 Goal=   None    Shift=    0.000
 RMSDP=2.04D-08 MaxDP=8.82D-07 DE=-8.59D-11 OVMax= 5.15D-07

 Cycle  13  Pass 1  IDiag  1:
 RMSU=  1.48D-08    CP:  2.48D-02  1.39D+00  8.32D-01  7.51D-01  1.07D+00
                    CP:  9.24D-01  9.61D-01  8.59D-01  8.91D-01  7.48D-01
                    CP:  8.51D-01  8.26D-01
 E= -469.519875652248     Delta-E=       -0.000000000009 Rises=F Damp=F
 DIIS: error= 3.59D-08 at cycle  13 NSaved=  13.
 NSaved=13 IEnMin=13 EnMin= -469.519875652248     IErMin=13 ErrMin= 3.59D-08
 ErrMax= 3.59D-08  0.00D+00 EMaxC= 1.00D-01 BMatC= 7.35D-13 BMatP= 7.05D-12
 IDIUse=1 WtCom= 1.00D+00 WtEn= 0.00D+00
 Coeff-Com:  0.337D-06-0.488D-06 0.242D-06-0.733D-06-0.923D-05-0.255D-04
 Coeff-Com: -0.901D-04-0.470D-03-0.135D-02 0.161D-02 0.519D-01 0.283D+00
 Coeff-Com:  0.665D+00
 Coeff:      0.337D-06-0.488D-06 0.242D-06-0.733D-06-0.923D-05-0.255D-04
 Coeff:     -0.901D-04-0.470D-03-0.135D-02 0.161D-02 0.519D-01 0.283D+00
 Coeff:      0.665D+00
 Gap=     0.285 Goal=   None    Shift=    0.000
 RMSDP=6.77D-09 MaxDP=6.40D-07 DE=-9.09D-12 OVMax= 1.80D-07

 SCF Done:  E(RB971) =  -469.519875652     A.U. after   13 cycles
            NFock= 13  Conv=0.68D-08     -V/T= 2.0043
 KE= 4.674948886306D+02 PE=-2.312761827700D+03 EE= 7.647284377292D+02
 Leave Link  502 at Sun Feb 22 05:51:38 2015, MaxMem=   524288000 cpu:      1308.7
 (Enter /opt/g09/l801.exe)
 DoSCS=F DFT=T ScalE2(SS,OS)=  1.000000  1.000000
 Range of M.O.s used for correlation:     1   374
 NBasis=   374 NAE=    45 NBE=    45 NFC=     0 NFV=     0
 NROrb=    374 NOA=    45 NOB=    45 NVA=   329 NVB=   329

 **** Warning!!: The largest alpha MO coefficient is  0.89790329D+02

 Leave Link  801 at Sun Feb 22 05:51:38 2015, MaxMem=   524288000 cpu:         0.3
 (Enter /opt/g09/l1101.exe)
 Using compressed storage, NAtomX=    33.
 Will process     34 centers per pass.
 Leave Link 1101 at Sun Feb 22 05:51:39 2015, MaxMem=   524288000 cpu:         8.4
 (Enter /opt/g09/l1102.exe)
 Symmetrizing basis deriv contribution to polar:
 IMax=3 JMax=2 DiffMx= 0.00D+00
 Leave Link 1102 at Sun Feb 22 05:51:39 2015, MaxMem=   524288000 cpu:         0.5
 (Enter /opt/g09/l1110.exe)
 Forming Gx(P) for the SCF density, NAtomX=    33.
 Integral derivatives from FoFJK, PRISM(SPDF).
 Do as many integral derivatives as possible in FoFJK.
 G2DrvN: MDV=     524287632.
 G2DrvN: will do    34 centers at a time, making    1 passes.
 Calling FoFCou, ICntrl=  3107 FMM=F I1Cent=   0 AccDes= 0.00D+00.
 FoFJK:  IHMeth= 1 ICntrl=    3107 DoSepK=F KAlg= 0 I1Cent=   0 FoldK=F
 IRaf=         0 NMat=   1 IRICut=       1 DoRegI=T DoRafI=F ISym2E= 0.
 FoFCou: FMM=F IPFlag=           0 FMFlag=      100000 FMFlg1=           0
         NFxFlg=           0 DoJE=F BraDBF=F KetDBF=F FulRan=T
         wScrn=  0.000000 ICntrl=    3107 IOpCl=  0 I1Cent=           0 NGrid=           0
         NMat0=    1 NMatS0=      1 NMatT0=    0 NMatD0=    1 NMtDS0=    0 NMtDT0=    0
 Symmetry not used in FoFCou.
 End of G2Drv F.D. properties file   721 does not exist.
 End of G2Drv F.D. properties file   722 does not exist.
 End of G2Drv F.D. properties file   788 does not exist.
 Leave Link 1110 at Sun Feb 22 05:59:28 2015, MaxMem=   524288000 cpu:      3747.5
 (Enter /opt/g09/l1002.exe)
 Minotr:  Closed shell wavefunction.
          IDoAtm=111111111111111111111111111111111
          Direct CPHF calculation.
          Differentiating once with respect to electric field.
                with respect to dipole field.
          Differentiating once with respect to nuclear coordinates.
          Requested convergence is 1.0D-08 RMS, and 1.0D-07 maximum.
          Secondary convergence is 1.0D-12 RMS, and 1.0D-12 maximum.
          NewPWx=T KeepS1=F KeepF1=F KeepIn=T MapXYZ=F SortEE=F KeepMc=T.
          MDV=     524287292 using IRadAn=       1.
 Generate precomputed XC quadrature information.
          Solving linear equations simultaneously, MaxMat=       0.
 FoFJK:  IHMeth= 1 ICntrl=       0 DoSepK=F KAlg= 0 I1Cent=   0 FoldK=F
 IRaf= 780000000 NMat= 102 IRICut=     255 DoRegI=T DoRafI=T ISym2E= 0.
 FoFCou: FMM=F IPFlag=           0 FMFlag=      100000 FMFlg1=           0
         NFxFlg=           0 DoJE=F BraDBF=F KetDBF=F FulRan=T
         wScrn=  0.000000 ICntrl=       0 IOpCl=  0 I1Cent=           0 NGrid=           0
         NMat0=  102 NMatS0=    102 NMatT0=    0 NMatD0=  102 NMtDS0=    0 NMtDT0=    0
 Symmetry not used in FoFCou.
          There are   102 degrees of freedom in the 1st order CPHF.  IDoFFX=6 NUNeed=     3.
     99 vectors produced by pass  0 Test12= 1.48D-14 1.00D-09 XBig12= 7.82D+01 1.55D+00.
 AX will form    99 AO Fock derivatives at one time.
     99 vectors produced by pass  1 Test12= 1.48D-14 1.00D-09 XBig12= 4.15D+00 2.02D-01.
     99 vectors produced by pass  2 Test12= 1.48D-14 1.00D-09 XBig12= 3.81D-02 1.90D-02.
     99 vectors produced by pass  3 Test12= 1.48D-14 1.00D-09 XBig12= 7.58D-05 7.03D-04.
     99 vectors produced by pass  4 Test12= 1.48D-14 1.00D-09 XBig12= 1.11D-07 2.86D-05.
     65 vectors produced by pass  5 Test12= 1.48D-14 1.00D-09 XBig12= 1.23D-10 1.23D-06.
      4 vectors produced by pass  6 Test12= 1.48D-14 1.00D-09 XBig12= 1.03D-13 4.58D-08.
      3 vectors produced by pass  7 Test12= 1.48D-14 1.00D-09 XBig12= 1.59D-15 4.39D-09.
      3 vectors produced by pass  8 Test12= 1.48D-14 1.00D-09 XBig12= 1.01D-15 4.63D-09.
      3 vectors produced by pass  9 Test12= 1.48D-14 1.00D-09 XBig12= 1.16D-15 4.88D-09.
      3 vectors produced by pass 10 Test12= 1.48D-14 1.00D-09 XBig12= 3.67D-16 2.25D-09.
      3 vectors produced by pass 11 Test12= 1.48D-14 1.00D-09 XBig12= 4.62D-15 7.89D-09.
      3 vectors produced by pass 12 Test12= 1.48D-14 1.00D-09 XBig12= 9.94D-16 3.41D-09.
      3 vectors produced by pass 13 Test12= 1.48D-14 1.00D-09 XBig12= 8.79D-16 3.71D-09.
      3 vectors produced by pass 14 Test12= 1.48D-14 1.00D-09 XBig12= 4.72D-15 6.97D-09.
      3 vectors produced by pass 15 Test12= 1.48D-14 1.00D-09 XBig12= 1.36D-15 3.61D-09.
      3 vectors produced by pass 16 Test12= 1.48D-14 1.00D-09 XBig12= 3.43D-15 4.86D-09.
      3 vectors produced by pass 17 Test12= 1.48D-14 1.00D-09 XBig12= 3.01D-15 6.26D-09.
      2 vectors produced by pass 18 Test12= 1.48D-14 1.00D-09 XBig12= 7.20D-16 2.14D-09.
 InvSVY:  IOpt=1 It=  1 EMax= 2.31D-14
 Solved reduced A of dimension   599 with   102 vectors.
 FullF1:  Do perturbations    1 to     3.
 Isotropic polarizability for W=    0.000000      128.58 Bohr**3.
 End of Minotr F.D. properties file   721 does not exist.
 End of Minotr F.D. properties file   722 does not exist.
 End of Minotr F.D. properties file   788 does not exist.
 Leave Link 1002 at Sun Feb 22 06:15:40 2015, MaxMem=   524288000 cpu:      7765.3
 (Enter /opt/g09/l701.exe)
 Compute integral second derivatives.
 ... and contract with generalized density number  0.
 Leave Link  701 at Sun Feb 22 06:15:41 2015, MaxMem=   524288000 cpu:         3.4
 (Enter /opt/g09/l702.exe)
 L702 exits ... SP integral derivatives will be done elsewhere.
 Leave Link  702 at Sun Feb 22 06:15:41 2015, MaxMem=   524288000 cpu:         0.3
 (Enter /opt/g09/l703.exe)
 Compute integral second derivatives, UseDBF=F ICtDFT=           0.
 Integral derivatives from FoFJK, PRISM(SPDF).
 Calling FoFJK, ICntrl=    100127 FMM=F ISym2X=0 I1Cent= 0 IOpClX= 0 NMat=1 NMatS=1 NMatT=0.
 FoFJK:  IHMeth= 1 ICntrl=  100127 DoSepK=F KAlg= 0 I1Cent=   0 FoldK=F
 IRaf=         0 NMat=   1 IRICut=       1 DoRegI=T DoRafI=F ISym2E= 0.
 FoFCou: FMM=F IPFlag=           0 FMFlag=      100000 FMFlg1=         800
         NFxFlg=           0 DoJE=F BraDBF=F KetDBF=F FulRan=T
         wScrn=  0.000000 ICntrl=  100127 IOpCl=  0 I1Cent=           0 NGrid=           0
         NMat0=    1 NMatS0=      1 NMatT0=    0 NMatD0=    1 NMtDS0=    0 NMtDT0=    0
 Symmetry not used in FoFCou.
 Leave Link  703 at Sun Feb 22 06:25:48 2015, MaxMem=   524288000 cpu:      4844.7
 (Enter /opt/g09/l716.exe)
 Dipole        = 1.70877315D-01-4.73421909D-01-3.85956401D-01
 Polarizability= 1.42364559D+02-1.89548860D+01 1.22788193D+02
                -1.37645300D+01 7.72277677D+00 1.20591059D+02
 -------------------------------------------------------------------
 Center     Atomic                   Forces (Hartrees/Bohr)
 Number     Number              X              Y              Z
 -------------------------------------------------------------------
      1        6          -0.000001909   -0.000002495    0.000002557
      2        6          -0.000003012   -0.000004640   -0.000002071
      3        6           0.000000932    0.000003514   -0.000001779
      4        6          -0.000001132    0.000007188   -0.000005253
      5        6           0.000000952   -0.000001123    0.000008278
      6        6          -0.000000435   -0.000002006    0.000005300
      7        6           0.000000848   -0.000003015   -0.000002921
      8        6          -0.000003616    0.000001613   -0.000003652
      9        6          -0.000000112    0.000002844    0.000004977
     10        6           0.000004059   -0.000003380   -0.000002136
     11        8           0.000000646   -0.000000685   -0.000003196
     12        1           0.000000276   -0.000001456    0.000000546
     13        1          -0.000000175    0.000001301   -0.000000830
     14        1           0.000000733    0.000000611    0.000000464
     15        1           0.000003042    0.000004014    0.000000876
     16        1          -0.000001606   -0.000000468   -0.000000470
     17        1          -0.000000751   -0.000001595    0.000000811
     18        1          -0.000000212    0.000000497    0.000000700
     19        1           0.000002479   -0.000005554    0.000003932
     20        1           0.000000073    0.000000260   -0.000005682
     21        1          -0.000002098    0.000000710   -0.000002603
     22        1           0.000001084   -0.000000551   -0.000002436
     23        1           0.000001454   -0.000000413    0.000001124
     24        1           0.000000857    0.000001243   -0.000001630
     25        1           0.000002157    0.000002182    0.000001833
     26        1          -0.000000900   -0.000000713    0.000003193
     27        1          -0.000000812   -0.000001025   -0.000000424
     28        1           0.000000929    0.000003428   -0.000000727
     29        1           0.000000450    0.000001154   -0.000002940
     30        1          -0.000001262   -0.000001067    0.000000105
     31        1          -0.000001000   -0.000002419    0.000001543
     32        1          -0.000001509   -0.000000855    0.000003388
     33        1          -0.000000433    0.000002901   -0.000000876
 -------------------------------------------------------------------
 Cartesian Forces:  Max     0.000008278 RMS     0.000002487
 FormGI is forming the generalized inverse of G from B-inverse, IUseBI=4.
 Leave Link  716 at Sun Feb 22 06:25:48 2015, MaxMem=   524288000 cpu:         0.4
 (Enter /opt/g09/l103.exe)

 GradGradGradGradGradGradGradGradGradGradGradGradGradGradGradGradGradGrad
 Berny optimization.
 Red2BG is reusing G-inverse.
 Internal  Forces:  Max     0.000006982 RMS     0.000001068
 Search for a local minimum.
 Step number   1 out of a maximum of  187
 All quantities printed in internal units (Hartrees-Bohrs-Radians)
 RMS Force = .10682D-05 SwitMx=.10000D-02 MixMth= 2
 Mixed Optimization -- En-DIIS/RFO-DIIS
 Second derivative matrix not updated -- analytic derivatives used.
 ITU=  0
     Eigenvalues ---    0.00129   0.00149   0.00182   0.00201   0.00211
     Eigenvalues ---    0.00240   0.00255   0.00310   0.00317   0.00341
     Eigenvalues ---    0.03024   0.03121   0.03241   0.03397   0.03534
     Eigenvalues ---    0.03696   0.03775   0.03801   0.03819   0.03829
     Eigenvalues ---    0.03840   0.03883   0.03930   0.03937   0.04057
     Eigenvalues ---    0.04070   0.04525   0.04528   0.04956   0.06269
     Eigenvalues ---    0.06762   0.06878   0.06926   0.07041   0.07186
     Eigenvalues ---    0.07247   0.07391   0.07434   0.09198   0.09552
     Eigenvalues ---    0.09790   0.10352   0.10808   0.11972   0.12058
     Eigenvalues ---    0.12410   0.12798   0.13084   0.13315   0.13615
[...]
 056436,0.00032219,0.00073320,-0.00047076,-0.00047733,0.00000703,-0.000
 00493,0.00001036,0.00000165,0.00000048,-0.00000014,0.06588938,-0.00004
 313,0.00001315,-0.00008478,0.00007816,-0.00007902,0.00012455,-0.000337
 45,-0.00057572,0.00035343,0.00004232,-0.00002245,0.00003749,0.00212564
 ,0.00126739,-0.00121413,-0.00001795,-0.00000068,-0.00002031,0.00226799
 ,-0.00821459,0.00449036,0.00000625,0.00000516,0.00000378,0.04224830,-0
 .24934908,0.07729047,-0.00000573,-0.00000337,0.00000059,-0.01151439,-0
 .02561368,-0.00204535,0.00001671,0.00000462,0.00000653,-0.00000900,0.0
 0000938,0.00000100,-0.00000710,0.00002996,-0.00002214,-0.00000583,0.00
 001320,0.00000427,0.00023468,-0.00011911,-0.00007743,0.00005234,0.0000
 3059,0.00000237,-0.00000152,0.00000259,-0.00000122,-0.00000208,0.00000
 878,-0.00001090,-0.00005287,0.00016319,-0.00002399,-0.00024630,0.00031
 960,-0.00003962,0.00001517,-0.00000971,-0.00001704,0.00000673,0.000001
 82,0.00000798,-0.00036715,0.00003175,-0.00045532,0.00062482,0.00062484
 ,0.00020191,-0.00000621,0.00000349,-0.00000914,0.00000071,0.00000286,0
 .00000234,-0.03736539,0.28166429,0.00002624,0.00000586,0.00004259,-0.0
 0015641,0.00002596,0.00002607,0.00025704,-0.00038396,0.00055302,-0.000
 02220,0.00000618,-0.00001186,0.00114585,0.00023186,-0.00044584,0.00000
 718,0.00000157,0.00000771,0.00325375,-0.01023701,0.00319686,-0.0000033
 3,-0.00000372,0.00000009,-0.01523155,0.08046437,-0.08366740,0.00000198
 ,0.00000228,-0.00000097,-0.00114829,-0.02003501,0.00695847,-0.00000326
 ,-0.00000332,-0.00000100,-0.00000660,0.00000985,-0.00000438,0.00001337
 ,0.00001263,-0.00002054,0.00000323,0.00000250,-0.00000472,0.00015808,-
 0.00006383,-0.00005435,-0.00001554,-0.00000817,-0.00000822,0.00000095,
 0.00000062,0.00000119,0.00000201,0.00000092,-0.00000267,0.00017693,-0.
 00032995,0.00053641,-0.00007044,0.00009051,0.00000077,-0.00000536,0.00
 000286,0.00000516,-0.00000138,-0.00000053,-0.00000207,-0.00062707,-0.0
 0030176,0.00068090,-0.00070635,0.00040430,0.00030071,0.00000162,-0.000
 00107,0.00000214,0.00000033,0.,-0.00000015,0.01817819,-0.07990022,0.08
 260355,0.00004970,0.00010409,-0.00014503,-0.00006552,-0.00018968,0.000
 23127,-0.00008550,-0.00021531,-0.00007796,0.00000505,-0.00001995,-0.00
 001507,0.00159004,-0.00153843,0.00082184,0.00001149,0.00000491,-0.0000
 0366,-0.00309206,0.00011611,0.03170401,-0.00000911,-0.00000460,0.00000
 208,-0.05107858,0.00169200,0.02402823,0.00000226,0.00000290,-0.0000012
 4,-0.00626547,-0.00951539,-0.03058899,-0.00000971,-0.00001034,0.000008
 48,-0.00006747,0.00003907,0.00000923,0.00008459,0.00015478,-0.00023777
 ,0.00001357,0.00002287,-0.00000400,0.00001957,0.00002783,-0.00004372,0
 .00003630,-0.00002577,0.00002602,0.00000314,0.00000393,0.00000216,0.00
 000550,0.00000483,-0.00001062,-0.00002441,0.00037754,-0.00094970,-0.00
 007743,0.00021835,-0.00006649,-0.00000492,0.00000285,0.00000681,-0.000
 00025,0.00000037,-0.00000247,-0.00564204,0.00238623,0.00167553,0.00080
 193,-0.00050516,-0.00065214,0.00000316,-0.00000276,0.00000361,0.000001
 57,0.00000146,0.00000068,0.00267336,0.00179923,-0.00622991,0.05962540,
 0.00000285,-0.00002958,0.00007535,-0.00002622,-0.00002282,-0.00008833,
 0.00002527,0.00011057,0.00017016,-0.00002258,0.00000299,-0.00000834,-0
 .00055636,0.00048331,-0.00169794,0.00000405,0.00000104,0.00000885,0.00
 214993,0.00070965,-0.00965942,-0.00000181,-0.00000225,-0.00000197,0.00
 032226,-0.05271625,0.01449871,0.00000109,0.00000077,-0.00000046,-0.007
 18388,-0.00438917,-0.02909380,0.00000407,-0.00000005,-0.00000144,0.000
 01812,-0.00000814,-0.00000742,-0.00002539,-0.00003067,0.00007116,0.000
 00105,0.00001897,0.00000193,-0.00002509,0.00001238,0.00001059,-0.00002
 557,-0.00000886,-0.00000276,0.00000169,0.00000464,0.00000196,-0.000001
 52,-0.00000183,0.00000195,0.00009325,0.00007015,0.00043080,-0.00007387
 ,0.00002913,-0.00002015,-0.00000517,0.00000216,0.00000447,0.00000073,0
 .00000011,-0.00000129,0.00159459,0.00020228,-0.00104540,-0.00008725,0.
 00019465,0.00025970,0.00000131,-0.00000052,0.00000237,0.00000056,0.000
 00077,-0.00000009,-0.00254188,-0.00014990,0.02938596,0.00502781,0.0551
 5051,-0.00001537,-0.00002076,0.00011263,-0.00020227,0.00020116,-0.0001
 2615,0.00016102,-0.00003717,0.00044623,-0.00001830,0.00001729,-0.00000
 102,-0.00124150,0.00078859,0.00059746,-0.00001071,-0.00000286,0.000010
 60,0.00208915,0.00098782,-0.01019326,0.00000674,0.00000403,-0.00000518
 ,0.02231061,0.01081530,-0.28266823,-0.00000359,-0.00000413,0.00000168,
 -0.01028666,-0.00919078,-0.01185526,0.00001650,0.00000781,-0.00000404,
 0.00002929,-0.00002222,-0.00000040,-0.00003113,-0.00009998,0.00008844,
 0.00000630,0.00001139,0.00001091,0.00007150,-0.00006700,-0.00001027,0.
 00001722,0.00002401,-0.00004002,0.00000059,0.00000780,0.00000101,-0.00
 000514,-0.00001216,0.00000966,0.00047817,-0.00098343,0.00067052,-0.000
 01294,0.00004513,0.00003876,0.00000130,-0.00000216,-0.00000339,0.00000
 521,0.00000127,0.00000210,0.00187204,-0.00012848,0.00088938,0.00082208
 ,0.00009990,0.00008889,-0.00000301,0.00000167,-0.00000063,0.00000011,0
 .00000143,0.00000052,0.00242886,0.00196367,-0.01089020,-0.01849428,-0.
 00367176,0.31261487,-0.00007214,0.00004262,-0.00024784,0.00003778,-0.0
 0000075,0.00013408,-0.00005452,0.00000867,-0.00003514,0.00031458,0.001
 89032,-0.00079443,0.00001681,0.00000047,0.00002493,-0.00582810,-0.0001
 7963,0.00305903,-0.00001154,-0.00000468,-0.00000301,-0.00597598,0.0278
 8554,-0.01268072,0.00002151,0.00000164,-0.00000074,-0.05778806,0.04991
 805,-0.02113195,-0.00002204,-0.00000438,-0.00000057,0.00001189,0.00001
 763,0.00001929,0.00001698,-0.00005366,0.00006233,0.00002077,-0.0000259
 3,-0.00000328,-0.00000627,-0.00000330,-0.00000971,0.00000067,-0.000007
 25,0.00001440,0.00000347,0.00000389,0.00000513,0.00003924,-0.00010913,
 -0.00004438,-0.00065132,0.00027478,0.00013912,-0.00001652,0.00000973,0
 .00001604,-0.00000080,0.00000014,-0.00000598,-0.00000732,-0.00038158,0
 .00001131,0.00016805,0.00023498,0.00023419,0.00000664,-0.00000409,0.00
 000654,0.00000183,-0.00000004,-0.00000060,0.00127561,-0.00039955,0.000
 18834,0.00085104,-0.00055150,-0.00073580,-0.00000539,0.00000381,-0.000
 00208,-0.00000389,-0.00000126,0.00000436,0.06338499,0.00008829,-0.0000
 4860,0.00014722,-0.00005143,0.00001099,-0.00010325,0.00005085,-0.00002
 024,0.00004384,-0.00037995,-0.00037241,0.00057118,-0.00001715,0.000001
 86,-0.00002292,0.00258012,0.00079041,-0.00144550,0.00001300,0.00000518
 ,0.00000243,0.00013610,-0.00727866,0.00301433,-0.00002546,-0.00000072,
 0.00000380,0.05066948,-0.25686280,0.08807709,0.00002657,0.00000397,-0.
 00000154,-0.00001511,-0.00001035,-0.00000554,-0.00000376,0.00003371,-0
 .00002301,-0.00000859,0.00000837,0.00000247,0.00000472,0.00000250,0.00
 000634,-0.00000018,0.00001040,-0.00000952,-0.00000405,-0.00000520,-0.0
 0000522,0.00011302,0.00001589,-0.00001062,0.00026545,-0.00012246,-0.00
 006439,0.00001838,-0.00001134,-0.00002009,-0.00000016,-0.00000033,0.00
 000657,-0.00013975,0.00012654,-0.00000185,-0.00013138,0.00047994,-0.00
 001971,-0.00000769,0.00000475,-0.00000863,-0.00000236,-0.00000022,0.00
 000161,-0.00003145,0.00003559,-0.00053907,0.00032792,0.00068312,0.0000
 3162,0.00000631,-0.00000498,0.00000262,0.00000454,0.00000159,-0.000006
 64,-0.05718459,0.27850464,-0.00015677,0.00001891,0.00006461,0.00001991
 ,0.00000962,0.00002125,-0.00001272,0.00000343,-0.00000508,0.00032333,-
 0.00045701,0.00069748,0.00000433,0.00000114,0.00000346,0.00169938,-0.0
 0012342,-0.00059478,-0.00000315,-0.00000146,0.00000198,0.00216170,-0.0
 1085916,0.00318645,0.00000773,0.00000183,0.00000020,-0.02154675,0.0884
 4469,-0.08335983,-0.00000830,-0.00000172,-0.00000212,-0.00000084,-0.00
 000346,-0.00000922,0.00001125,0.00002268,-0.00003250,-0.00000915,0.000
 01275,-0.00000347,-0.00000479,-0.00000402,0.00000065,0.00000241,0.0000
 0276,-0.00000422,-0.00000015,-0.00000161,-0.00000055,0.00000929,-0.000
 00479,-0.00000264,0.00020988,-0.00007630,-0.00005178,-0.00000239,0.000
 00141,0.00000235,-0.00000061,-0.00000046,-0.00000083,0.00018041,-0.000
 24823,0.00049788,0.00001048,0.00025768,-0.00010037,0.00000102,-0.00000
 013,0.00000042,0.00000023,-0.00000032,-0.00000030,-0.00058671,-0.00022
 474,0.00045345,-0.00057491,0.00033850,0.00014339,-0.00000192,0.0000012
 2,-0.00000065,-0.00000066,-0.00000070,0.00000046,0.02202052,-0.0967684
 7,0.08704780,-0.00001164,-0.00011060,0.00002852,0.00001352,0.00002820,
 -0.00001482,-0.00000840,-0.00001309,-0.00000914,0.00008188,0.00030629,
 0.00020521,0.00000265,0.00000119,0.00000224,0.00115221,-0.00187888,-0.
 00024503,-0.00000447,-0.00000437,-0.00000191,-0.02237183,-0.01992600,-
 0.00986876,-0.00000211,-0.00000491,-0.00000299,-0.16818102,-0.11519098
 ,-0.05563448,0.00000216,0.00000703,0.00000250,0.00000741,0.00008619,0.
 00003451,-0.00000333,-0.00000290,-0.00009689,-0.00001293,0.00001225,0.
 00000047,0.00002729,-0.00000417,0.00000353,-0.00000229,-0.00000073,-0.
 00000641,0.00000356,0.00001375,0.00000665,0.00038645,-0.00001340,0.000
 03453,0.00000353,0.00012524,0.00003166,-0.00000420,0.00000203,0.000004
 59,0.00000589,0.00000118,-0.00000055,-0.00004010,0.00010963,-0.0000586
 2,0.00013775,0.00126193,-0.00000036,0.00000091,-0.00000246,0.00000166,
 0.00000201,0.00000372,0.00000193,0.00125217,-0.00012684,0.00027326,-0.
 00504044,0.00263660,0.00246568,-0.00000184,0.00000354,-0.00000083,-0.0
 0000054,-0.00000009,0.00000242,0.00509679,0.00478474,0.00298951,0.1868
 4678,-0.00006395,-0.00000441,-0.00003486,0.00001575,0.00000250,0.00003
 274,-0.00002093,0.00000007,-0.00001636,0.00021356,0.00014951,0.0000054
 5,0.00000584,0.00000025,0.00000832,0.00054159,0.00138664,0.00038930,-0
 .00000564,-0.00000382,-0.00000182,0.00735273,0.00620776,0.00377828,0.0
 0000506,-0.00000273,-0.00000313,-0.11567331,-0.15488667,-0.05190105,-0
 .00000509,0.00000301,0.00000232,0.00000856,0.00001260,-0.00000814,-0.0
 0000193,-0.00000105,-0.00000024,-0.00000099,0.00000039,-0.00000017,0.0
 0000133,0.00000002,0.00000042,-0.00000120,-0.00000360,0.00000074,0.000
 00342,0.00000675,0.00000278,-0.00002469,-0.00016431,-0.00001858,-0.000
 08701,0.00000932,-0.00000298,-0.00000718,0.00000379,0.00000780,0.00000
 239,0.00000081,-0.00000186,-0.00004412,-0.00004531,0.00003080,-0.00029
 640,0.00016700,-0.00028228,0.00000248,-0.00000218,0.00000327,0.0000016
 9,0.00000175,0.00000029,-0.00073609,0.00032412,0.00043469,0.00247687,0
 .00029691,-0.00020268,-0.00000245,0.00000314,-0.00000120,-0.00000140,-
 0.00000056,0.00000323,-0.02011818,-0.01840825,-0.01010180,0.12643248,0
 .16628640,-0.00000700,-0.00001630,0.00003250,-0.00000044,0.00000647,-0
 .00002313,0.00000350,-0.00000618,0.00000379,0.00006530,0.00021390,-0.0
 0003996,0.00000104,0.00000005,-0.00000345,-0.00038354,0.00012416,0.000
 02711,-0.00000177,-0.00000168,0.00000130,0.00793574,0.00735106,0.00298
 601,0.00000072,-0.00000095,0.00000050,-0.05589817,-0.05186137,-0.07191
 092,-0.00000057,0.00000225,-0.00000159,0.00000017,-0.00002346,-0.00000
 089,0.00002682,0.00002732,-0.00001182,-0.00000964,0.00000561,-0.000000
 56,-0.00000871,0.00000048,-0.00000002,0.00000236,0.00000559,-0.0000024
 5,0.00000032,-0.00000391,-0.00000018,0.00001184,-0.00003054,-0.0000408
 8,-0.00006642,-0.00000341,-0.00000747,0.00000095,-0.00000019,-0.000000
 93,-0.00000077,0.00000039,0.00000024,-0.00010185,-0.00014547,-0.000066
 74,-0.00023739,0.00003338,0.00016563,-0.00000040,-0.00000025,-0.000001
 08,0.00000060,0.00000028,0.00000103,-0.00031152,0.00069878,0.00049183,
 0.00243705,-0.00067141,0.00033802,-0.00000107,0.00000145,-0.00000024,0
 .00000015,-0.00000010,-0.00000044,0.00965168,0.00820107,0.00346677,0.0
 5957635,0.05791192,0.07405446,-0.00006846,-0.00016279,0.00020592,0.000
 04837,0.00010245,-0.00013730,0.00000747,-0.00001578,-0.00001216,-0.000
 04969,-0.00025020,-0.00010163,0.00000802,0.00000302,-0.00000438,0.0013
 7932,-0.00131523,0.00099097,-0.00000819,-0.00000259,0.00000218,-0.0019
 5211,0.00231065,0.03200692,0.00000974,0.00000171,0.00000069,-0.0460718
 4,0.00010127,0.00859070,-0.00000963,-0.00000079,-0.00000322,0.00001232
 ,0.00001209,-0.00000936,0.00007912,0.00013598,-0.00021005,-0.00006149,
 0.00003332,0.00001184,-0.00001057,-0.00000885,0.00000630,0.00000499,0.
 00000328,-0.00000812,0.00000140,0.00000190,0.00000035,-0.00002862,-0.0
 0002284,0.00002341,0.00001530,-0.00000582,-0.00004953,-0.00000303,0.00
 000206,0.00000458,0.00000015,0.00000003,-0.00000116,0.00006578,0.00039
 123,-0.00086427,-0.00002942,0.00006969,-0.00015127,0.00000293,-0.00000
 188,0.00000237,0.00000100,0.00000052,0.00000010,-0.00563448,0.00231162
 ,0.00188356,0.00128241,-0.00067336,-0.00032033,-0.00000316,0.00000233,
 -0.00000064,-0.00000165,-0.00000071,0.00000094,-0.00082833,-0.00108191
 ,-0.00674306,0.00066172,0.00002557,-0.02268547,0.05117913,-0.00005303,
 0.00000547,-0.00007876,-0.00000001,-0.00002825,0.00008066,-0.00001764,
 0.00000903,-0.00000275,0.00010056,0.00004410,0.00019772,0.00000118,0.0
 0000046,0.00000699,-0.00048683,0.00057090,-0.00145958,0.00000005,0.000
 00011,-0.00000114,0.00014669,-0.00143303,-0.00936059,0.00000316,0.0000
 0138,-0.00000045,0.00019313,-0.04770527,-0.01380077,-0.00000346,-0.000
 00254,0.00000073,0.00000079,0.00000631,-0.00000133,-0.00003180,-0.0000
 3598,0.00009294,0.00002291,-0.00001282,-0.00000833,0.00000267,0.000000
 63,-0.00000271,-0.00000124,-0.00000287,0.00000399,-0.00000006,0.000001
 69,0.00000043,-0.00004798,-0.00001184,-0.00000762,0.00000735,-0.000013
 44,0.00000588,-0.00000289,0.00000114,0.00000215,-0.00000015,-0.0000005
 9,-0.00000069,0.00024736,-0.00004527,0.00048075,0.00001060,-0.00003231
 ,-0.00005593,0.00000085,0.00000028,0.00000101,-0.00000024,-0.00000035,
 -0.00000074,0.00193739,0.00012126,-0.00052784,-0.00026220,0.00021596,0
 .00065730,-0.00000008,-0.00000051,-0.00000028,-0.00000057,-0.00000021,
 0.00000073,-0.00126547,0.00243021,0.02976054,0.00146476,-0.00133974,-0
 .02181804,-0.00196640,0.04725502,-0.00014992,0.00020308,-0.00011659,-0
 .00002240,-0.00002267,0.00009238,-0.00000884,0.00001621,0.00000554,0.0
 0012842,-0.00010226,0.00040911,-0.00001131,-0.00000109,0.00000644,-0.0
 0080263,0.00065833,0.00058484,0.00001220,0.00000380,-0.00000507,0.0006
 3780,-0.00041322,-0.01003679,-0.00002139,-0.00000089,-0.00000153,0.009
 18637,-0.01412001,-0.30124421,0.00002276,-0.00000025,0.00000782,0.0000
 0424,0.00000077,0.00000701,-0.00003471,-0.00009723,0.00009306,0.000030
 24,-0.00002215,0.00000007,0.00001274,0.00000663,-0.00000423,-0.0000047
 1,-0.00001015,0.00000898,-0.00000086,0.00000358,-0.00000128,0.00000585
 ,0.00002000,-0.00003482,0.00008504,-0.00007766,-0.00000834,0.00000425,
 -0.00000386,-0.00000677,0.00000084,0.00000002,0.00000179,0.00035636,-0
 .00080509,0.00053970,0.00001078,-0.00000042,-0.00004495,-0.00000417,0.
 00000234,-0.00000196,-0.00000188,-0.00000010,-0.00000013,0.00219451,-0
 .00026542,0.00117366,0.00041538,0.00028742,0.00060922,0.00000663,-0.00
 000606,0.00000193,0.00000237,0.00000175,-0.00000147,0.00010463,-0.0010
 5689,-0.01142091,0.00027544,-0.00003478,-0.00945731,-0.01243011,0.0158
 3619,0.32884829,-0.00002054,-0.00000031,-0.00002556,0.00006045,0.00000
 076,0.00001923,-0.00012443,-0.00003317,-0.00000274,0.00002033,-0.00000
 071,0.00001572,0.00063073,-0.00054669,0.00004220,-0.00000895,0.0000001
 3,-0.00000631,-0.00321210,-0.00546783,-0.00351464,0.00000572,0.0000061
 2,0.00000228,-0.02348861,0.01201087,0.01124096,-0.00000300,-0.00000251
 ,0.00000126,-0.43716288,0.11090764,0.12697261,0.00000615,0.00000100,0.
 00000079,0.00000392,-0.00000371,0.00000211,-0.00001505,-0.00000915,0.0
 0000216,-0.00000752,0.00001022,0.00000758,0.00005271,-0.00001053,0.000
 00781,0.00007469,0.00004668,0.00000817,-0.00000283,-0.00000208,-0.0000
 0219,-0.00000131,-0.00000081,0.00000028,-0.00009446,0.00007094,-0.0000
 8658,0.00003350,0.00010278,0.00005287,0.00000786,-0.00000422,-0.000009
 12,0.00000059,-0.00000072,0.00000302,0.00062481,-0.00013231,-0.0002373
 9,-0.00142771,0.00082678,0.00048891,-0.00000281,0.00000217,-0.00000481
 ,-0.00000158,-0.00000099,0.00000010,0.00148362,0.00045339,0.00100450,0
 .00150190,0.00133004,0.00000050,0.00000355,-0.00000453,0.00000147,0.00
 000046,0.00000127,0.00000015,0.00000147,0.00000060,-0.00000392,0.46106
 131,-0.00000742,0.00000762,-0.00000025,-0.00000885,0.00000582,-0.00000
 514,0.00004718,0.00016155,0.00012881,0.00000900,0.00000973,0.00000429,
 0.00017988,-0.00025868,-0.00023391,-0.00000465,-0.00000123,-0.00000241
 ,-0.00254443,-0.00366472,-0.00193887,0.00000573,0.00000602,-0.00000032
 ,-0.02886996,0.00442996,0.00722594,-0.00000058,-0.00000226,0.00000049,
 0.15248965,-0.07200657,-0.06844891,0.00000387,-0.00000214,-0.00000157,
 0.00000754,-0.00000813,0.00000481,-0.00001511,-0.00001961,-0.00000007,
 -0.00000804,0.00002562,-0.00000001,0.00003248,0.00000010,0.00001331,0.
 00012347,-0.00004549,-0.00001698,-0.00000303,-0.00000114,-0.00000346,-
 0.00000095,-0.00000664,0.00000384,0.00011669,0.00007064,0.00017184,-0.
 00004436,0.00057510,-0.00013558,0.00000265,-0.00000085,-0.00000096,-0.
 00000178,-0.00000170,0.00000019,0.00015769,-0.00014691,0.00007063,-0.0
 0131864,0.00056674,0.00016971,-0.00000011,0.00000128,0.00000120,-0.000
 00250,-0.00000263,-0.00000246,-0.00083379,-0.00005703,0.00061917,0.000
 03769,0.00036516,-0.00073270,0.00000269,-0.00000311,0.00000063,-0.0000
 0133,-0.00000012,-0.00000088,0.00000041,0.00000108,0.00000003,-0.11955
 112,0.07000254,-0.00000919,0.00001304,-0.00001639,0.00003764,-0.000040
 19,0.00001382,-0.00003652,0.00005237,-0.00006410,0.00001715,-0.0000113
 7,0.00002121,-0.00009169,-0.00010608,0.00019236,-0.00000207,0.00000129
 ,-0.00001040,-0.00156694,-0.00173075,-0.00155085,0.00000101,0.00000026
 ,0.00000556,-0.01968549,0.00311428,0.00267990,-0.00000126,0.00000070,0
 .00000038,0.15882057,-0.06439269,-0.06611932,0.00000594,-0.00000192,0.
 00000030,-0.00000270,0.00000405,-0.00000167,-0.00000582,0.00000653,-0.
 00001004,-0.00000363,0.00001621,0.00000912,-0.00001213,0.00002313,0.00
 000536,0.00003641,0.00001898,0.00000379,-0.00000215,-0.00000527,0.0000
 0008,-0.00000007,0.00000946,-0.00000506,-0.00003494,0.00003248,-0.0001
 0031,-0.00008716,0.00013676,-0.00003851,0.00000663,-0.00000311,-0.0000
 0848,-0.00000098,-0.00000051,0.00000265,-0.00009507,-0.00009962,0.0002
 9696,-0.00066484,0.00004186,0.00077099,-0.00000218,0.00000119,-0.00000
 641,-0.00000052,-0.00000034,0.00000128,0.00035856,-0.00056578,0.000197
 67,-0.00099876,0.00037565,0.00021582,0.00000029,0.00000065,0.00000065,
 0.00000012,-0.00000042,0.00000089,0.00000123,-0.00000045,-0.00000347,-
 0.13598143,0.06310961,0.06351621\\0.00000008,0.00000034,-0.00000021,-0
 .00000007,-0.00000023,0.00000012,0.00000037,0.00000016,0.00000012,-0.0
 0000037,-0.00000003,-0.00000021,0.00000028,-0.00000041,0.00000050,-0.0
 0000028,0.00000053,-0.00000061,-0.00000058,-0.00000076,0.00000019,0.00
 000063,0.00000090,-0.00000030,-0.00000067,-0.00000131,0.00000056,0.000
 00066,0.00000143,-0.00000066,-0.00000047,-0.00000193,0.00000123,-0.000
 00011,0.00000086,-0.00000074,0.00000075,0.00000064,0.00000002,-0.00000
 072,-0.00000048,-0.00000012,0.00000017,-0.00000068,0.00000065,0.000001
 03,0.00000046,0.00000035,0.00000016,0.00000065,-0.00000039,-0.00000011
 ,-0.00000048,0.00000030,-0.00000100,-0.00000030,-0.00000045,0.00000069
 ,-0.00000008,0.00000054,0.00000052,-0.00000086,0.00000103,-0.00000066,
 0.00000023,-0.00000064,-0.00000047,0.00000103,-0.00000112,-0.00000100,
 -0.00000111,0.00000018,-0.00000081,-0.00000029,-0.00000033,0.00000102,
 0.00000126,-0.00000027,0.00000085,0.00000045,0.00000023,-0.00000128,-0
 .00000148,0.00000029,-0.00000023,-0.00000096,0.00000059,0.00000129,0.0
 0000169,-0.00000043,0.00000046,0.00000193,-0.00000118,0.00000028,0.000
 00111,-0.00000068,-0.00000041,-0.00000228,0.00000145\\\@


 MARY HAD A LITTLE LAMB
      HIS FEET WERE BLACK AS SOOT,
           AND EVERYWHERE THAT MARY WENT
                HIS SOOTY FOOT HE PUT.

                    -- NONAME
 Job cpu time:       0 days  4 hours 43 minutes 50.5 seconds.
 File lengths (MBytes):  RWF=    412 Int=      0 D2E=      0 Chk=     11 Scr=      1
 Normal termination of Gaussian 09 at Sun Feb 22 07:36:51 2015.
