 Entering Gaussian System, Link 0=g09
 Input=freq-b971_12075-35-3.gau
 Output=freq-b971_12075-35-3.log
 Initial command:
 /opt/g09/l1.exe "/scratch/pb556/g09_run/add_hco//Gau-10474.inp" -scrdir="/scratch/pb556/g09_run/add_hco//"
 Entering Link 1 = /opt/g09/l1.exe PID=     10483.
  
 Copyright (c) 1988,1990,1992,1993,1995,1998,2003,2009,2013,
            Gaussian, Inc.  All Rights Reserved.
  
 This is part of the Gaussian(R) 09 program.  It is based on
 the Gaussian(R) 03 system (copyright 2003, Gaussian, Inc.),
 the Gaussian(R) 98 system (copyright 1998, Gaussian, Inc.),
 the Gaussian(R) 94 system (copyright 1995, Gaussian, Inc.),
 the Gaussian 92(TM) system (copyright 1992, Gaussian, Inc.),
 the Gaussian 90(TM) system (copyright 1990, Gaussian, Inc.),
 the Gaussian 88(TM) system (copyright 1988, Gaussian, Inc.),
 the Gaussian 86(TM) system (copyright 1986, Carnegie Mellon
 University), and the Gaussian 82(TM) system (copyright 1983,
 Carnegie Mellon University). Gaussian is a federally registered
 trademark of Gaussian, Inc.
  
 This software contains proprietary and confidential information,
 including trade secrets, belonging to Gaussian, Inc.
  
 This software is provided under written license and may be
 used, copied, transmitted, or stored only in accord with that
 written license.
  
 The following legend is applicable only to US Government
 contracts under FAR:
  
                    RESTRICTED RIGHTS LEGEND
  
 Use, reproduction and disclosure by the US Government is
 subject to restrictions as set forth in subparagraphs (a)
 and (c) of the Commercial Computer Software - Restricted
 Rights clause in FAR 52.227-19.
  
 Gaussian, Inc.
 340 Quinnipiac St., Bldg. 40, Wallingford CT 06492
  
  
 ---------------------------------------------------------------
 Warning -- This program may not be used in any manner that
 competes with the business of Gaussian, Inc. or will provide
 assistance to any competitor of Gaussian, Inc.  The licensee
 of this program is prohibited from giving any competitor of
 Gaussian, Inc. access to this program.  By using this program,
 the user acknowledges that Gaussian, Inc. is engaged in the
 business of creating and licensing software in the field of
 computational chemistry and represents and warrants to the
 licensee that it is not a competitor of Gaussian, Inc. and that
 it will not use this program in any manner prohibited above.
 ---------------------------------------------------------------
  

 Cite this work as:
 Gaussian 09, Revision D.01,
 M. J. Frisch, G. W. Trucks, H. B. Schlegel, G. E. Scuseria, 
 M. A. Robb, J. R. Cheeseman, G. Scalmani, V. Barone, B. Mennucci, 
 G. A. Petersson, H. Nakatsuji, M. Caricato, X. Li, H. P. Hratchian, 
 A. F. Izmaylov, J. Bloino, G. Zheng, J. L. Sonnenberg, M. Hada, 
 M. Ehara, K. Toyota, R. Fukuda, J. Hasegawa, M. Ishida, T. Nakajima, 
 Y. Honda, O. Kitao, H. Nakai, T. Vreven, J. A. Montgomery, Jr., 
 J. E. Peralta, F. Ogliaro, M. Bearpark, J. J. Heyd, E. Brothers, 
 K. N. Kudin, V. N. Staroverov, T. Keith, R. Kobayashi, J. Normand, 
 K. Raghavachari, A. Rendell, J. C. Burant, S. S. Iyengar, J. Tomasi, 
 M. Cossi, N. Rega, J. M. Millam, M. Klene, J. E. Knox, J. B. Cross, 
 V. Bakken, C. Adamo, J. Jaramillo, R. Gomperts, R. E. Stratmann, 
 O. Yazyev, A. J. Austin, R. Cammi, C. Pomelli, J. W. Ochterski, 
 R. L. Martin, K. Morokuma, V. G. Zakrzewski, G. A. Voth, 
 P. Salvador, J. J. Dannenberg, S. Dapprich, A. D. Daniels, 
 O. Farkas, J. B. Foresman, J. V. Ortiz, J. Cioslowski, 
 and D. J. Fox, Gaussian, Inc., Wallingford CT, 2013.
 
 ******************************************
 Gaussian 09:  ES64L-G09RevD.01 24-Apr-2013
                23-Feb-2015 
 ******************************************
 %NProcShared=8
 Will use up to    8 processors via shared memory.
 %Mem=500MW
 ----------------------------------------------------------------------
 #p rB971/6-311+G(d,p) Opt=(Tight, CalcAll) Freq GFInput Population=Non
 e Integral(Grid=UltraFine) Guess=MIX NoSymmetry
 ----------------------------------------------------------------------
 1/7=10,10=4,14=-1,18=20,19=15,26=4,38=1/1,3;
 2/9=110,12=2,15=1,17=6,18=5,40=1/2;
 3/5=4,6=6,7=111,11=2,16=1,24=10,25=1,30=1,71=2,74=-20,75=-5,116=1,140=1/1,2,3;
 4/13=-1/1;
 5/5=2,38=5/2;
 8/6=4,10=90,11=11/1;
 11/6=1,8=1,9=11,15=111,16=1,31=1/1,2,10;
 10/6=1,31=1/2;
 7/10=1,25=1,30=1/1,2,3,16;
 1/7=10,10=4,14=-1,18=20,19=15,26=4/3(3);
 2/9=110,15=1/2;
 7/8=1,9=1,25=1,30=1,44=-1/16;
 99//99;
 2/9=110,15=1/2;
 3/5=4,6=6,7=111,11=2,16=1,25=1,30=1,71=2,74=-20,75=-5,116=1,140=1/1,2,3;
 4/5=5,16=3,69=1/1;
 5/5=2,38=5/2;
 8/6=4,10=90,11=11/1;
 11/6=1,8=1,9=11,15=111,16=1,31=1/1,2,10;
 10/6=1,31=1/2;
 7/10=1,25=1,30=1/1,2,3,16;
 1/7=10,10=4,14=-1,18=20,19=15,26=4/3(-8);
 2/9=110,15=1/2;
 7/8=1,9=1,25=1,30=1,44=-1/16;
 99//99;
 Leave Link    1 at Mon Feb 23 09:59:52 2015, MaxMem=   524288000 cpu:         0.5
 (Enter /opt/g09/l101.exe)
 ------------------------
 freq-b971_12075-35-3.gau
 ------------------------
 Symbolic Z-matrix:
 Charge =  0 Multiplicity = 1
 C                    -0.00973  -0.00093   0.00141 
 C                     1.27997   0.1221    0.0007 
 C                     2.56966   0.24513  -0.00001 
 
 NAtoms=      3 NQM=        3 NQMF=       0 NMMI=      0 NMMIF=      0
                NMic=       0 NMicF=      0.
                    Isotopes and Nuclear Properties:
 (Nuclear quadrupole moments (NQMom) in fm**2, nuclear magnetic moments (NMagM)
  in nuclear magnetons)

  Atom         1           2           3
 IAtWgt=          12          12          12
 AtmWgt=  12.0000000  12.0000000  12.0000000
 NucSpn=           0           0           0
 AtZEff=   0.0000000   0.0000000   0.0000000
 NQMom=    0.0000000   0.0000000   0.0000000
 NMagM=    0.0000000   0.0000000   0.0000000
 AtZNuc=   6.0000000   6.0000000   6.0000000
 Leave Link  101 at Mon Feb 23 09:59:52 2015, MaxMem=   524288000 cpu:         1.9
 (Enter /opt/g09/l103.exe)

 GradGradGradGradGradGradGradGradGradGradGradGradGradGradGradGradGradGrad
 Berny optimization.
 Initialization pass.
                           ----------------------------
                           !    Initial Parameters    !
                           ! (Angstroms and Degrees)  !
 --------------------------                            --------------------------
 ! Name  Definition              Value          Derivative Info.                !
 --------------------------------------------------------------------------------
 ! R1    R(1,2)                  1.2956         calculate D2E/DX2 analytically  !
 ! R2    R(2,3)                  1.2955         calculate D2E/DX2 analytically  !
 ! A1    L(1,2,3,-3,-1)        180.0            calculate D2E/DX2 analytically  !
 ! A2    L(1,2,3,-2,-2)        180.0            calculate D2E/DX2 analytically  !
 --------------------------------------------------------------------------------
 Trust Radius=3.00D-01 FncErr=1.00D-07 GrdErr=1.00D-06
 Number of steps in this run=     20 maximum allowed number of steps=    100.
 GradGradGradGradGradGradGradGradGradGradGradGradGradGradGradGradGradGrad

 Leave Link  103 at Mon Feb 23 09:59:52 2015, MaxMem=   524288000 cpu:         0.1
 (Enter /opt/g09/l202.exe)
                          Input orientation:                          
 ---------------------------------------------------------------------
 Center     Atomic      Atomic             Coordinates (Angstroms)
 Number     Number       Type             X           Y           Z
 ---------------------------------------------------------------------
      1          6           0       -0.009730   -0.000930    0.001410
      2          6           0        1.279970    0.122100    0.000700
      3          6           0        2.569660    0.245130   -0.000010
 ---------------------------------------------------------------------
                    Distance matrix (angstroms):
                    1          2          3
     1  C    0.000000
     2  C    1.295555   0.000000
     3  C    2.591100   1.295545   0.000000
 Symmetry turned off by external request.
 Stoichiometry    C3
 Framework group  C*V[C*(CCC)]
 Deg. of freedom     2
 Full point group                 C*V     NOp   4
 Rotational constants (GHZ):      0.0000000     12.5457759     12.5457759
 Leave Link  202 at Mon Feb 23 09:59:52 2015, MaxMem=   524288000 cpu:         0.0
 (Enter /opt/g09/l301.exe)
 Standard basis: 6-311+G(d,p) (5D, 7F)
 Ernie: Thresh=  0.10000D-02 Tol=  0.10000D-05 Strict=F.
 AO basis set in the form of general basis input (Overlap normalization):
      1 0
 S   6 1.00       0.000000000000
      0.4563240000D+04  0.1966650249D-02
      0.6820240000D+03  0.1523060193D-01
      0.1549730000D+03  0.7612690966D-01
      0.4445530000D+02  0.2608010331D+00
      0.1302900000D+02  0.6164620782D+00
      0.1827730000D+01  0.2210060280D+00
 SP   3 1.00       0.000000000000
      0.2096420000D+02  0.1146600807D+00  0.4024869267D-01
      0.4803310000D+01  0.9199996477D+00  0.2375939567D+00
      0.1459330000D+01 -0.3030682134D-02  0.8158538515D+00
 SP   1 1.00       0.000000000000
      0.4834560000D+00  0.1000000000D+01  0.1000000000D+01
 SP   1 1.00       0.000000000000
      0.1455850000D+00  0.1000000000D+01  0.1000000000D+01
 SP   1 1.00       0.000000000000
      0.4380000000D-01  0.1000000000D+01  0.1000000000D+01
 D   1 1.00       0.000000000000
      0.6260000000D+00  0.1000000000D+01
 ****
      2 0
 S   6 1.00       0.000000000000
      0.4563240000D+04  0.1966650249D-02
      0.6820240000D+03  0.1523060193D-01
      0.1549730000D+03  0.7612690966D-01
      0.4445530000D+02  0.2608010331D+00
      0.1302900000D+02  0.6164620782D+00
      0.1827730000D+01  0.2210060280D+00
 SP   3 1.00       0.000000000000
      0.2096420000D+02  0.1146600807D+00  0.4024869267D-01
      0.4803310000D+01  0.9199996477D+00  0.2375939567D+00
      0.1459330000D+01 -0.3030682134D-02  0.8158538515D+00
 SP   1 1.00       0.000000000000
      0.4834560000D+00  0.1000000000D+01  0.1000000000D+01
 SP   1 1.00       0.000000000000
      0.1455850000D+00  0.1000000000D+01  0.1000000000D+01
 SP   1 1.00       0.000000000000
      0.4380000000D-01  0.1000000000D+01  0.1000000000D+01
 D   1 1.00       0.000000000000
      0.6260000000D+00  0.1000000000D+01
 ****
      3 0
 S   6 1.00       0.000000000000
      0.4563240000D+04  0.1966650249D-02
      0.6820240000D+03  0.1523060193D-01
      0.1549730000D+03  0.7612690966D-01
      0.4445530000D+02  0.2608010331D+00
      0.1302900000D+02  0.6164620782D+00
      0.1827730000D+01  0.2210060280D+00
 SP   3 1.00       0.000000000000
      0.2096420000D+02  0.1146600807D+00  0.4024869267D-01
      0.4803310000D+01  0.9199996477D+00  0.2375939567D+00
      0.1459330000D+01 -0.3030682134D-02  0.8158538515D+00
 SP   1 1.00       0.000000000000
      0.4834560000D+00  0.1000000000D+01  0.1000000000D+01
 SP   1 1.00       0.000000000000
      0.1455850000D+00  0.1000000000D+01  0.1000000000D+01
 SP   1 1.00       0.000000000000
      0.4380000000D-01  0.1000000000D+01  0.1000000000D+01
 D   1 1.00       0.000000000000
      0.6260000000D+00  0.1000000000D+01
 ****

    66 basis functions,   108 primitive gaussians,    69 cartesian basis functions
     9 alpha electrons        9 beta electrons
       nuclear repulsion energy        36.7611785455 Hartrees.
 IExCor= 1614 DFT=T Ex+Corr=B971 ExCW=0 ScaHFX=  0.210000
 ScaDFX=  1.000000  1.000000  1.000000  1.000000 ScalE2=  1.000000  1.000000
 IRadAn=      5 IRanWt=     -1 IRanGd=            0 ICorTp=0 IEmpDi=  4
 NAtoms=    3 NActive=    3 NUniq=    3 SFac= 1.00D+00 NAtFMM=   60 NAOKFM=F Big=F
 Integral buffers will be    131072 words long.
 Raffenetti 2 integral format.
 Two-electron integral symmetry is turned off.
 Leave Link  301 at Mon Feb 23 09:59:52 2015, MaxMem=   524288000 cpu:         0.4
 (Enter /opt/g09/l302.exe)
 NPDir=0 NMtPBC=     1 NCelOv=     1 NCel=       1 NClECP=     1 NCelD=      1
         NCelK=      1 NCelE2=     1 NClLst=     1 CellRange=     0.0.
 One-electron integrals computed using PRISM.
 NBasis=    66 RedAO= T EigKep=  3.36D-06  NBF=    66
 NBsUse=    66 1.00D-06 EigRej= -1.00D+00 NBFU=    66
 Precomputing XC quadrature grid using
 IXCGrd= 4 IRadAn=           5 IRanWt=          -1 IRanGd=           0 AccXCQ= 0.00D+00.
 Generated NRdTot=       0 NPtTot=           0 NUsed=           0 NTot=          32
 NSgBfM=    69    69    69    69    69 MxSgAt=     3 MxSgA2=     3.
 Leave Link  302 at Mon Feb 23 09:59:52 2015, MaxMem=   524288000 cpu:         1.3
 (Enter /opt/g09/l303.exe)
 DipDrv:  MaxL=1.
 Leave Link  303 at Mon Feb 23 09:59:52 2015, MaxMem=   524288000 cpu:         0.3
 (Enter /opt/g09/l401.exe)
 ExpMin= 4.38D-02 ExpMax= 4.56D+03 ExpMxC= 6.82D+02 IAcc=3 IRadAn=         5 AccDes= 0.00D+00
 Harris functional with IExCor= 1614 and IRadAn=       5 diagonalized for initial guess.
 HarFok:  IExCor= 1614 AccDes= 0.00D+00 IRadAn=         5 IDoV= 1 UseB2=F ITyADJ=14
 ICtDFT=  3500011 ScaDFX=  1.000000  1.000000  1.000000  1.000000
 FoFCou: FMM=F IPFlag=           0 FMFlag=      100000 FMFlg1=           0
         NFxFlg=           0 DoJE=T BraDBF=F KetDBF=T FulRan=T
         wScrn=  0.000000 ICntrl=     500 IOpCl=  0 I1Cent=   200000004 NGrid=           0
         NMat0=    1 NMatS0=      1 NMatT0=    0 NMatD0=    1 NMtDS0=    0 NMtDT0=    0
 Symmetry not used in FoFCou.
 Harris En= -110.883389432012    
 JPrj=0 DoOrth=F DoCkMO=T.
 Mixing orbitals, IMix= 1 IMixAn=  0 NRI=1 NE=    9 Coef=  7.07106781D-01  7.07106781D-01
 Leave Link  401 at Mon Feb 23 09:59:52 2015, MaxMem=   524288000 cpu:         1.6
 (Enter /opt/g09/l502.exe)
 Closed shell SCF:
 Using DIIS extrapolation, IDIIS=  1040.
 Two-electron integral symmetry not used.
 Keep R1 ints in memory in canonical form, NReq=3371201.
 IVT=       33805 IEndB=       33805 NGot=   524288000 MDV=   521808830
 LenX=   521808830 LenY=   521803628
 Requested convergence on RMS density matrix=1.00D-08 within 128 cycles.
 Requested convergence on MAX density matrix=1.00D-06.
 Requested convergence on             energy=1.00D-06.
 No special actions if energy rises.
 FoFCou: FMM=F IPFlag=           0 FMFlag=           0 FMFlg1=           0
         NFxFlg=           0 DoJE=F BraDBF=F KetDBF=F FulRan=T
         wScrn=  0.000000 ICntrl=     600 IOpCl=  0 I1Cent=           0 NGrid=           0
         NMat0=    1 NMatS0=   2211 NMatT0=    0 NMatD0=    1 NMtDS0=    0 NMtDT0=    0
 Symmetry not used in FoFCou.

 Cycle   1  Pass 1  IDiag  1:
 E= -113.843775269749    
 DIIS: error= 8.53D-02 at cycle   1 NSaved=   1.
 NSaved= 1 IEnMin= 1 EnMin= -113.843775269749     IErMin= 1 ErrMin= 8.53D-02
 ErrMax= 8.53D-02  0.00D+00 EMaxC= 1.00D-01 BMatC= 2.48D-01 BMatP= 2.48D-01
 IDIUse=3 WtCom= 1.47D-01 WtEn= 8.53D-01
 Coeff-Com:  0.100D+01
 Coeff-En:   0.100D+01
 Coeff:      0.100D+01
 Gap=     0.009 Goal=   None    Shift=    0.000
 GapD=    0.009 DampG=0.250 DampE=0.500 DampFc=0.2500 IDamp=-1.
 Damping current iteration by 2.50D-01
 RMSDP=2.38D-02 MaxDP=3.64D-01              OVMax= 6.64D-01

 Cycle   2  Pass 1  IDiag  1:
 E= -113.893492863474     Delta-E=       -0.049717593725 Rises=F Damp=T
 DIIS: error= 6.08D-02 at cycle   2 NSaved=   2.
 NSaved= 2 IEnMin= 2 EnMin= -113.893492863474     IErMin= 2 ErrMin= 6.08D-02
 ErrMax= 6.08D-02  0.00D+00 EMaxC= 1.00D-01 BMatC= 1.21D-01 BMatP= 2.48D-01
 IDIUse=3 WtCom= 3.92D-01 WtEn= 6.08D-01
 Coeff-Com: -0.183D+01 0.283D+01
 Coeff-En:   0.000D+00 0.100D+01
 Coeff:     -0.719D+00 0.172D+01
 Gap=     0.149 Goal=   None    Shift=    0.000
 RMSDP=1.61D-02 MaxDP=2.31D-01 DE=-4.97D-02 OVMax= 9.94D-02

 Cycle   3  Pass 1  IDiag  1:
 E= -114.035710389791     Delta-E=       -0.142217526317 Rises=F Damp=F
 DIIS: error= 7.11D-03 at cycle   3 NSaved=   3.
 NSaved= 3 IEnMin= 3 EnMin= -114.035710389791     IErMin= 3 ErrMin= 7.11D-03
 ErrMax= 7.11D-03  0.00D+00 EMaxC= 1.00D-01 BMatC= 4.13D-03 BMatP= 1.21D-01
 IDIUse=3 WtCom= 9.29D-01 WtEn= 7.11D-02
 Coeff-Com: -0.210D+00 0.369D+00 0.842D+00
 Coeff-En:   0.000D+00 0.000D+00 0.100D+01
 Coeff:     -0.195D+00 0.343D+00 0.853D+00
 Gap=     0.167 Goal=   None    Shift=    0.000
 RMSDP=6.13D-03 MaxDP=1.34D-01 DE=-1.42D-01 OVMax= 2.67D-02

 Cycle   4  Pass 1  IDiag  1:
 E= -114.039470213149     Delta-E=       -0.003759823358 Rises=F Damp=F
 DIIS: error= 3.45D-03 at cycle   4 NSaved=   4.
 NSaved= 4 IEnMin= 4 EnMin= -114.039470213149     IErMin= 4 ErrMin= 3.45D-03
 ErrMax= 3.45D-03  0.00D+00 EMaxC= 1.00D-01 BMatC= 5.54D-04 BMatP= 4.13D-03
 IDIUse=3 WtCom= 9.65D-01 WtEn= 3.45D-02
 Coeff-Com:  0.586D-01-0.730D-01 0.243D+00 0.772D+00
 Coeff-En:   0.000D+00 0.000D+00 0.000D+00 0.100D+01
 Coeff:      0.565D-01-0.705D-01 0.235D+00 0.779D+00
 Gap=     0.172 Goal=   None    Shift=    0.000
 RMSDP=1.44D-03 MaxDP=3.28D-02 DE=-3.76D-03 OVMax= 2.73D-02

 Cycle   5  Pass 1  IDiag  1:
 E= -114.040246150347     Delta-E=       -0.000775937199 Rises=F Damp=F
 DIIS: error= 1.43D-03 at cycle   5 NSaved=   5.
 NSaved= 5 IEnMin= 5 EnMin= -114.040246150347     IErMin= 5 ErrMin= 1.43D-03
 ErrMax= 1.43D-03  0.00D+00 EMaxC= 1.00D-01 BMatC= 7.06D-05 BMatP= 5.54D-04
 IDIUse=3 WtCom= 9.86D-01 WtEn= 1.43D-02
 Coeff-Com:  0.247D-01-0.359D-01-0.100D-01 0.250D+00 0.771D+00
 Coeff-En:   0.000D+00 0.000D+00 0.000D+00 0.000D+00 0.100D+01
 Coeff:      0.244D-01-0.354D-01-0.989D-02 0.247D+00 0.774D+00
 Gap=     0.173 Goal=   None    Shift=    0.000
 RMSDP=3.15D-04 MaxDP=5.98D-03 DE=-7.76D-04 OVMax= 4.27D-03

 Cycle   6  Pass 1  IDiag  1:
 E= -114.040335670577     Delta-E=       -0.000089520230 Rises=F Damp=F
 DIIS: error= 2.62D-04 at cycle   6 NSaved=   6.
 NSaved= 6 IEnMin= 6 EnMin= -114.040335670577     IErMin= 6 ErrMin= 2.62D-04
 ErrMax= 2.62D-04  0.00D+00 EMaxC= 1.00D-01 BMatC= 2.81D-06 BMatP= 7.06D-05
 IDIUse=3 WtCom= 9.97D-01 WtEn= 2.62D-03
 Coeff-Com:  0.921D-02-0.130D-01-0.147D-01 0.146D-01 0.106D+00 0.898D+00
 Coeff-En:   0.000D+00 0.000D+00 0.000D+00 0.000D+00 0.000D+00 0.100D+01
 Coeff:      0.918D-02-0.130D-01-0.146D-01 0.146D-01 0.105D+00 0.899D+00
 Gap=     0.173 Goal=   None    Shift=    0.000
 RMSDP=1.52D-04 MaxDP=3.49D-03 DE=-8.95D-05 OVMax= 2.52D-03

 Cycle   7  Pass 1  IDiag  1:
 E= -114.040325759530     Delta-E=        0.000009911047 Rises=F Damp=F
 DIIS: error= 7.84D-04 at cycle   7 NSaved=   7.
 NSaved= 7 IEnMin= 6 EnMin= -114.040335670577     IErMin= 6 ErrMin= 2.62D-04
 ErrMax= 7.84D-04  0.00D+00 EMaxC= 1.00D-01 BMatC= 1.27D-05 BMatP= 2.81D-06
 IDIUse=3 WtCom= 9.97D-01 WtEn= 2.62D-03
 Coeff-Com:  0.484D-02-0.669D-02-0.109D-01-0.263D-01-0.365D-01 0.788D+00
 Coeff-Com:  0.287D+00
 Coeff-En:   0.000D+00 0.000D+00 0.000D+00 0.000D+00 0.000D+00 0.732D+00
 Coeff-En:   0.268D+00
 Coeff:      0.483D-02-0.667D-02-0.109D-01-0.262D-01-0.364D-01 0.788D+00
 Coeff:      0.287D+00
 Gap=     0.173 Goal=   None    Shift=    0.000
 RMSDP=7.16D-05 MaxDP=1.08D-03 DE= 9.91D-06 OVMax= 1.99D-03

 Cycle   8  Pass 1  IDiag  1:
 E= -114.040341768292     Delta-E=       -0.000016008762 Rises=F Damp=F
 DIIS: error= 5.66D-05 at cycle   8 NSaved=   8.
 NSaved= 8 IEnMin= 8 EnMin= -114.040341768292     IErMin= 8 ErrMin= 5.66D-05
 ErrMax= 5.66D-05  0.00D+00 EMaxC= 1.00D-01 BMatC= 1.22D-07 BMatP= 2.81D-06
 IDIUse=1 WtCom= 1.00D+00 WtEn= 0.00D+00
 Coeff-Com:  0.113D-02-0.161D-02-0.203D-02-0.134D-01-0.377D-01 0.189D+00
 Coeff-Com:  0.121D+00 0.743D+00
 Coeff:      0.113D-02-0.161D-02-0.203D-02-0.134D-01-0.377D-01 0.189D+00
 Coeff:      0.121D+00 0.743D+00
 Gap=     0.173 Goal=   None    Shift=    0.000
 RMSDP=3.03D-05 MaxDP=7.43D-04 DE=-1.60D-05 OVMax= 1.86D-04

 Cycle   9  Pass 1  IDiag  1:
 E= -114.040341926493     Delta-E=       -0.000000158201 Rises=F Damp=F
 DIIS: error= 3.89D-06 at cycle   9 NSaved=   9.
 NSaved= 9 IEnMin= 9 EnMin= -114.040341926493     IErMin= 9 ErrMin= 3.89D-06
 ErrMax= 3.89D-06  0.00D+00 EMaxC= 1.00D-01 BMatC= 9.42D-10 BMatP= 1.22D-07
 IDIUse=1 WtCom= 1.00D+00 WtEn= 0.00D+00
 Coeff-Com: -0.691D-04 0.104D-03 0.349D-03 0.360D-03-0.161D-02-0.599D-02
 Coeff-Com:  0.387D-02 0.916D-01 0.911D+00
 Coeff:     -0.691D-04 0.104D-03 0.349D-03 0.360D-03-0.161D-02-0.599D-02
 Coeff:      0.387D-02 0.916D-01 0.911D+00
 Gap=     0.173 Goal=   None    Shift=    0.000
 RMSDP=2.48D-06 MaxDP=3.63D-05 DE=-1.58D-07 OVMax= 1.56D-05

 Cycle  10  Pass 1  IDiag  1:
 E= -114.040341927650     Delta-E=       -0.000000001157 Rises=F Damp=F
 DIIS: error= 7.81D-07 at cycle  10 NSaved=  10.
 NSaved=10 IEnMin=10 EnMin= -114.040341927650     IErMin=10 ErrMin= 7.81D-07
 ErrMax= 7.81D-07  0.00D+00 EMaxC= 1.00D-01 BMatC= 2.64D-11 BMatP= 9.42D-10
 IDIUse=1 WtCom= 1.00D+00 WtEn= 0.00D+00
 Coeff-Com:  0.107D-05-0.362D-06 0.467D-04 0.103D-03-0.164D-03-0.339D-02
 Coeff-Com: -0.133D-02-0.216D-02 0.632D-01 0.944D+00
 Coeff:      0.107D-05-0.362D-06 0.467D-04 0.103D-03-0.164D-03-0.339D-02
 Coeff:     -0.133D-02-0.216D-02 0.632D-01 0.944D+00
 Gap=     0.173 Goal=   None    Shift=    0.000
 RMSDP=3.54D-07 MaxDP=4.19D-06 DE=-1.16D-09 OVMax= 4.13D-06

 Cycle  11  Pass 1  IDiag  1:
 E= -114.040341927686     Delta-E=       -0.000000000036 Rises=F Damp=F
 DIIS: error= 6.61D-08 at cycle  11 NSaved=  11.
 NSaved=11 IEnMin=11 EnMin= -114.040341927686     IErMin=11 ErrMin= 6.61D-08
 ErrMax= 6.61D-08  0.00D+00 EMaxC= 1.00D-01 BMatC= 2.65D-13 BMatP= 2.64D-11
 IDIUse=1 WtCom= 1.00D+00 WtEn= 0.00D+00
 Coeff-Com:  0.284D-05-0.387D-05-0.193D-05 0.760D-05 0.506D-04 0.512D-04
 Coeff-Com: -0.791D-04-0.144D-02-0.133D-01 0.610D-01 0.954D+00
 Coeff:      0.284D-05-0.387D-05-0.193D-05 0.760D-05 0.506D-04 0.512D-04
 Coeff:     -0.791D-04-0.144D-02-0.133D-01 0.610D-01 0.954D+00
 Gap=     0.173 Goal=   None    Shift=    0.000
 RMSDP=7.78D-08 MaxDP=1.41D-06 DE=-3.61D-11 OVMax= 4.65D-07

 Cycle  12  Pass 1  IDiag  1:
 E= -114.040341927686     Delta-E=       -0.000000000001 Rises=F Damp=F
 DIIS: error= 8.35D-09 at cycle  12 NSaved=  12.
 NSaved=12 IEnMin=12 EnMin= -114.040341927686     IErMin=12 ErrMin= 8.35D-09
 ErrMax= 8.35D-09  0.00D+00 EMaxC= 1.00D-01 BMatC= 1.51D-15 BMatP= 2.65D-13
 IDIUse=1 WtCom= 1.00D+00 WtEn= 0.00D+00
 Coeff-Com: -0.247D-06 0.325D-06-0.714D-06-0.125D-05 0.339D-05 0.350D-04
 Coeff-Com:  0.754D-05-0.687D-04-0.110D-02-0.666D-02 0.390D-01 0.969D+00
 Coeff:     -0.247D-06 0.325D-06-0.714D-06-0.125D-05 0.339D-05 0.350D-04
 Coeff:      0.754D-05-0.687D-04-0.110D-02-0.666D-02 0.390D-01 0.969D+00
 Gap=     0.173 Goal=   None    Shift=    0.000
 RMSDP=9.44D-09 MaxDP=2.03D-07 DE=-5.12D-13 OVMax= 3.66D-08

 SCF Done:  E(RB971) =  -114.040341928     A.U. after   12 cycles
            NFock= 12  Conv=0.94D-08     -V/T= 2.0031
 KE= 1.136823505901D+02 PE=-3.381888484134D+02 EE= 7.370497735010D+01
 Leave Link  502 at Mon Feb 23 09:59:54 2015, MaxMem=   524288000 cpu:        11.9
 (Enter /opt/g09/l801.exe)
 DoSCS=F DFT=T ScalE2(SS,OS)=  1.000000  1.000000
 Range of M.O.s used for correlation:     1    66
 NBasis=    66 NAE=     9 NBE=     9 NFC=     0 NFV=     0
 NROrb=     66 NOA=     9 NOB=     9 NVA=    57 NVB=    57

 **** Warning!!: The largest alpha MO coefficient is  0.24197367D+03

 Leave Link  801 at Mon Feb 23 09:59:54 2015, MaxMem=   524288000 cpu:         0.3
 (Enter /opt/g09/l1101.exe)
 Using compressed storage, NAtomX=     3.
 Will process      4 centers per pass.
 Leave Link 1101 at Mon Feb 23 09:59:54 2015, MaxMem=   524288000 cpu:         1.1
 (Enter /opt/g09/l1102.exe)
 Symmetrizing basis deriv contribution to polar:
 IMax=3 JMax=2 DiffMx= 0.00D+00
 Leave Link 1102 at Mon Feb 23 09:59:54 2015, MaxMem=   524288000 cpu:         0.3
 (Enter /opt/g09/l1110.exe)
 Forming Gx(P) for the SCF density, NAtomX=     3.
 Integral derivatives from FoFJK, PRISM(SPDF).
 Do as many integral derivatives as possible in FoFJK.
 G2DrvN: MDV=     524287872.
 G2DrvN: will do     4 centers at a time, making    1 passes.
 Calling FoFCou, ICntrl=  3107 FMM=F I1Cent=   0 AccDes= 0.00D+00.
 FoFJK:  IHMeth= 1 ICntrl=    3107 DoSepK=F KAlg= 0 I1Cent=   0 FoldK=F
 IRaf=         0 NMat=   1 IRICut=       1 DoRegI=T DoRafI=F ISym2E= 0.
 FoFCou: FMM=F IPFlag=           0 FMFlag=      100000 FMFlg1=           0
         NFxFlg=           0 DoJE=F BraDBF=F KetDBF=F FulRan=T
         wScrn=  0.000000 ICntrl=    3107 IOpCl=  0 I1Cent=           0 NGrid=           0
         NMat0=    1 NMatS0=      1 NMatT0=    0 NMatD0=    1 NMtDS0=    0 NMtDT0=    0
 Symmetry not used in FoFCou.
 End of G2Drv F.D. properties file   721 does not exist.
 End of G2Drv F.D. properties file   722 does not exist.
 End of G2Drv F.D. properties file   788 does not exist.
 Leave Link 1110 at Mon Feb 23 09:59:56 2015, MaxMem=   524288000 cpu:        10.5
 (Enter /opt/g09/l1002.exe)
 Minotr:  Closed shell wavefunction.
          IDoAtm=111
          Direct CPHF calculation.
          Differentiating once with respect to electric field.
                with respect to dipole field.
          Differentiating once with respect to nuclear coordinates.
          Requested convergence is 1.0D-08 RMS, and 1.0D-07 maximum.
          Secondary convergence is 1.0D-12 RMS, and 1.0D-12 maximum.
          NewPWx=T KeepS1=F KeepF1=F KeepIn=T MapXYZ=F SortEE=F KeepMc=T.
          MDV=     524287900 using IRadAn=       1.
 Generate precomputed XC quadrature information.
 Keep R1 ints in memory in canonical form, NReq=3335656.
 FoFCou: FMM=F IPFlag=           0 FMFlag=           0 FMFlg1=           0
         NFxFlg=           0 DoJE=F BraDBF=F KetDBF=F FulRan=T
         wScrn=  0.000000 ICntrl=     600 IOpCl=  0 I1Cent=           0 NGrid=           0
         NMat0=    1 NMatS0=   2211 NMatT0=    0 NMatD0=    1 NMtDS0=    0 NMtDT0=    0
 Symmetry not used in FoFCou.
          Solving linear equations simultaneously, MaxMat=       0.
          There are    12 degrees of freedom in the 1st order CPHF.  IDoFFX=6 NUNeed=     3.
      9 vectors produced by pass  0 Test12= 4.27D-15 8.33D-09 XBig12= 1.34D+02 7.98D+00.
 AX will form     9 AO Fock derivatives at one time.
      9 vectors produced by pass  1 Test12= 4.27D-15 8.33D-09 XBig12= 8.68D+01 4.24D+00.
      9 vectors produced by pass  2 Test12= 4.27D-15 8.33D-09 XBig12= 4.88D-01 2.66D-01.
      9 vectors produced by pass  3 Test12= 4.27D-15 8.33D-09 XBig12= 1.14D-03 9.31D-03.
      9 vectors produced by pass  4 Test12= 4.27D-15 8.33D-09 XBig12= 1.04D-06 2.23D-04.
      9 vectors produced by pass  5 Test12= 4.27D-15 8.33D-09 XBig12= 1.40D-09 1.24D-05.
      7 vectors produced by pass  6 Test12= 4.27D-15 8.33D-09 XBig12= 1.85D-11 1.64D-06.
      2 vectors produced by pass  7 Test12= 4.27D-15 8.33D-09 XBig12= 6.66D-14 1.06D-07.
 InvSVY:  IOpt=1 It=  1 EMax= 1.11D-15
 Solved reduced A of dimension    63 with     9 vectors.
 FullF1:  Do perturbations    1 to     3.
 Isotropic polarizability for W=    0.000000       31.23 Bohr**3.
 End of Minotr F.D. properties file   721 does not exist.
 End of Minotr F.D. properties file   722 does not exist.
 End of Minotr F.D. properties file   788 does not exist.
 Leave Link 1002 at Mon Feb 23 09:59:58 2015, MaxMem=   524288000 cpu:        16.4
 (Enter /opt/g09/l701.exe)
 Compute integral second derivatives.
 ... and contract with generalized density number  0.
 Leave Link  701 at Mon Feb 23 09:59:58 2015, MaxMem=   524288000 cpu:         1.8
 (Enter /opt/g09/l702.exe)
 L702 exits ... SP integral derivatives will be done elsewhere.
 Leave Link  702 at Mon Feb 23 09:59:58 2015, MaxMem=   524288000 cpu:         0.3
 (Enter /opt/g09/l703.exe)
 Compute integral second derivatives, UseDBF=F ICtDFT=           0.
 Integral derivatives from FoFJK, PRISM(SPDF).
 Calling FoFJK, ICntrl=    100127 FMM=F ISym2X=0 I1Cent= 0 IOpClX= 0 NMat=1 NMatS=1 NMatT=0.
 FoFJK:  IHMeth= 1 ICntrl=  100127 DoSepK=F KAlg= 0 I1Cent=   0 FoldK=F
 IRaf=         0 NMat=   1 IRICut=       1 DoRegI=T DoRafI=F ISym2E= 0.
 FoFCou: FMM=F IPFlag=           0 FMFlag=      100000 FMFlg1=         800
         NFxFlg=           0 DoJE=F BraDBF=F KetDBF=F FulRan=T
         wScrn=  0.000000 ICntrl=  100127 IOpCl=  0 I1Cent=           0 NGrid=           0
         NMat0=    1 NMatS0=      1 NMatT0=    0 NMatD0=    1 NMtDS0=    0 NMtDT0=    0
 Symmetry not used in FoFCou.
 Leave Link  703 at Mon Feb 23 10:00:01 2015, MaxMem=   524288000 cpu:        25.9
 (Enter /opt/g09/l716.exe)
 Dipole        =-2.52503920D-05-2.68960079D-06 1.55141949D-08
 Polarizability= 5.03895291D+01 2.75366954D+00 2.17806914D+01
                -1.58880939D-02-1.51486862D-03 2.15191066D+01
 -------------------------------------------------------------------
 Center     Atomic                   Forces (Hartrees/Bohr)
 Number     Number              X              Y              Z
 -------------------------------------------------------------------
      1        6           0.000003914    0.000000386   -0.000000002
      2        6          -0.000012846   -0.000001222    0.000000007
      3        6           0.000008932    0.000000835   -0.000000005
 -------------------------------------------------------------------
 Cartesian Forces:  Max     0.000012846 RMS     0.000005400
 Force constants in Cartesian coordinates: 
                1             2             3             4             5 
      1  0.677356D+00
      2  0.644910D-01  0.758825D-02
      3 -0.371539D-03 -0.355356D-04  0.143496D-02
      4 -0.679782D+00 -0.645837D-01  0.372080D-03  0.135960D+01
      5 -0.645837D-01 -0.903809D-02  0.355879D-04  0.129172D+00  0.180714D-01
      6  0.372080D-03  0.355879D-04 -0.287320D-02 -0.744186D-03 -0.711787D-04
      7  0.242610D-02  0.927077D-04  0.000000D+00 -0.679821D+00 -0.645884D-01
      8  0.927186D-04  0.144984D-02  0.000000D+00 -0.645884D-01 -0.903334D-02
      9  0.000000D+00  0.000000D+00  0.143825D-02  0.372107D-03  0.355907D-04
                6             7             8             9 
      6  0.574117D-02
      7  0.372107D-03  0.677394D+00
      8  0.355907D-04  0.644957D-01  0.758350D-02
      9 -0.286796D-02 -0.371565D-03 -0.355384D-04  0.142971D-02
 FormGI is forming the generalized inverse of G from B-inverse, IUseBI=4.
 Force constants in internal coordinates: 
                1             2             3             4 
      1  0.683509D+00
      2 -0.243483D-02  0.683548D+00
      3  0.132228D-04 -0.132116D-04  0.861481D-02
      4  0.000000D+00  0.000000D+00  0.000000D+00  0.852779D-02
 Leave Link  716 at Mon Feb 23 10:00:01 2015, MaxMem=   524288000 cpu:         0.3
 (Enter /opt/g09/l103.exe)

 GradGradGradGradGradGradGradGradGradGradGradGradGradGradGradGradGradGrad
 Berny optimization.
 Red2BG is reusing G-inverse.
 Internal  Forces:  Max     0.000008971 RMS     0.000004898
 Search for a local minimum.
 Step number   1 out of a maximum of   20
 All quantities printed in internal units (Hartrees-Bohrs-Radians)
 RMS Force = .48976D-05 SwitMx=.10000D-02 MixMth= 2
 Mixed Optimization -- En-DIIS/RFO-DIIS
 Second derivative matrix not updated -- analytic derivatives used.
 The second derivative matrix:
                          R1        R2        A1        A2
           R1           0.68351
           R2          -0.00243   0.68355
           A1           0.00001  -0.00001   0.00861
           A2           0.00000   0.00000   0.00000   0.00853
 ITU=  0
     Eigenvalues ---    0.00853   0.00861   0.68109   0.68596
 RFO step:  Lambda= 0.00000000D+00 EMin= 8.52779274D-03
 Linear search not attempted -- first point.
 Iteration  1 RMS(Cart)=  0.00000465 RMS(Int)=  0.00000000
 SLEqS3 Cycle:    91 Max:0.769513E-11 RMS:0.315570E-11 Conv:0.252505E-14
 Iteration  2 RMS(Cart)=  0.00000000 RMS(Int)=  0.00000000
 ITry= 1 IFail=0 DXMaxC= 6.82D-06 DCOld= 1.00D+10 DXMaxT= 3.00D-01 DXLimC= 3.00D+00 Rises=F
 Variable       Old X    -DE/DX   Delta X   Delta X   Delta X     New X
                                 (Linear)    (Quad)   (Total)
    R1        2.44824   0.00000   0.00000  -0.00001  -0.00001   2.44824
    R2        2.44823   0.00001   0.00000   0.00001   0.00001   2.44824
    A1        3.14159   0.00000   0.00000   0.00000   0.00000   3.14159
    A2        3.14159   0.00000   0.00000   0.00000   0.00000   3.14159
         Item               Value     Threshold  Converged?
 Maximum Force            0.000009     0.000015     YES
 RMS     Force            0.000005     0.000010     YES
 Maximum Displacement     0.000007     0.000060     YES
 RMS     Displacement     0.000005     0.000040     YES
 Predicted change in Energy=-7.000207D-11
 Optimization completed.
    -- Stationary point found.
                           ----------------------------
                           !   Optimized Parameters   !
                           ! (Angstroms and Degrees)  !
 --------------------------                            --------------------------
 ! Name  Definition              Value          Derivative Info.                !
 --------------------------------------------------------------------------------
 ! R1    R(1,2)                  1.2956         -DE/DX =    0.0                 !
 ! R2    R(2,3)                  1.2955         -DE/DX =    0.0                 !
 ! A1    L(1,2,3,-3,-1)        180.0            -DE/DX =    0.0                 !
 ! A2    L(1,2,3,-2,-2)        180.0            -DE/DX =    0.0                 !
 --------------------------------------------------------------------------------
 Lowest energy point so far.  Saving SCF results.
 GradGradGradGradGradGradGradGradGradGradGradGradGradGradGradGradGradGrad

 Largest change from initial coordinates is atom    0       0.000 Angstoms.
 Leave Link  103 at Mon Feb 23 10:00:01 2015, MaxMem=   524288000 cpu:         0.0
 (Enter /opt/g09/l202.exe)
                          Input orientation:                          
 ---------------------------------------------------------------------
 Center     Atomic      Atomic             Coordinates (Angstroms)
 Number     Number       Type             X           Y           Z
 ---------------------------------------------------------------------
      1          6           0       -0.009730   -0.000930    0.001410
      2          6           0        1.279970    0.122100    0.000700
      3          6           0        2.569660    0.245130   -0.000010
 ---------------------------------------------------------------------
                    Distance matrix (angstroms):
                    1          2          3
     1  C    0.000000
     2  C    1.295555   0.000000
     3  C    2.591100   1.295545   0.000000
 Symmetry turned off by external request.
 Stoichiometry    C3
 Framework group  C*V[C*(CCC)]
 Deg. of freedom     2
 Full point group                 C*V     NOp   4
 Rotational constants (GHZ):      0.0000000     12.5457759     12.5457759
 Leave Link  202 at Mon Feb 23 10:00:01 2015, MaxMem=   524288000 cpu:         0.0
 (Enter /opt/g09/l716.exe)
 Dipole        =-2.52503920D-05-2.68960079D-06 1.55141949D-08
 Polarizability= 5.03895291D+01 2.75366954D+00 2.17806914D+01
                -1.58880939D-02-1.51486862D-03 2.15191066D+01
 Full mass-weighted force constant matrix:
 Low frequencies ---   -4.3804   -3.6698   -0.0003    0.0004    0.0006  137.7031
 Low frequencies ---  137.7786 1224.6646 2128.7508
 Molecule is linear but NTrRo=6 try Cut= 1.00D-08.
 Diagonal vibrational polarizability:
        5.3825471      17.1282615      17.2736808
 Harmonic frequencies (cm**-1), IR intensities (KM/Mole), Raman scattering
 activities (A**4/AMU), depolarization ratios for plane and unpolarized
 incident light, reduced masses (AMU), force constants (mDyne/A),
 and normal coordinates:
                      1                      2                      3
                      A                      A                      A
 Frequencies --    137.7031               137.7785              1224.6646
 Red. masses --     12.0000                12.0000                12.0000
 Frc consts  --      0.1341                 0.1342                10.6039
 IR Inten    --     12.1714                12.1589                 0.0000
  Atom  AN      X      Y      Z        X      Y      Z        X      Y      Z
     1   6     0.00   0.01   0.41    -0.04   0.41  -0.01     0.70   0.07   0.00
     2   6     0.00  -0.02  -0.82     0.08  -0.81   0.02     0.00   0.00   0.00
     3   6     0.00   0.01   0.41    -0.04   0.41  -0.01    -0.70  -0.07   0.00
                      4
                      A
 Frequencies --   2128.7508
 Red. masses --     12.0000
 Frc consts  --     32.0392
 IR Inten    --    888.0469
  Atom  AN      X      Y      Z
     1   6    -0.41  -0.04   0.00
     2   6     0.81   0.08   0.00
     3   6    -0.41  -0.04   0.00

 -------------------
 - Thermochemistry -
 -------------------
 Temperature   298.150 Kelvin.  Pressure   1.00000 Atm.
 Atom     1 has atomic number  6 and mass  12.00000
 Atom     2 has atomic number  6 and mass  12.00000
 Atom     3 has atomic number  6 and mass  12.00000
 Molecular mass:    36.00000 amu.
 Principal axes and moments of inertia in atomic units:
                           1         2         3
     Eigenvalues --     0.00000 143.85250 143.85250
           X            0.99548  -0.09497   0.00000
           Y            0.09496   0.99546   0.00580
           Z           -0.00055  -0.00577   0.99998
 This molecule is a prolate symmetric top.
 Rotational symmetry number  1.
 Rotational temperature (Kelvin)      0.60210
 Rotational constant (GHZ):          12.545776
 Zero-point vibrational energy      21705.6 (Joules/Mol)
                                    5.18777 (Kcal/Mol)
 Warning -- explicit consideration of   2 degrees of freedom as
           vibrations may cause significant error
 Vibrational temperatures:    198.12   198.23  1762.02  3062.79
          (Kelvin)
 
 Zero-point correction=                           0.008267 (Hartree/Particle)
 Thermal correction to Energy=                    0.011973
 Thermal correction to Enthalpy=                  0.012917
 Thermal correction to Gibbs Free Energy=        -0.014022
 Sum of electronic and zero-point Energies=           -114.032075
 Sum of electronic and thermal Energies=              -114.028369
 Sum of electronic and thermal Enthalpies=            -114.027425
 Sum of electronic and thermal Free Energies=         -114.054364
 
                     E (Thermal)             CV                S
                      KCal/Mol        Cal/Mol-Kelvin    Cal/Mol-Kelvin
 Total                    7.513              8.996             56.699
 Electronic               0.000              0.000              0.000
 Translational            0.889              2.981             36.673
 Rotational               0.592              1.987             14.318
 Vibrational              6.032              4.028              5.708
 Vibration     1          0.614              1.916              2.836
 Vibration     2          0.614              1.916              2.835
                       Q            Log10(Q)             Ln(Q)
 Total Bot       0.281651D+07          6.449712         14.851010
 Total V=0       0.178800D+11         10.252368         23.606950
 Vib (Bot)       0.669943D-03         -3.173962         -7.308318
 Vib (Bot)    1  0.147753D+01          0.169537          0.390373
 Vib (Bot)    2  0.147669D+01          0.169290          0.389805
 Vib (V=0)       0.425299D+01          0.628694          1.447622
 Vib (V=0)    1  0.205984D+01          0.313833          0.722628
 Vib (V=0)    2  0.205905D+01          0.313666          0.722242
 Electronic      0.100000D+01          0.000000          0.000000
 Translational   0.849002D+07          6.928909         15.954402
 Rotational      0.495182D+03          2.694765          6.204926
 
                                                       freq-b971_12075-35-3.gau
                                                             IR Spectrum
 
     2                                                     1                                                                         
     1                                                     2                                                                1        
     2                                                     2                                                                3        
     9                                                     5                                                                8        
 
     X                                                                                                                      X        
     X                                                                                                                               
     X                                                                                                                               
     X                                                                                                                               
     X                                                                                                                               
     X                                                                                                                               
     X                                                                                                                               
     X                                                                                                                               
     X                                                                                                                               
     X                                                                                                                               
     X                                                                                                                               
     X                                                                                                                               
     X                                                                                                                               
     X                                                                                                                               
     X                                                                                                                               
     X                                                                                                                               
     X                                                                                                                               
     X                                                                                                                               
     X                                                                                                                               
     X                                                                                                                               
 
 -------------------------------------------------------------------
 Center     Atomic                   Forces (Hartrees/Bohr)
 Number     Number              X              Y              Z
 -------------------------------------------------------------------
      1        6           0.000003914    0.000000386   -0.000000002
      2        6          -0.000012846   -0.000001222    0.000000007
      3        6           0.000008932    0.000000835   -0.000000005
 -------------------------------------------------------------------
 Cartesian Forces:  Max     0.000012846 RMS     0.000005400
 Force constants in Cartesian coordinates: 
                1             2             3             4             5 
      1  0.677356D+00
      2  0.644910D-01  0.758825D-02
      3 -0.371539D-03 -0.355356D-04  0.143496D-02
      4 -0.679782D+00 -0.645837D-01  0.372080D-03  0.135960D+01
      5 -0.645837D-01 -0.903809D-02  0.355879D-04  0.129172D+00  0.180714D-01
      6  0.372080D-03  0.355879D-04 -0.287320D-02 -0.744186D-03 -0.711787D-04
      7  0.242610D-02  0.927077D-04  0.000000D+00 -0.679821D+00 -0.645884D-01
      8  0.927186D-04  0.144984D-02  0.000000D+00 -0.645884D-01 -0.903334D-02
      9  0.000000D+00  0.000000D+00  0.143825D-02  0.372107D-03  0.355907D-04
                6             7             8             9 
      6  0.574117D-02
      7  0.372107D-03  0.677394D+00
      8  0.355907D-04  0.644957D-01  0.758350D-02
      9 -0.286796D-02 -0.371565D-03 -0.355384D-04  0.142971D-02
 Red2BG is reusing G-inverse.
 Force constants in internal coordinates: 
                1             2             3             4 
      1  0.683509D+00
      2 -0.243483D-02  0.683548D+00
      3  0.132228D-04 -0.132116D-04  0.861481D-02
      4  0.000000D+00  0.000000D+00  0.000000D+00  0.852779D-02
 Leave Link  716 at Mon Feb 23 10:00:02 2015, MaxMem=   524288000 cpu:         0.3
 (Enter /opt/g09/l9999.exe)
 1\1\GINC-ARP\Freq\RB971\6-311+G(d,p)\C3\PB556\23-Feb-2015\0\\#p rB971/
 6-311+G(d,p) Opt=(Tight, CalcAll) Freq GFInput Population=None Integra
 l(Grid=UltraFine) Guess=MIX NoSymmetry\\freq-b971_12075-35-3.gau\\0,1\
 C,-0.00973,-0.00093,0.00141\C,1.27997,0.1221,0.0007\C,2.56966,0.24513,
 -0.00001\\Version=ES64L-G09RevD.01\HF=-114.0403419\RMSD=9.438e-09\RMSF
 =5.400e-06\ZeroPoint=0.0082672\Thermal=0.011973\Dipole=-0.0000253,-0.0
 000027,0.\DipoleDeriv=1.3361563,0.1425263,-0.0008226,0.1425927,-0.1443
 295,-0.0000785,-0.0008234,-0.0000786,-0.1580127,-2.6723187,-0.285055,0
 .0016452,-0.2851881,0.2886702,0.0001571,0.0016468,0.0001572,0.316037,1
 .3361623,0.1425287,-0.0008226,0.1425955,-0.1443407,-0.0000785,-0.00082
 34,-0.0000786,-0.1580243\Polar=50.3895291,2.7536695,21.7806914,-0.0158
 881,-0.0015149,21.5191066\PG=C*V [C*(C1C1C1)]\NImag=0\\0.67735583,0.06
 449102,0.00758825,-0.00037154,-0.00003554,0.00143496,-0.67978193,-0.06
 458373,0.00037208,1.35960249,-0.06458374,-0.00903809,0.00003559,0.1291
 7216,0.01807143,0.00037208,0.00003559,-0.00287320,-0.00074419,-0.00007
 118,0.00574117,0.00242610,0.00009271,-0.00000054,-0.67982057,-0.064588
 42,0.00037211,0.67739447,0.00009272,0.00144984,-0.00000005,-0.06458843
 ,-0.00903334,0.00003559,0.06449571,0.00758350,-0.00000054,-0.00000005,
 0.00143825,0.00037211,0.00003559,-0.00286796,-0.00037157,-0.00003554,0
 .00142971\\-0.00000391,-0.00000039,0.,0.00001285,0.00000122,0.,-0.0000
 0893,-0.00000084,0.\\\@


 SUPPORT THE RIGHT TO ARM BEARS!
 (ADD A CLAWS TO THE BILL OF RIGHTS)
 Leave Link 9999 at Mon Feb 23 10:00:02 2015, MaxMem=   524288000 cpu:         0.3
 Job cpu time:       0 days  0 hours  1 minutes 15.7 seconds.
 File lengths (MBytes):  RWF=      5 Int=      0 D2E=      0 Chk=      1 Scr=      1
 Normal termination of Gaussian 09 at Mon Feb 23 10:00:02 2015.
 (Enter /opt/g09/l1.exe)
 Link1:  Proceeding to internal job step number  2.
 ----------------------------------------------------------------------
 #P Geom=AllCheck Guess=TCheck SCRF=Check GenChk RB971/6-311+G(d,p) Fre
 q
 ----------------------------------------------------------------------
 1/7=10,10=4,29=7,30=1,38=1,40=1/1,3;
 2/12=2,15=1,40=1/2;
 3/5=4,6=6,7=111,11=2,14=-4,16=1,24=10,25=1,30=1,70=2,71=2,74=-20,75=-5,116=1,140=1/1,2,3;
 4/5=101/1;
 5/5=2,98=1/2;
 8/6=4,10=90,11=11/1;
 11/6=1,8=1,9=11,15=111,16=1,31=1/1,2,10;
 10/6=1,31=1/2;
 7/8=1,10=1,25=1,30=1/1,2,3,16;
 1/7=10,10=4,30=1/3;
 99//99;
 Leave Link    1 at Mon Feb 23 10:00:02 2015, MaxMem=   524288000 cpu:         0.4
 (Enter /opt/g09/l101.exe)
 Structure from the checkpoint file:  "/scratch/pb556/g09_run/add_hco//Gau-10483.chk"
 ------------------------
 freq-b971_12075-35-3.gau
 ------------------------
 Charge =  0 Multiplicity = 1
 Redundant internal coordinates found in file.
 C,0,-0.00973,-0.00093,0.00141
 C,0,1.27997,0.1221,0.0007
 C,0,2.56966,0.24513,-0.00001
 Recover connectivity data from disk.
 NAtoms=      3 NQM=        3 NQMF=       0 NMMI=      0 NMMIF=      0
                NMic=       0 NMicF=      0.
                    Isotopes and Nuclear Properties:
 (Nuclear quadrupole moments (NQMom) in fm**2, nuclear magnetic moments (NMagM)
  in nuclear magnetons)

  Atom         1           2           3
 IAtWgt=          12          12          12
 AtmWgt=  12.0000000  12.0000000  12.0000000
 NucSpn=           0           0           0
 AtZEff=  -3.6000000  -3.6000000  -3.6000000
 NQMom=    0.0000000   0.0000000   0.0000000
 NMagM=    0.0000000   0.0000000   0.0000000
 AtZNuc=   6.0000000   6.0000000   6.0000000
 Leave Link  101 at Mon Feb 23 10:00:02 2015, MaxMem=   524288000 cpu:         1.9
 (Enter /opt/g09/l103.exe)

 GradGradGradGradGradGradGradGradGradGradGradGradGradGradGradGradGradGrad
 Berny optimization.
 Initialization pass.
                           ----------------------------
                           !    Initial Parameters    !
                           ! (Angstroms and Degrees)  !
 --------------------------                            --------------------------
 ! Name  Definition              Value          Derivative Info.                !
 --------------------------------------------------------------------------------
 ! R1    R(1,2)                  1.2956         calculate D2E/DX2 analytically  !
 ! R2    R(2,3)                  1.2955         calculate D2E/DX2 analytically  !
 ! A1    L(1,2,3,-3,-1)        180.0            calculate D2E/DX2 analytically  !
 ! A2    L(1,2,3,-2,-2)        180.0            calculate D2E/DX2 analytically  !
 --------------------------------------------------------------------------------
 Trust Radius=3.00D-01 FncErr=1.00D-07 GrdErr=1.00D-07
 Number of steps in this run=      2 maximum allowed number of steps=      2.
 GradGradGradGradGradGradGradGradGradGradGradGradGradGradGradGradGradGrad

 Leave Link  103 at Mon Feb 23 10:00:02 2015, MaxMem=   524288000 cpu:         0.1
 (Enter /opt/g09/l202.exe)
                          Input orientation:                          
 ---------------------------------------------------------------------
 Center     Atomic      Atomic             Coordinates (Angstroms)
 Number     Number       Type             X           Y           Z
 ---------------------------------------------------------------------
      1          6           0       -0.009730   -0.000930    0.001410
      2          6           0        1.279970    0.122100    0.000700
      3          6           0        2.569660    0.245130   -0.000010
 ---------------------------------------------------------------------
                    Distance matrix (angstroms):
                    1          2          3
     1  C    0.000000
     2  C    1.295555   0.000000
     3  C    2.591100   1.295545   0.000000
 Symmetry turned off by external request.
 Stoichiometry    C3
 Framework group  C*V[C*(CCC)]
 Deg. of freedom     2
 Full point group                 C*V     NOp   4
 Rotational constants (GHZ):      0.0000000     12.5457759     12.5457759
 Leave Link  202 at Mon Feb 23 10:00:02 2015, MaxMem=   524288000 cpu:         0.0
 (Enter /opt/g09/l301.exe)
 Standard basis: 6-311+G(d,p) (5D, 7F)
 Ernie: Thresh=  0.10000D-02 Tol=  0.10000D-05 Strict=F.
 AO basis set in the form of general basis input (Overlap normalization):
      1 0
 S   6 1.00       0.000000000000
      0.4563240000D+04  0.1966650249D-02
      0.6820240000D+03  0.1523060193D-01
      0.1549730000D+03  0.7612690966D-01
      0.4445530000D+02  0.2608010331D+00
      0.1302900000D+02  0.6164620782D+00
      0.1827730000D+01  0.2210060280D+00
 SP   3 1.00       0.000000000000
      0.2096420000D+02  0.1146600807D+00  0.4024869267D-01
      0.4803310000D+01  0.9199996477D+00  0.2375939567D+00
      0.1459330000D+01 -0.3030682134D-02  0.8158538515D+00
 SP   1 1.00       0.000000000000
      0.4834560000D+00  0.1000000000D+01  0.1000000000D+01
 SP   1 1.00       0.000000000000
      0.1455850000D+00  0.1000000000D+01  0.1000000000D+01
 SP   1 1.00       0.000000000000
      0.4380000000D-01  0.1000000000D+01  0.1000000000D+01
 D   1 1.00       0.000000000000
      0.6260000000D+00  0.1000000000D+01
 ****
      2 0
 S   6 1.00       0.000000000000
      0.4563240000D+04  0.1966650249D-02
      0.6820240000D+03  0.1523060193D-01
      0.1549730000D+03  0.7612690966D-01
      0.4445530000D+02  0.2608010331D+00
      0.1302900000D+02  0.6164620782D+00
      0.1827730000D+01  0.2210060280D+00
 SP   3 1.00       0.000000000000
      0.2096420000D+02  0.1146600807D+00  0.4024869267D-01
      0.4803310000D+01  0.9199996477D+00  0.2375939567D+00
      0.1459330000D+01 -0.3030682134D-02  0.8158538515D+00
 SP   1 1.00       0.000000000000
      0.4834560000D+00  0.1000000000D+01  0.1000000000D+01
 SP   1 1.00       0.000000000000
      0.1455850000D+00  0.1000000000D+01  0.1000000000D+01
 SP   1 1.00       0.000000000000
      0.4380000000D-01  0.1000000000D+01  0.1000000000D+01
 D   1 1.00       0.000000000000
      0.6260000000D+00  0.1000000000D+01
 ****
      3 0
 S   6 1.00       0.000000000000
      0.4563240000D+04  0.1966650249D-02
      0.6820240000D+03  0.1523060193D-01
      0.1549730000D+03  0.7612690966D-01
      0.4445530000D+02  0.2608010331D+00
      0.1302900000D+02  0.6164620782D+00
      0.1827730000D+01  0.2210060280D+00
 SP   3 1.00       0.000000000000
      0.2096420000D+02  0.1146600807D+00  0.4024869267D-01
      0.4803310000D+01  0.9199996477D+00  0.2375939567D+00
      0.1459330000D+01 -0.3030682134D-02  0.8158538515D+00
 SP   1 1.00       0.000000000000
      0.4834560000D+00  0.1000000000D+01  0.1000000000D+01
 SP   1 1.00       0.000000000000
      0.1455850000D+00  0.1000000000D+01  0.1000000000D+01
 SP   1 1.00       0.000000000000
      0.4380000000D-01  0.1000000000D+01  0.1000000000D+01
 D   1 1.00       0.000000000000
      0.6260000000D+00  0.1000000000D+01
 ****

    66 basis functions,   108 primitive gaussians,    69 cartesian basis functions
     9 alpha electrons        9 beta electrons
       nuclear repulsion energy        36.7611785455 Hartrees.
 IExCor= 1614 DFT=T Ex+Corr=B971 ExCW=0 ScaHFX=  0.210000
 ScaDFX=  1.000000  1.000000  1.000000  1.000000 ScalE2=  1.000000  1.000000
 IRadAn=      5 IRanWt=     -1 IRanGd=            0 ICorTp=0 IEmpDi=  4
 NAtoms=    3 NActive=    3 NUniq=    3 SFac= 1.00D+00 NAtFMM=   60 NAOKFM=F Big=F
 Integral buffers will be    131072 words long.
 Raffenetti 2 integral format.
 Two-electron integral symmetry is turned off.
 Leave Link  301 at Mon Feb 23 10:00:02 2015, MaxMem=   524288000 cpu:         0.4
 (Enter /opt/g09/l302.exe)
 NPDir=0 NMtPBC=     1 NCelOv=     1 NCel=       1 NClECP=     1 NCelD=      1
         NCelK=      1 NCelE2=     1 NClLst=     1 CellRange=     0.0.
 One-electron integrals computed using PRISM.
 NBasis=    66 RedAO= T EigKep=  3.36D-06  NBF=    66
 NBsUse=    66 1.00D-06 EigRej= -1.00D+00 NBFU=    66
 Precomputing XC quadrature grid using
 IXCGrd= 4 IRadAn=           5 IRanWt=          -1 IRanGd=           0 AccXCQ= 0.00D+00.
 Generated NRdTot=       0 NPtTot=           0 NUsed=           0 NTot=          32
 NSgBfM=    69    69    69    69    69 MxSgAt=     3 MxSgA2=     3.
 Leave Link  302 at Mon Feb 23 10:00:02 2015, MaxMem=   524288000 cpu:         1.3
 (Enter /opt/g09/l303.exe)
 DipDrv:  MaxL=1.
 Leave Link  303 at Mon Feb 23 10:00:02 2015, MaxMem=   524288000 cpu:         0.3
 (Enter /opt/g09/l401.exe)
 Initial guess from the checkpoint file:  "/scratch/pb556/g09_run/add_hco//Gau-10483.chk"
 B after Tr=     0.000000    0.000000    0.000000
         Rot=    1.000000    0.000000    0.000000    0.000000 Ang=   0.00 deg.
 Guess basis will be translated and rotated to current coordinates.
 JPrj=2 DoOrth=T DoCkMO=T.
 Leave Link  401 at Mon Feb 23 10:00:02 2015, MaxMem=   524288000 cpu:         0.8
 (Enter /opt/g09/l502.exe)
 Closed shell SCF:
 Using DIIS extrapolation, IDIIS=  1040.
 Two-electron integral symmetry not used.
 Keep R1 ints in memory in canonical form, NReq=3371201.
 IVT=       33805 IEndB=       33805 NGot=   524288000 MDV=   521808830
 LenX=   521808830 LenY=   521803628
 Requested convergence on RMS density matrix=1.00D-08 within 128 cycles.
 Requested convergence on MAX density matrix=1.00D-06.
 Requested convergence on             energy=1.00D-06.
 No special actions if energy rises.
 FoFCou: FMM=F IPFlag=           0 FMFlag=           0 FMFlg1=           0
         NFxFlg=           0 DoJE=F BraDBF=F KetDBF=F FulRan=T
         wScrn=  0.000000 ICntrl=     600 IOpCl=  0 I1Cent=           0 NGrid=           0
         NMat0=    1 NMatS0=   2211 NMatT0=    0 NMatD0=    1 NMtDS0=    0 NMtDT0=    0
 Symmetry not used in FoFCou.

 Cycle   1  Pass 1  IDiag  1:
 E= -114.040341927686    
 DIIS: error= 1.36D-09 at cycle   1 NSaved=   1.
 NSaved= 1 IEnMin= 1 EnMin= -114.040341927686     IErMin= 1 ErrMin= 1.36D-09
 ErrMax= 1.36D-09  0.00D+00 EMaxC= 1.00D-01 BMatC= 4.57D-17 BMatP= 4.57D-17
 IDIUse=1 WtCom= 1.00D+00 WtEn= 0.00D+00
 Coeff-Com:  0.100D+01
 Coeff:      0.100D+01
 Gap=     0.173 Goal=   None    Shift=    0.000
 RMSDP=4.62D-10 MaxDP=9.12D-09              OVMax= 7.84D-09

 SCF Done:  E(RB971) =  -114.040341928     A.U. after    1 cycles
            NFock=  1  Conv=0.46D-09     -V/T= 2.0031
 KE= 1.136823505789D+02 PE=-3.381888484926D+02 EE= 7.370497744048D+01
 Leave Link  502 at Mon Feb 23 10:00:03 2015, MaxMem=   524288000 cpu:         2.2
 (Enter /opt/g09/l801.exe)
 DoSCS=F DFT=T ScalE2(SS,OS)=  1.000000  1.000000
 Range of M.O.s used for correlation:     1    66
 NBasis=    66 NAE=     9 NBE=     9 NFC=     0 NFV=     0
 NROrb=     66 NOA=     9 NOB=     9 NVA=    57 NVB=    57

 **** Warning!!: The largest alpha MO coefficient is  0.24197367D+03

 Leave Link  801 at Mon Feb 23 10:00:04 2015, MaxMem=   524288000 cpu:         0.3
 (Enter /opt/g09/l1101.exe)
 Using compressed storage, NAtomX=     3.
 Will process      4 centers per pass.
 Leave Link 1101 at Mon Feb 23 10:00:04 2015, MaxMem=   524288000 cpu:         1.1
 (Enter /opt/g09/l1102.exe)
 Symmetrizing basis deriv contribution to polar:
 IMax=3 JMax=2 DiffMx= 0.00D+00
 Leave Link 1102 at Mon Feb 23 10:00:04 2015, MaxMem=   524288000 cpu:         0.3
 (Enter /opt/g09/l1110.exe)
 Forming Gx(P) for the SCF density, NAtomX=     3.
 Integral derivatives from FoFJK, PRISM(SPDF).
 Do as many integral derivatives as possible in FoFJK.
 G2DrvN: MDV=     524287872.
 G2DrvN: will do     4 centers at a time, making    1 passes.
 Calling FoFCou, ICntrl=  3107 FMM=F I1Cent=   0 AccDes= 0.00D+00.
 FoFJK:  IHMeth= 1 ICntrl=    3107 DoSepK=F KAlg= 0 I1Cent=   0 FoldK=F
 IRaf=         0 NMat=   1 IRICut=       1 DoRegI=T DoRafI=F ISym2E= 0.
 FoFCou: FMM=F IPFlag=           0 FMFlag=      100000 FMFlg1=           0
         NFxFlg=           0 DoJE=F BraDBF=F KetDBF=F FulRan=T
         wScrn=  0.000000 ICntrl=    3107 IOpCl=  0 I1Cent=           0 NGrid=           0
         NMat0=    1 NMatS0=      1 NMatT0=    0 NMatD0=    1 NMtDS0=    0 NMtDT0=    0
 Symmetry not used in FoFCou.
 End of G2Drv F.D. properties file   721 does not exist.
 End of G2Drv F.D. properties file   722 does not exist.
 End of G2Drv F.D. properties file   788 does not exist.
 Leave Link 1110 at Mon Feb 23 10:00:05 2015, MaxMem=   524288000 cpu:        10.4
 (Enter /opt/g09/l1002.exe)
 Minotr:  Closed shell wavefunction.
          IDoAtm=111
          Direct CPHF calculation.
          Differentiating once with respect to electric field.
                with respect to dipole field.
          Differentiating once with respect to nuclear coordinates.
          Requested convergence is 1.0D-08 RMS, and 1.0D-07 maximum.
          Secondary convergence is 1.0D-12 RMS, and 1.0D-12 maximum.
          NewPWx=T KeepS1=F KeepF1=F KeepIn=T MapXYZ=F SortEE=F KeepMc=T.
          MDV=     524287900 using IRadAn=       1.
 Generate precomputed XC quadrature information.
 Keep R1 ints in memory in canonical form, NReq=3335656.
 FoFCou: FMM=F IPFlag=           0 FMFlag=           0 FMFlg1=           0
         NFxFlg=           0 DoJE=F BraDBF=F KetDBF=F FulRan=T
         wScrn=  0.000000 ICntrl=     600 IOpCl=  0 I1Cent=           0 NGrid=           0
         NMat0=    1 NMatS0=   2211 NMatT0=    0 NMatD0=    1 NMtDS0=    0 NMtDT0=    0
 Symmetry not used in FoFCou.
          Solving linear equations simultaneously, MaxMat=       0.
          There are    12 degrees of freedom in the 1st order CPHF.  IDoFFX=6 NUNeed=     3.
      9 vectors produced by pass  0 Test12= 4.27D-15 8.33D-09 XBig12= 1.34D+02 7.98D+00.
 AX will form     9 AO Fock derivatives at one time.
      9 vectors produced by pass  1 Test12= 4.27D-15 8.33D-09 XBig12= 8.68D+01 4.24D+00.
      9 vectors produced by pass  2 Test12= 4.27D-15 8.33D-09 XBig12= 4.88D-01 2.66D-01.
      9 vectors produced by pass  3 Test12= 4.27D-15 8.33D-09 XBig12= 1.14D-03 9.31D-03.
      9 vectors produced by pass  4 Test12= 4.27D-15 8.33D-09 XBig12= 1.04D-06 2.23D-04.
      9 vectors produced by pass  5 Test12= 4.27D-15 8.33D-09 XBig12= 1.40D-09 1.24D-05.
      7 vectors produced by pass  6 Test12= 4.27D-15 8.33D-09 XBig12= 1.85D-11 1.64D-06.
      2 vectors produced by pass  7 Test12= 4.27D-15 8.33D-09 XBig12= 6.66D-14 1.06D-07.
 InvSVY:  IOpt=1 It=  1 EMax= 1.11D-15
 Solved reduced A of dimension    63 with     9 vectors.
 FullF1:  Do perturbations    1 to     3.
 Isotropic polarizability for W=    0.000000       31.23 Bohr**3.
 End of Minotr F.D. properties file   721 does not exist.
 End of Minotr F.D. properties file   722 does not exist.
 End of Minotr F.D. properties file   788 does not exist.
 Leave Link 1002 at Mon Feb 23 10:00:07 2015, MaxMem=   524288000 cpu:        16.3
 (Enter /opt/g09/l701.exe)
 Compute integral second derivatives.
 ... and contract with generalized density number  0.
 Leave Link  701 at Mon Feb 23 10:00:08 2015, MaxMem=   524288000 cpu:         1.8
 (Enter /opt/g09/l702.exe)
 L702 exits ... SP integral derivatives will be done elsewhere.
 Leave Link  702 at Mon Feb 23 10:00:08 2015, MaxMem=   524288000 cpu:         0.3
 (Enter /opt/g09/l703.exe)
 Compute integral second derivatives, UseDBF=F ICtDFT=           0.
 Integral derivatives from FoFJK, PRISM(SPDF).
 Calling FoFJK, ICntrl=    100127 FMM=F ISym2X=0 I1Cent= 0 IOpClX= 0 NMat=1 NMatS=1 NMatT=0.
 FoFJK:  IHMeth= 1 ICntrl=  100127 DoSepK=F KAlg= 0 I1Cent=   0 FoldK=F
 IRaf=         0 NMat=   1 IRICut=       1 DoRegI=T DoRafI=F ISym2E= 0.
 FoFCou: FMM=F IPFlag=           0 FMFlag=      100000 FMFlg1=         800
         NFxFlg=           0 DoJE=F BraDBF=F KetDBF=F FulRan=T
         wScrn=  0.000000 ICntrl=  100127 IOpCl=  0 I1Cent=           0 NGrid=           0
         NMat0=    1 NMatS0=      1 NMatT0=    0 NMatD0=    1 NMtDS0=    0 NMtDT0=    0
 Symmetry not used in FoFCou.
 Leave Link  703 at Mon Feb 23 10:00:11 2015, MaxMem=   524288000 cpu:        26.1
 (Enter /opt/g09/l716.exe)
 Dipole        =-2.52482298D-05-2.70082785D-06 1.56009237D-08
 Polarizability= 5.03895289D+01 2.75366952D+00 2.17806916D+01
                -1.58880938D-02-1.51486898D-03 2.15191068D+01
 Full mass-weighted force constant matrix:
 Low frequencies ---   -4.3802   -3.6693   -0.0009   -0.0009    0.0001  137.7031
 Low frequencies ---  137.7786 1224.6646 2128.7508
 Molecule is linear but NTrRo=6 try Cut= 1.00D-08.
 Diagonal vibrational polarizability:
        5.3825474      17.1282604      17.2736770
 Harmonic frequencies (cm**-1), IR intensities (KM/Mole), Raman scattering
 activities (A**4/AMU), depolarization ratios for plane and unpolarized
 incident light, reduced masses (AMU), force constants (mDyne/A),
 and normal coordinates:
                      1                      2                      3
                      A                      A                      A
 Frequencies --    137.7031               137.7785              1224.6646
 Red. masses --     12.0000                12.0000                12.0000
 Frc consts  --      0.1341                 0.1342                10.6039
 IR Inten    --     12.1714                12.1589                 0.0000
  Atom  AN      X      Y      Z        X      Y      Z        X      Y      Z
     1   6     0.00   0.01   0.41    -0.04   0.41  -0.01     0.70   0.07   0.00
     2   6     0.00  -0.02  -0.82     0.08  -0.81   0.02     0.00   0.00   0.00
     3   6     0.00   0.01   0.41    -0.04   0.41  -0.01    -0.70  -0.07   0.00
                      4
                      A
 Frequencies --   2128.7508
 Red. masses --     12.0000
 Frc consts  --     32.0392
 IR Inten    --    888.0470
  Atom  AN      X      Y      Z
     1   6    -0.41  -0.04   0.00
     2   6     0.81   0.08   0.00
     3   6    -0.41  -0.04   0.00

 -------------------
 - Thermochemistry -
 -------------------
 Temperature   298.150 Kelvin.  Pressure   1.00000 Atm.
 Atom     1 has atomic number  6 and mass  12.00000
 Atom     2 has atomic number  6 and mass  12.00000
 Atom     3 has atomic number  6 and mass  12.00000
 Molecular mass:    36.00000 amu.
 Principal axes and moments of inertia in atomic units:
                           1         2         3
     Eigenvalues --     0.00000 143.85250 143.85250
           X            0.99548  -0.09497   0.00000
           Y            0.09496   0.99546   0.00580
           Z           -0.00055  -0.00577   0.99998
 This molecule is a prolate symmetric top.
 Rotational symmetry number  1.
 Rotational temperature (Kelvin)      0.60210
 Rotational constant (GHZ):          12.545776
 Zero-point vibrational energy      21705.6 (Joules/Mol)
                                    5.18777 (Kcal/Mol)
 Warning -- explicit consideration of   2 degrees of freedom as
           vibrations may cause significant error
 Vibrational temperatures:    198.12   198.23  1762.02  3062.79
          (Kelvin)
 
 Zero-point correction=                           0.008267 (Hartree/Particle)
 Thermal correction to Energy=                    0.011973
 Thermal correction to Enthalpy=                  0.012917
 Thermal correction to Gibbs Free Energy=        -0.014022
 Sum of electronic and zero-point Energies=           -114.032075
 Sum of electronic and thermal Energies=              -114.028369
 Sum of electronic and thermal Enthalpies=            -114.027425
 Sum of electronic and thermal Free Energies=         -114.054364
 
                     E (Thermal)             CV                S
                      KCal/Mol        Cal/Mol-Kelvin    Cal/Mol-Kelvin
 Total                    7.513              8.996             56.699
 Electronic               0.000              0.000              0.000
 Translational            0.889              2.981             36.673
 Rotational               0.592              1.987             14.318
 Vibrational              6.032              4.028              5.708
 Vibration     1          0.614              1.916              2.836
 Vibration     2          0.614              1.916              2.835
                       Q            Log10(Q)             Ln(Q)
 Total Bot       0.281651D+07          6.449712         14.851010
 Total V=0       0.178800D+11         10.252368         23.606950
 Vib (Bot)       0.669943D-03         -3.173962         -7.308318
 Vib (Bot)    1  0.147753D+01          0.169537          0.390373
 Vib (Bot)    2  0.147669D+01          0.169290          0.389805
 Vib (V=0)       0.425299D+01          0.628694          1.447622
 Vib (V=0)    1  0.205984D+01          0.313833          0.722628
 Vib (V=0)    2  0.205905D+01          0.313666          0.722242
 Electronic      0.100000D+01          0.000000          0.000000
 Translational   0.849002D+07          6.928909         15.954402
 Rotational      0.495182D+03          2.694765          6.204926
 
                                                       freq-b971_12075-35-3.gau
                                                             IR Spectrum
 
     2                                                     1                                                                         
     1                                                     2                                                                1        
     2                                                     2                                                                3        
     9                                                     5                                                                8        
 
     X                                                                                                                      X        
     X                                                                                                                               
     X                                                                                                                               
     X                                                                                                                               
     X                                                                                                                               
     X                                                                                                                               
     X                                                                                                                               
     X                                                                                                                               
     X                                                                                                                               
     X                                                                                                                               
     X                                                                                                                               
     X                                                                                                                               
     X                                                                                                                               
     X                                                                                                                               
     X                                                                                                                               
     X                                                                                                                               
     X                                                                                                                               
     X                                                                                                                               
     X                                                                                                                               
     X                                                                                                                               
 
 -------------------------------------------------------------------
 Center     Atomic                   Forces (Hartrees/Bohr)
 Number     Number              X              Y              Z
 -------------------------------------------------------------------
      1        6           0.000003911    0.000000386   -0.000000002
      2        6          -0.000012846   -0.000001221    0.000000007
      3        6           0.000008935    0.000000835   -0.000000005
 -------------------------------------------------------------------
 Cartesian Forces:  Max     0.000012846 RMS     0.000005401
 Force constants in Cartesian coordinates: 
                1             2             3             4             5 
      1  0.677356D+00
      2  0.644910D-01  0.758825D-02
      3 -0.371539D-03 -0.355356D-04  0.143496D-02
      4 -0.679782D+00 -0.645837D-01  0.372080D-03  0.135960D+01
      5 -0.645837D-01 -0.903809D-02  0.355879D-04  0.129172D+00  0.180714D-01
      6  0.372080D-03  0.355879D-04 -0.287320D-02 -0.744186D-03 -0.711787D-04
      7  0.242610D-02  0.927071D-04  0.000000D+00 -0.679821D+00 -0.645884D-01
      8  0.927186D-04  0.144984D-02  0.000000D+00 -0.645884D-01 -0.903334D-02
      9  0.000000D+00  0.000000D+00  0.143825D-02  0.372107D-03  0.355907D-04
                6             7             8             9 
      6  0.574117D-02
      7  0.372107D-03  0.677394D+00
      8  0.355907D-04  0.644957D-01  0.758350D-02
      9 -0.286796D-02 -0.371565D-03 -0.355384D-04  0.142971D-02
 FormGI is forming the generalized inverse of G from B-inverse, IUseBI=4.
 Force constants in internal coordinates: 
                1             2             3             4 
      1  0.683509D+00
      2 -0.243482D-02  0.683548D+00
      3  0.132234D-04 -0.132111D-04  0.861481D-02
      4  0.000000D+00  0.000000D+00  0.000000D+00  0.852780D-02
 Leave Link  716 at Mon Feb 23 10:00:11 2015, MaxMem=   524288000 cpu:         0.3
 (Enter /opt/g09/l103.exe)

 GradGradGradGradGradGradGradGradGradGradGradGradGradGradGradGradGradGrad
 Berny optimization.
 Red2BG is reusing G-inverse.
 Internal  Forces:  Max     0.000008974 RMS     0.000004898
 Search for a local minimum.
 Step number   1 out of a maximum of    2
 All quantities printed in internal units (Hartrees-Bohrs-Radians)
 Second derivative matrix not updated -- analytic derivatives used.
 The second derivative matrix:
                          R1        R2        A1        A2
           R1           0.68351
           R2          -0.00243   0.68355
           A1           0.00001  -0.00001   0.00861
           A2           0.00000   0.00000   0.00000   0.00853
 ITU=  0
     Eigenvalues ---    0.00853   0.00861   0.68109   0.68596
 Angle between quadratic step and forces=   2.85 degrees.
 Linear search not attempted -- first point.
 Iteration  1 RMS(Cart)=  0.00000466 RMS(Int)=  0.00000000
 Iteration  2 RMS(Cart)=  0.00000000 RMS(Int)=  0.00000000
 ITry= 1 IFail=0 DXMaxC= 6.83D-06 DCOld= 1.00D+10 DXMaxT= 3.00D-01 DXLimC= 3.00D+00 Rises=F
 Variable       Old X    -DE/DX   Delta X   Delta X   Delta X     New X
                                 (Linear)    (Quad)   (Total)
    R1        2.44824   0.00000   0.00000  -0.00001  -0.00001   2.44824
    R2        2.44823   0.00001   0.00000   0.00001   0.00001   2.44824
    A1        3.14159   0.00000   0.00000   0.00000   0.00000   3.14159
    A2        3.14159   0.00000   0.00000   0.00000   0.00000   3.14159
         Item               Value     Threshold  Converged?
 Maximum Force            0.000009     0.000015     YES
 RMS     Force            0.000005     0.000010     YES
 Maximum Displacement     0.000007     0.000060     YES
 RMS     Displacement     0.000005     0.000040     YES
 Predicted change in Energy=-7.002603D-11
 Optimization completed.
    -- Stationary point found.
                           ----------------------------
                           !   Optimized Parameters   !
                           ! (Angstroms and Degrees)  !
 --------------------------                            --------------------------
 ! Name  Definition              Value          Derivative Info.                !
 --------------------------------------------------------------------------------
 ! R1    R(1,2)                  1.2956         -DE/DX =    0.0                 !
 ! R2    R(2,3)                  1.2955         -DE/DX =    0.0                 !
 ! A1    L(1,2,3,-3,-1)        180.0            -DE/DX =    0.0                 !
 ! A2    L(1,2,3,-2,-2)        180.0            -DE/DX =    0.0                 !
 --------------------------------------------------------------------------------
 GradGradGradGradGradGradGradGradGradGradGradGradGradGradGradGradGradGrad

 Leave Link  103 at Mon Feb 23 10:00:11 2015, MaxMem=   524288000 cpu:         0.0
 (Enter /opt/g09/l9999.exe)
 1\1\GINC-ARP\Freq\RB971\6-311+G(d,p)\C3\PB556\23-Feb-2015\0\\#P Geom=A
 llCheck Guess=TCheck SCRF=Check GenChk RB971/6-311+G(d,p) Freq\\freq-b
 971_12075-35-3.gau\\0,1\C,-0.00973,-0.00093,0.00141\C,1.27997,0.1221,0
 .0007\C,2.56966,0.24513,-0.00001\\Version=ES64L-G09RevD.01\HF=-114.040
 3419\RMSD=4.619e-10\RMSF=5.401e-06\ZeroPoint=0.0082672\Thermal=0.01197
 3\Dipole=-0.0000252,-0.0000027,0.\DipoleDeriv=1.3361564,0.1425263,-0.0
 008226,0.1425927,-0.1443295,-0.0000785,-0.0008234,-0.0000786,-0.158012
 7,-2.6723187,-0.285055,0.0016452,-0.2851882,0.2886702,0.0001571,0.0016
 468,0.0001572,0.3160369,1.3361624,0.1425287,-0.0008226,0.1425955,-0.14
 43407,-0.0000785,-0.0008234,-0.0000786,-0.1580243\Polar=50.3895289,2.7
 536695,21.7806916,-0.0158881,-0.0015149,21.5191068\PG=C*V [C*(C1C1C1)]
 \NImag=0\\0.67735583,0.06449102,0.00758825,-0.00037154,-0.00003554,0.0
 0143496,-0.67978193,-0.06458373,0.00037208,1.35960249,-0.06458374,-0.0
 0903809,0.00003559,0.12917216,0.01807143,0.00037208,0.00003559,-0.0028
 7320,-0.00074419,-0.00007118,0.00574117,0.00242610,0.00009271,-0.00000
 054,-0.67982056,-0.06458841,0.00037211,0.67739447,0.00009272,0.0014498
 4,-0.00000005,-0.06458843,-0.00903334,0.00003559,0.06449571,0.00758350
 ,-0.00000054,-0.00000005,0.00143825,0.00037211,0.00003559,-0.00286796,
 -0.00037157,-0.00003554,0.00142971\\-0.00000391,-0.00000039,0.,0.00001
 285,0.00000122,0.,-0.00000894,-0.00000084,0.\\\@


 CURIOUSER AND CURIOUSER

                  -- ALICE, IN WONDERLAND
 Job cpu time:       0 days  0 hours  1 minutes  4.8 seconds.
 File lengths (MBytes):  RWF=      5 Int=      0 D2E=      0 Chk=      1 Scr=      1
 Normal termination of Gaussian 09 at Mon Feb 23 10:00:11 2015.
