 Entering Gaussian System, Link 0=g09
 Input=0_0freq-corr_b971_12184-80-4.gau
 Output=0_0freq-corr_b971_12184-80-4.log
 Initial command:
 /opt/g09/l1.exe "/scratch/pb556/g09_run/add_hco//Gau-4869.inp" -scrdir="/scratch/pb556/g09_run/add_hco//"
 Entering Link 1 = /opt/g09/l1.exe PID=      4878.
  
 Copyright (c) 1988,1990,1992,1993,1995,1998,2003,2009,2013,
            Gaussian, Inc.  All Rights Reserved.
  
 This is part of the Gaussian(R) 09 program.  It is based on
 the Gaussian(R) 03 system (copyright 2003, Gaussian, Inc.),
 the Gaussian(R) 98 system (copyright 1998, Gaussian, Inc.),
 the Gaussian(R) 94 system (copyright 1995, Gaussian, Inc.),
 the Gaussian 92(TM) system (copyright 1992, Gaussian, Inc.),
 the Gaussian 90(TM) system (copyright 1990, Gaussian, Inc.),
 the Gaussian 88(TM) system (copyright 1988, Gaussian, Inc.),
 the Gaussian 86(TM) system (copyright 1986, Carnegie Mellon
 University), and the Gaussian 82(TM) system (copyright 1983,
 Carnegie Mellon University). Gaussian is a federally registered
 trademark of Gaussian, Inc.
  
 This software contains proprietary and confidential information,
 including trade secrets, belonging to Gaussian, Inc.
  
 This software is provided under written license and may be
 used, copied, transmitted, or stored only in accord with that
 written license.
  
 The following legend is applicable only to US Government
 contracts under FAR:
  
                    RESTRICTED RIGHTS LEGEND
  
 Use, reproduction and disclosure by the US Government is
 subject to restrictions as set forth in subparagraphs (a)
 and (c) of the Commercial Computer Software - Restricted
 Rights clause in FAR 52.227-19.
  
 Gaussian, Inc.
 340 Quinnipiac St., Bldg. 40, Wallingford CT 06492
  
  
 ---------------------------------------------------------------
 Warning -- This program may not be used in any manner that
 competes with the business of Gaussian, Inc. or will provide
 assistance to any competitor of Gaussian, Inc.  The licensee
 of this program is prohibited from giving any competitor of
 Gaussian, Inc. access to this program.  By using this program,
 the user acknowledges that Gaussian, Inc. is engaged in the
 business of creating and licensing software in the field of
 computational chemistry and represents and warrants to the
 licensee that it is not a competitor of Gaussian, Inc. and that
 it will not use this program in any manner prohibited above.
 ---------------------------------------------------------------
  

 Cite this work as:
 Gaussian 09, Revision D.01,
 M. J. Frisch, G. W. Trucks, H. B. Schlegel, G. E. Scuseria, 
 M. A. Robb, J. R. Cheeseman, G. Scalmani, V. Barone, B. Mennucci, 
 G. A. Petersson, H. Nakatsuji, M. Caricato, X. Li, H. P. Hratchian, 
 A. F. Izmaylov, J. Bloino, G. Zheng, J. L. Sonnenberg, M. Hada, 
 M. Ehara, K. Toyota, R. Fukuda, J. Hasegawa, M. Ishida, T. Nakajima, 
 Y. Honda, O. Kitao, H. Nakai, T. Vreven, J. A. Montgomery, Jr., 
 J. E. Peralta, F. Ogliaro, M. Bearpark, J. J. Heyd, E. Brothers, 
 K. N. Kudin, V. N. Staroverov, T. Keith, R. Kobayashi, J. Normand, 
 K. Raghavachari, A. Rendell, J. C. Burant, S. S. Iyengar, J. Tomasi, 
 M. Cossi, N. Rega, J. M. Millam, M. Klene, J. E. Knox, J. B. Cross, 
 V. Bakken, C. Adamo, J. Jaramillo, R. Gomperts, R. E. Stratmann, 
 O. Yazyev, A. J. Austin, R. Cammi, C. Pomelli, J. W. Ochterski, 
 R. L. Martin, K. Morokuma, V. G. Zakrzewski, G. A. Voth, 
 P. Salvador, J. J. Dannenberg, S. Dapprich, A. D. Daniels, 
 O. Farkas, J. B. Foresman, J. V. Ortiz, J. Cioslowski, 
 and D. J. Fox, Gaussian, Inc., Wallingford CT, 2013.
 
 ******************************************
 Gaussian 09:  ES64L-G09RevD.01 24-Apr-2013
                27-Apr-2015 
 ******************************************
 %NProcShared=8
 Will use up to    8 processors via shared memory.
 %Mem=500MW
 ----------------------------------------------------------------------
 #p rB971/6-311+G(d,p) Opt=(Tight, CalcAll) Freq GFInput Population=Non
 e Integral(Grid=UltraFine) Guess=MIX NoSymmetry
 ----------------------------------------------------------------------
 1/7=10,10=4,14=-1,18=20,19=15,26=4,38=1/1,3;
 2/9=110,12=2,15=1,17=6,18=5,40=1/2;
 3/5=4,6=6,7=111,11=2,16=1,24=10,25=1,30=1,71=2,74=-20,75=-5,116=1,140=1/1,2,3;
 4/13=-1/1;
 5/5=2,38=5/2;
 8/6=4,10=90,11=11/1;
 11/6=1,8=1,9=11,15=111,16=1,31=1/1,2,10;
 10/6=1,31=1/2;
 7/10=1,25=1,30=1/1,2,3,16;
 1/7=10,10=4,14=-1,18=20,19=15,26=4/3(3);
 2/9=110,15=1/2;
 7/8=1,9=1,25=1,30=1,44=-1/16;
 99//99;
 2/9=110,15=1/2;
 3/5=4,6=6,7=111,11=2,16=1,25=1,30=1,71=2,74=-20,75=-5,116=1,140=1/1,2,3;
 4/5=5,16=3,69=1/1;
 5/5=2,38=5/2;
 8/6=4,10=90,11=11/1;
 11/6=1,8=1,9=11,15=111,16=1,31=1/1,2,10;
 10/6=1,31=1/2;
 7/10=1,25=1,30=1/1,2,3,16;
 1/7=10,10=4,14=-1,18=20,19=15,26=4/3(-8);
 2/9=110,15=1/2;
 7/8=1,9=1,25=1,30=1,44=-1/16;
 99//99;
 Leave Link    1 at Mon Apr 27 14:34:30 2015, MaxMem=   524288000 cpu:         0.5
 (Enter /opt/g09/l101.exe)
 ----------------------------------------------------------------------
 W:\Data\additional_hydrocarbons\nist\enthalpy_estimation\success\fine\
 corr_b971_12184-80-4.g09
 ----------------------------------------------------------------------
 Symbolic Z-matrix:
 Charge =  0 Multiplicity = 1
 C                     0.0681    1.3319    0. 
 C                    -0.27134  -0.08334   0. 
 C                     1.1439    0.2561    0. 
 C                     1.48334   1.67134   0. 
 
 Add atom      1 valence  3 ND=      0 dihedral       2      1      3      4
 NAtoms=      4 NQM=        4 NQMF=       0 NMMI=      0 NMMIF=      0
                NMic=       0 NMicF=      0.
                    Isotopes and Nuclear Properties:
 (Nuclear quadrupole moments (NQMom) in fm**2, nuclear magnetic moments (NMagM)
  in nuclear magnetons)

  Atom         1           2           3           4
 IAtWgt=          12          12          12          12
 AtmWgt=  12.0000000  12.0000000  12.0000000  12.0000000
 NucSpn=           0           0           0           0
 AtZEff=   0.0000000   0.0000000   0.0000000   0.0000000
 NQMom=    0.0000000   0.0000000   0.0000000   0.0000000
 NMagM=    0.0000000   0.0000000   0.0000000   0.0000000
 AtZNuc=   6.0000000   6.0000000   6.0000000   6.0000000
 Leave Link  101 at Mon Apr 27 14:34:31 2015, MaxMem=   524288000 cpu:         1.9
 (Enter /opt/g09/l103.exe)

 GradGradGradGradGradGradGradGradGradGradGradGradGradGradGradGradGradGrad
 Berny optimization.
 Initialization pass.
                           ----------------------------
                           !    Initial Parameters    !
                           ! (Angstroms and Degrees)  !
 --------------------------                            --------------------------
 ! Name  Definition              Value          Derivative Info.                !
 --------------------------------------------------------------------------------
 ! R1    R(1,2)                  1.4554         calculate D2E/DX2 analytically  !
 ! R2    R(1,3)                  1.5214         calculate D2E/DX2 analytically  !
 ! R3    R(1,4)                  1.4554         calculate D2E/DX2 analytically  !
 ! R4    R(2,3)                  1.4554         calculate D2E/DX2 analytically  !
 ! R5    R(3,4)                  1.4554         calculate D2E/DX2 analytically  !
 ! A1    A(2,1,4)              116.9748         calculate D2E/DX2 analytically  !
 ! A2    A(2,3,4)              116.9748         calculate D2E/DX2 analytically  !
 ! D1    D(2,1,3,4)            180.0            calculate D2E/DX2 analytically  !
 --------------------------------------------------------------------------------
 Trust Radius=3.00D-01 FncErr=1.00D-07 GrdErr=1.00D-06
 Number of steps in this run=     20 maximum allowed number of steps=    100.
 GradGradGradGradGradGradGradGradGradGradGradGradGradGradGradGradGradGrad

 Leave Link  103 at Mon Apr 27 14:34:31 2015, MaxMem=   524288000 cpu:         0.1
 (Enter /opt/g09/l202.exe)
                          Input orientation:                          
 ---------------------------------------------------------------------
 Center     Atomic      Atomic             Coordinates (Angstroms)
 Number     Number       Type             X           Y           Z
 ---------------------------------------------------------------------
      1          6           0        0.068100    1.331900    0.000000
      2          6           0       -0.271340   -0.083340    0.000000
      3          6           0        1.143900    0.256100    0.000000
      4          6           0        1.483340    1.671340    0.000000
 ---------------------------------------------------------------------
                    Distance matrix (angstroms):
                    1          2          3          4
     1  C    0.000000
     2  C    1.455378   0.000000
     3  C    1.521411   1.455378   0.000000
     4  C    1.455378   2.481492   1.455378   0.000000
 Symmetry turned off by external request.
 Stoichiometry    C4
 Framework group  D2H[C2'(C.C),C2"(C.C)]
 Deg. of freedom     2
 Full point group                 D2H     NOp   8
 Rotational constants (GHZ):     36.3892303     13.6785511      9.9415619
 Leave Link  202 at Mon Apr 27 14:34:31 2015, MaxMem=   524288000 cpu:         0.0
 (Enter /opt/g09/l301.exe)
 Standard basis: 6-311+G(d,p) (5D, 7F)
 Ernie: Thresh=  0.10000D-02 Tol=  0.10000D-05 Strict=F.
 AO basis set in the form of general basis input (Overlap normalization):
      1 0
 S   6 1.00       0.000000000000
      0.4563240000D+04  0.1966650249D-02
      0.6820240000D+03  0.1523060193D-01
      0.1549730000D+03  0.7612690966D-01
      0.4445530000D+02  0.2608010331D+00
      0.1302900000D+02  0.6164620782D+00
      0.1827730000D+01  0.2210060280D+00
 SP   3 1.00       0.000000000000
      0.2096420000D+02  0.1146600807D+00  0.4024869267D-01
      0.4803310000D+01  0.9199996477D+00  0.2375939567D+00
      0.1459330000D+01 -0.3030682134D-02  0.8158538515D+00
 SP   1 1.00       0.000000000000
      0.4834560000D+00  0.1000000000D+01  0.1000000000D+01
 SP   1 1.00       0.000000000000
      0.1455850000D+00  0.1000000000D+01  0.1000000000D+01
 SP   1 1.00       0.000000000000
      0.4380000000D-01  0.1000000000D+01  0.1000000000D+01
 D   1 1.00       0.000000000000
      0.6260000000D+00  0.1000000000D+01
 ****
      2 0
 S   6 1.00       0.000000000000
      0.4563240000D+04  0.1966650249D-02
      0.6820240000D+03  0.1523060193D-01
      0.1549730000D+03  0.7612690966D-01
      0.4445530000D+02  0.2608010331D+00
      0.1302900000D+02  0.6164620782D+00
      0.1827730000D+01  0.2210060280D+00
 SP   3 1.00       0.000000000000
      0.2096420000D+02  0.1146600807D+00  0.4024869267D-01
      0.4803310000D+01  0.9199996477D+00  0.2375939567D+00
      0.1459330000D+01 -0.3030682134D-02  0.8158538515D+00
 SP   1 1.00       0.000000000000
      0.4834560000D+00  0.1000000000D+01  0.1000000000D+01
 SP   1 1.00       0.000000000000
      0.1455850000D+00  0.1000000000D+01  0.1000000000D+01
 SP   1 1.00       0.000000000000
      0.4380000000D-01  0.1000000000D+01  0.1000000000D+01
 D   1 1.00       0.000000000000
      0.6260000000D+00  0.1000000000D+01
 ****
      3 0
 S   6 1.00       0.000000000000
      0.4563240000D+04  0.1966650249D-02
      0.6820240000D+03  0.1523060193D-01
      0.1549730000D+03  0.7612690966D-01
      0.4445530000D+02  0.2608010331D+00
      0.1302900000D+02  0.6164620782D+00
      0.1827730000D+01  0.2210060280D+00
 SP   3 1.00       0.000000000000
      0.2096420000D+02  0.1146600807D+00  0.4024869267D-01
      0.4803310000D+01  0.9199996477D+00  0.2375939567D+00
      0.1459330000D+01 -0.3030682134D-02  0.8158538515D+00
 SP   1 1.00       0.000000000000
      0.4834560000D+00  0.1000000000D+01  0.1000000000D+01
 SP   1 1.00       0.000000000000
      0.1455850000D+00  0.1000000000D+01  0.1000000000D+01
 SP   1 1.00       0.000000000000
      0.4380000000D-01  0.1000000000D+01  0.1000000000D+01
 D   1 1.00       0.000000000000
      0.6260000000D+00  0.1000000000D+01
 ****
      4 0
 S   6 1.00       0.000000000000
      0.4563240000D+04  0.1966650249D-02
      0.6820240000D+03  0.1523060193D-01
      0.1549730000D+03  0.7612690966D-01
      0.4445530000D+02  0.2608010331D+00
      0.1302900000D+02  0.6164620782D+00
      0.1827730000D+01  0.2210060280D+00
 SP   3 1.00       0.000000000000
      0.2096420000D+02  0.1146600807D+00  0.4024869267D-01
      0.4803310000D+01  0.9199996477D+00  0.2375939567D+00
      0.1459330000D+01 -0.3030682134D-02  0.8158538515D+00
 SP   1 1.00       0.000000000000
      0.4834560000D+00  0.1000000000D+01  0.1000000000D+01
 SP   1 1.00       0.000000000000
      0.1455850000D+00  0.1000000000D+01  0.1000000000D+01
 SP   1 1.00       0.000000000000
      0.4380000000D-01  0.1000000000D+01  0.1000000000D+01
 D   1 1.00       0.000000000000
      0.6260000000D+00  0.1000000000D+01
 ****

    88 basis functions,   144 primitive gaussians,    92 cartesian basis functions
    12 alpha electrons       12 beta electrons
       nuclear repulsion energy        72.5570981260 Hartrees.
 IExCor= 1614 DFT=T Ex+Corr=B971 ExCW=0 ScaHFX=  0.210000
 ScaDFX=  1.000000  1.000000  1.000000  1.000000 ScalE2=  1.000000  1.000000
 IRadAn=      5 IRanWt=     -1 IRanGd=            0 ICorTp=0 IEmpDi=  4
 NAtoms=    4 NActive=    4 NUniq=    4 SFac= 1.00D+00 NAtFMM=   60 NAOKFM=F Big=F
 Integral buffers will be    131072 words long.
 Raffenetti 2 integral format.
 Two-electron integral symmetry is turned off.
 Leave Link  301 at Mon Apr 27 14:34:31 2015, MaxMem=   524288000 cpu:         0.4
 (Enter /opt/g09/l302.exe)
 NPDir=0 NMtPBC=     1 NCelOv=     1 NCel=       1 NClECP=     1 NCelD=      1
         NCelK=      1 NCelE2=     1 NClLst=     1 CellRange=     0.0.
 One-electron integrals computed using PRISM.
 NBasis=    88 RedAO= T EigKep=  5.94D-05  NBF=    88
 NBsUse=    88 1.00D-06 EigRej= -1.00D+00 NBFU=    88
 Precomputing XC quadrature grid using
 IXCGrd= 4 IRadAn=           5 IRanWt=          -1 IRanGd=           0 AccXCQ= 0.00D+00.
 Generated NRdTot=       0 NPtTot=           0 NUsed=           0 NTot=          32
 NSgBfM=    92    92    92    92    92 MxSgAt=     4 MxSgA2=     4.
 Leave Link  302 at Mon Apr 27 14:34:31 2015, MaxMem=   524288000 cpu:         1.3
 (Enter /opt/g09/l303.exe)
 DipDrv:  MaxL=1.
 Leave Link  303 at Mon Apr 27 14:34:31 2015, MaxMem=   524288000 cpu:         0.3
 (Enter /opt/g09/l401.exe)
 ExpMin= 4.38D-02 ExpMax= 4.56D+03 ExpMxC= 6.82D+02 IAcc=3 IRadAn=         5 AccDes= 0.00D+00
 Harris functional with IExCor= 1614 and IRadAn=       5 diagonalized for initial guess.
 HarFok:  IExCor= 1614 AccDes= 0.00D+00 IRadAn=         5 IDoV= 1 UseB2=F ITyADJ=14
 ICtDFT=  3500011 ScaDFX=  1.000000  1.000000  1.000000  1.000000
 FoFCou: FMM=F IPFlag=           0 FMFlag=      100000 FMFlg1=           0
         NFxFlg=           0 DoJE=T BraDBF=F KetDBF=T FulRan=T
         wScrn=  0.000000 ICntrl=     500 IOpCl=  0 I1Cent=   200000004 NGrid=           0
         NMat0=    1 NMatS0=      1 NMatT0=    0 NMatD0=    1 NMtDS0=    0 NMtDT0=    0
 Symmetry not used in FoFCou.
 Harris En= -147.824145570024    
 JPrj=0 DoOrth=F DoCkMO=T.
 Mixing orbitals, IMix= 1 IMixAn=  0 NRI=1 NE=   12 Coef=  7.07106781D-01  7.07106781D-01
 Leave Link  401 at Mon Apr 27 14:34:31 2015, MaxMem=   524288000 cpu:         2.1
 (Enter /opt/g09/l502.exe)
 Closed shell SCF:
 Using DIIS extrapolation, IDIIS=  1040.
 Two-electron integral symmetry not used.
 Keep R1 ints in memory in canonical form, NReq=8631594.
 IVT=       45238 IEndB=       45238 NGot=   524288000 MDV=   516573277
 LenX=   516573277 LenY=   516564372
 Requested convergence on RMS density matrix=1.00D-08 within 128 cycles.
 Requested convergence on MAX density matrix=1.00D-06.
 Requested convergence on             energy=1.00D-06.
 No special actions if energy rises.
 FoFCou: FMM=F IPFlag=           0 FMFlag=           0 FMFlg1=           0
         NFxFlg=           0 DoJE=F BraDBF=F KetDBF=F FulRan=T
         wScrn=  0.000000 ICntrl=     600 IOpCl=  0 I1Cent=           0 NGrid=           0
         NMat0=    1 NMatS0=   3916 NMatT0=    0 NMatD0=    1 NMtDS0=    0 NMtDT0=    0
 Symmetry not used in FoFCou.

 Cycle   1  Pass 1  IDiag  1:
 E= -151.873543543810    
 DIIS: error= 9.45D-02 at cycle   1 NSaved=   1.
 NSaved= 1 IEnMin= 1 EnMin= -151.873543543810     IErMin= 1 ErrMin= 9.45D-02
 ErrMax= 9.45D-02  0.00D+00 EMaxC= 1.00D-01 BMatC= 3.39D-01 BMatP= 3.39D-01
 IDIUse=3 WtCom= 5.45D-02 WtEn= 9.45D-01
 Coeff-Com:  0.100D+01
 Coeff-En:   0.100D+01
 Coeff:      0.100D+01
 Gap=     0.032 Goal=   None    Shift=    0.000
 GapD=    0.032 DampG=0.250 DampE=0.500 DampFc=0.2500 IDamp=-1.
 Damping current iteration by 2.50D-01
 RMSDP=1.16D-02 MaxDP=1.51D-01              OVMax= 5.99D-01

 Cycle   2  Pass 1  IDiag  1:
 E= -151.927965704733     Delta-E=       -0.054422160923 Rises=F Damp=T
 DIIS: error= 6.92D-02 at cycle   2 NSaved=   2.
 NSaved= 2 IEnMin= 2 EnMin= -151.927965704733     IErMin= 2 ErrMin= 6.92D-02
 ErrMax= 6.92D-02  0.00D+00 EMaxC= 1.00D-01 BMatC= 1.62D-01 BMatP= 3.39D-01
 IDIUse=3 WtCom= 3.08D-01 WtEn= 6.92D-01
 Coeff-Com: -0.163D+01 0.263D+01
 Coeff-En:   0.000D+00 0.100D+01
 Coeff:     -0.504D+00 0.150D+01
 Gap=     0.181 Goal=   None    Shift=    0.000
 RMSDP=6.75D-03 MaxDP=7.38D-02 DE=-5.44D-02 OVMax= 8.72D-02

 Cycle   3  Pass 1  IDiag  1:
 E= -152.053714411968     Delta-E=       -0.125748707235 Rises=F Damp=F
 DIIS: error= 1.12D-02 at cycle   3 NSaved=   3.
 NSaved= 3 IEnMin= 3 EnMin= -152.053714411968     IErMin= 3 ErrMin= 1.12D-02
 ErrMax= 1.12D-02  0.00D+00 EMaxC= 1.00D-01 BMatC= 6.35D-03 BMatP= 1.62D-01
 IDIUse=3 WtCom= 8.88D-01 WtEn= 1.12D-01
 Coeff-Com:  0.492D+00-0.588D+00 0.110D+01
 Coeff-En:   0.000D+00 0.000D+00 0.100D+01
 Coeff:      0.436D+00-0.522D+00 0.109D+01
 Gap=     0.124 Goal=   None    Shift=    0.000
 RMSDP=1.92D-03 MaxDP=2.40D-02 DE=-1.26D-01 OVMax= 5.87D-02

 Cycle   4  Pass 1  IDiag  1:
 E= -152.061455714374     Delta-E=       -0.007741302407 Rises=F Damp=F
 DIIS: error= 1.64D-03 at cycle   4 NSaved=   4.
 NSaved= 4 IEnMin= 4 EnMin= -152.061455714374     IErMin= 4 ErrMin= 1.64D-03
 ErrMax= 1.64D-03  0.00D+00 EMaxC= 1.00D-01 BMatC= 8.79D-05 BMatP= 6.35D-03
 IDIUse=3 WtCom= 9.84D-01 WtEn= 1.64D-02
 Coeff-Com: -0.917D-02 0.108D-01 0.601D-01 0.938D+00
 Coeff-En:   0.000D+00 0.000D+00 0.000D+00 0.100D+01
 Coeff:     -0.902D-02 0.106D-01 0.592D-01 0.939D+00
 Gap=     0.126 Goal=   None    Shift=    0.000
 RMSDP=4.48D-04 MaxDP=4.71D-03 DE=-7.74D-03 OVMax= 3.51D-02

 Cycle   5  Pass 1  IDiag  1:
 E= -152.061995316331     Delta-E=       -0.000539601957 Rises=F Damp=F
 DIIS: error= 5.93D-04 at cycle   5 NSaved=   5.
 NSaved= 5 IEnMin= 5 EnMin= -152.061995316331     IErMin= 5 ErrMin= 5.93D-04
 ErrMax= 5.93D-04  0.00D+00 EMaxC= 1.00D-01 BMatC= 1.52D-05 BMatP= 8.79D-05
 IDIUse=3 WtCom= 9.94D-01 WtEn= 5.93D-03
 Coeff-Com: -0.334D-01 0.424D-01-0.712D-01-0.116D-01 0.107D+01
 Coeff-En:   0.000D+00 0.000D+00 0.000D+00 0.000D+00 0.100D+01
 Coeff:     -0.332D-01 0.422D-01-0.708D-01-0.115D-01 0.107D+01
 Gap=     0.127 Goal=   None    Shift=    0.000
 RMSDP=1.86D-04 MaxDP=2.04D-03 DE=-5.40D-04 OVMax= 1.50D-02

 Cycle   6  Pass 1  IDiag  1:
 E= -152.062090346577     Delta-E=       -0.000095030246 Rises=F Damp=F
 DIIS: error= 2.21D-04 at cycle   6 NSaved=   6.
 NSaved= 6 IEnMin= 6 EnMin= -152.062090346577     IErMin= 6 ErrMin= 2.21D-04
 ErrMax= 2.21D-04  0.00D+00 EMaxC= 1.00D-01 BMatC= 9.48D-07 BMatP= 1.52D-05
 IDIUse=3 WtCom= 9.98D-01 WtEn= 2.21D-03
 Coeff-Com: -0.754D-02 0.932D-02-0.223D-01-0.744D-01 0.247D+00 0.848D+00
 Coeff-En:   0.000D+00 0.000D+00 0.000D+00 0.000D+00 0.000D+00 0.100D+01
 Coeff:     -0.753D-02 0.930D-02-0.223D-01-0.743D-01 0.246D+00 0.849D+00
 Gap=     0.127 Goal=   None    Shift=    0.000
 RMSDP=6.01D-05 MaxDP=7.04D-04 DE=-9.50D-05 OVMax= 5.16D-03

 Cycle   7  Pass 1  IDiag  1:
 E= -152.062098542750     Delta-E=       -0.000008196173 Rises=F Damp=F
 DIIS: error= 5.67D-05 at cycle   7 NSaved=   7.
 NSaved= 7 IEnMin= 7 EnMin= -152.062098542750     IErMin= 7 ErrMin= 5.67D-05
 ErrMax= 5.67D-05  0.00D+00 EMaxC= 1.00D-01 BMatC= 1.62D-07 BMatP= 9.48D-07
 IDIUse=1 WtCom= 1.00D+00 WtEn= 0.00D+00
 Coeff-Com:  0.491D-03-0.537D-03 0.329D-02-0.133D-01-0.893D-01 0.125D+00
 Coeff-Com:  0.974D+00
 Coeff:      0.491D-03-0.537D-03 0.329D-02-0.133D-01-0.893D-01 0.125D+00
 Coeff:      0.974D+00
 Gap=     0.127 Goal=   None    Shift=    0.000
 RMSDP=1.80D-05 MaxDP=2.06D-04 DE=-8.20D-06 OVMax= 1.54D-03

 Cycle   8  Pass 1  IDiag  1:
 E= -152.062099217634     Delta-E=       -0.000000674884 Rises=F Damp=F
 DIIS: error= 7.82D-06 at cycle   8 NSaved=   8.
 NSaved= 8 IEnMin= 8 EnMin= -152.062099217634     IErMin= 8 ErrMin= 7.82D-06
 ErrMax= 7.82D-06  0.00D+00 EMaxC= 1.00D-01 BMatC= 1.37D-09 BMatP= 1.62D-07
 IDIUse=1 WtCom= 1.00D+00 WtEn= 0.00D+00
 Coeff-Com: -0.177D-03 0.256D-03 0.500D-03 0.452D-03-0.115D-01-0.382D-02
 Coeff-Com:  0.983D-01 0.916D+00
 Coeff:     -0.177D-03 0.256D-03 0.500D-03 0.452D-03-0.115D-01-0.382D-02
 Coeff:      0.983D-01 0.916D+00
 Gap=     0.127 Goal=   None    Shift=    0.000
 RMSDP=9.70D-07 MaxDP=1.43D-05 DE=-6.75D-07 OVMax= 3.84D-05

 Cycle   9  Pass 1  IDiag  1:
 E= -152.062099219615     Delta-E=       -0.000000001981 Rises=F Damp=F
 DIIS: error= 9.81D-07 at cycle   9 NSaved=   9.
 NSaved= 9 IEnMin= 9 EnMin= -152.062099219615     IErMin= 9 ErrMin= 9.81D-07
 ErrMax= 9.81D-07  0.00D+00 EMaxC= 1.00D-01 BMatC= 7.58D-11 BMatP= 1.37D-09
 IDIUse=1 WtCom= 1.00D+00 WtEn= 0.00D+00
 Coeff-Com: -0.545D-04 0.768D-04 0.326D-04 0.515D-03-0.300D-04-0.628D-02
 Coeff-Com: -0.124D-03 0.254D+00 0.752D+00
 Coeff:     -0.545D-04 0.768D-04 0.326D-04 0.515D-03-0.300D-04-0.628D-02
 Coeff:     -0.124D-03 0.254D+00 0.752D+00
 Gap=     0.127 Goal=   None    Shift=    0.000
 RMSDP=1.69D-07 MaxDP=2.16D-06 DE=-1.98D-09 OVMax= 7.11D-06

 Cycle  10  Pass 1  IDiag  1:
 E= -152.062099219715     Delta-E=       -0.000000000100 Rises=F Damp=F
 DIIS: error= 3.68D-07 at cycle  10 NSaved=  10.
 NSaved=10 IEnMin=10 EnMin= -152.062099219715     IErMin=10 ErrMin= 3.68D-07
 ErrMax= 3.68D-07  0.00D+00 EMaxC= 1.00D-01 BMatC= 4.76D-12 BMatP= 7.58D-11
 IDIUse=1 WtCom= 1.00D+00 WtEn= 0.00D+00
 Coeff-Com:  0.312D-05-0.572D-05-0.313D-04 0.117D-04 0.583D-03-0.172D-02
 Coeff-Com: -0.418D-02-0.586D-02 0.148D+00 0.863D+00
 Coeff:      0.312D-05-0.572D-05-0.313D-04 0.117D-04 0.583D-03-0.172D-02
 Coeff:     -0.418D-02-0.586D-02 0.148D+00 0.863D+00
 Gap=     0.127 Goal=   None    Shift=    0.000
 RMSDP=1.13D-07 MaxDP=1.43D-06 DE=-1.00D-10 OVMax= 6.73D-06

 Cycle  11  Pass 1  IDiag  1:
 E= -152.062099219729     Delta-E=       -0.000000000014 Rises=F Damp=F
 DIIS: error= 5.67D-08 at cycle  11 NSaved=  11.
 NSaved=11 IEnMin=11 EnMin= -152.062099219729     IErMin=11 ErrMin= 5.67D-08
 ErrMax= 5.67D-08  0.00D+00 EMaxC= 1.00D-01 BMatC= 2.30D-13 BMatP= 4.76D-12
 IDIUse=1 WtCom= 1.00D+00 WtEn= 0.00D+00
 Coeff-Com: -0.212D-06 0.351D-06 0.107D-05-0.489D-05 0.240D-04-0.439D-04
 Coeff-Com:  0.205D-03-0.649D-02-0.165D-01 0.881D-01 0.935D+00
 Coeff:     -0.212D-06 0.351D-06 0.107D-05-0.489D-05 0.240D-04-0.439D-04
 Coeff:      0.205D-03-0.649D-02-0.165D-01 0.881D-01 0.935D+00
 Gap=     0.127 Goal=   None    Shift=    0.000
 RMSDP=9.39D-09 MaxDP=1.06D-07 DE=-1.38D-11 OVMax= 4.67D-07

 SCF Done:  E(RB971) =  -152.062099220     A.U. after   11 cycles
            NFock= 11  Conv=0.94D-08     -V/T= 2.0032
 KE= 1.515814485099D+02 PE=-4.972878843411D+02 EE= 1.210872384855D+02
 Leave Link  502 at Mon Apr 27 14:34:34 2015, MaxMem=   524288000 cpu:        19.5
 (Enter /opt/g09/l801.exe)
 DoSCS=F DFT=T ScalE2(SS,OS)=  1.000000  1.000000
 Range of M.O.s used for correlation:     1    88
 NBasis=    88 NAE=    12 NBE=    12 NFC=     0 NFV=     0
 NROrb=     88 NOA=    12 NOB=    12 NVA=    76 NVB=    76

 **** Warning!!: The largest alpha MO coefficient is  0.50408873D+02

 Leave Link  801 at Mon Apr 27 14:34:34 2015, MaxMem=   524288000 cpu:         0.3
 (Enter /opt/g09/l1101.exe)
 Using compressed storage, NAtomX=     4.
 Will process      5 centers per pass.
 Leave Link 1101 at Mon Apr 27 14:34:34 2015, MaxMem=   524288000 cpu:         1.2
 (Enter /opt/g09/l1102.exe)
 Symmetrizing basis deriv contribution to polar:
 IMax=3 JMax=2 DiffMx= 0.00D+00
 Leave Link 1102 at Mon Apr 27 14:34:34 2015, MaxMem=   524288000 cpu:         0.3
 (Enter /opt/g09/l1110.exe)
 Forming Gx(P) for the SCF density, NAtomX=     4.
 Integral derivatives from FoFJK, PRISM(SPDF).
 Do as many integral derivatives as possible in FoFJK.
 G2DrvN: MDV=     524287864.
 G2DrvN: will do     5 centers at a time, making    1 passes.
 Calling FoFCou, ICntrl=  3107 FMM=F I1Cent=   0 AccDes= 0.00D+00.
 FoFJK:  IHMeth= 1 ICntrl=    3107 DoSepK=F KAlg= 0 I1Cent=   0 FoldK=F
 IRaf=         0 NMat=   1 IRICut=       1 DoRegI=T DoRafI=F ISym2E= 0.
 FoFCou: FMM=F IPFlag=           0 FMFlag=      100000 FMFlg1=           0
         NFxFlg=           0 DoJE=F BraDBF=F KetDBF=F FulRan=T
         wScrn=  0.000000 ICntrl=    3107 IOpCl=  0 I1Cent=           0 NGrid=           0
         NMat0=    1 NMatS0=      1 NMatT0=    0 NMatD0=    1 NMtDS0=    0 NMtDT0=    0
 Symmetry not used in FoFCou.
 End of G2Drv F.D. properties file   721 does not exist.
 End of G2Drv F.D. properties file   722 does not exist.
 End of G2Drv F.D. properties file   788 does not exist.
 Leave Link 1110 at Mon Apr 27 14:34:38 2015, MaxMem=   524288000 cpu:        25.4
 (Enter /opt/g09/l1002.exe)
 Minotr:  Closed shell wavefunction.
          IDoAtm=1111
          Direct CPHF calculation.
          Differentiating once with respect to electric field.
                with respect to dipole field.
          Differentiating once with respect to nuclear coordinates.
          Requested convergence is 1.0D-08 RMS, and 1.0D-07 maximum.
          Secondary convergence is 1.0D-12 RMS, and 1.0D-12 maximum.
          NewPWx=T KeepS1=F KeepF1=F KeepIn=T MapXYZ=F SortEE=F KeepMc=T.
          MDV=     524287868 using IRadAn=       1.
 Generate precomputed XC quadrature information.
 Keep R1 ints in memory in canonical form, NReq=8585117.
 FoFCou: FMM=F IPFlag=           0 FMFlag=           0 FMFlg1=           0
         NFxFlg=           0 DoJE=F BraDBF=F KetDBF=F FulRan=T
         wScrn=  0.000000 ICntrl=     600 IOpCl=  0 I1Cent=           0 NGrid=           0
         NMat0=    1 NMatS0=   3916 NMatT0=    0 NMatD0=    1 NMtDS0=    0 NMtDT0=    0
 Symmetry not used in FoFCou.
          Solving linear equations simultaneously, MaxMat=       0.
          There are    15 degrees of freedom in the 1st order CPHF.  IDoFFX=6 NUNeed=     3.
     12 vectors produced by pass  0 Test12= 6.08D-15 6.67D-09 XBig12= 5.69D+01 4.55D+00.
 AX will form    12 AO Fock derivatives at one time.
     12 vectors produced by pass  1 Test12= 6.08D-15 6.67D-09 XBig12= 3.23D+01 2.05D+00.
     12 vectors produced by pass  2 Test12= 6.08D-15 6.67D-09 XBig12= 6.60D-01 4.51D-01.
     12 vectors produced by pass  3 Test12= 6.08D-15 6.67D-09 XBig12= 6.32D-03 2.47D-02.
     12 vectors produced by pass  4 Test12= 6.08D-15 6.67D-09 XBig12= 2.11D-05 1.66D-03.
     12 vectors produced by pass  5 Test12= 6.08D-15 6.67D-09 XBig12= 8.77D-08 1.08D-04.
     10 vectors produced by pass  6 Test12= 6.08D-15 6.67D-09 XBig12= 4.45D-10 4.67D-06.
      4 vectors produced by pass  7 Test12= 6.08D-15 6.67D-09 XBig12= 7.34D-13 2.24D-07.
      2 vectors produced by pass  8 Test12= 6.08D-15 6.67D-09 XBig12= 1.47D-15 9.80D-09.
 InvSVY:  IOpt=1 It=  1 EMax= 9.99D-16
 Solved reduced A of dimension    88 with    12 vectors.
 FullF1:  Do perturbations    1 to     3.
 Isotropic polarizability for W=    0.000000       37.54 Bohr**3.
 End of Minotr F.D. properties file   721 does not exist.
 End of Minotr F.D. properties file   722 does not exist.
 End of Minotr F.D. properties file   788 does not exist.
 Leave Link 1002 at Mon Apr 27 14:34:43 2015, MaxMem=   524288000 cpu:        42.0
 (Enter /opt/g09/l701.exe)
 Compute integral second derivatives.
 ... and contract with generalized density number  0.
 Leave Link  701 at Mon Apr 27 14:34:43 2015, MaxMem=   524288000 cpu:         1.8
 (Enter /opt/g09/l702.exe)
 L702 exits ... SP integral derivatives will be done elsewhere.
 Leave Link  702 at Mon Apr 27 14:34:43 2015, MaxMem=   524288000 cpu:         0.3
 (Enter /opt/g09/l703.exe)
 Compute integral second derivatives, UseDBF=F ICtDFT=           0.
 Integral derivatives from FoFJK, PRISM(SPDF).
 Calling FoFJK, ICntrl=    100127 FMM=F ISym2X=0 I1Cent= 0 IOpClX= 0 NMat=1 NMatS=1 NMatT=0.
 FoFJK:  IHMeth= 1 ICntrl=  100127 DoSepK=F KAlg= 0 I1Cent=   0 FoldK=F
 IRaf=         0 NMat=   1 IRICut=       1 DoRegI=T DoRafI=F ISym2E= 0.
 FoFCou: FMM=F IPFlag=           0 FMFlag=      100000 FMFlg1=         800
         NFxFlg=           0 DoJE=F BraDBF=F KetDBF=F FulRan=T
         wScrn=  0.000000 ICntrl=  100127 IOpCl=  0 I1Cent=           0 NGrid=           0
         NMat0=    1 NMatS0=      1 NMatT0=    0 NMatD0=    1 NMtDS0=    0 NMtDT0=    0
 Symmetry not used in FoFCou.
 Leave Link  703 at Mon Apr 27 14:34:51 2015, MaxMem=   524288000 cpu:        63.5
 (Enter /opt/g09/l716.exe)
 Dipole        =-3.50333096D-11 4.72795136D-10 2.78010939D-13
 Polarizability= 4.22163365D+01 2.48892207D+00 4.22163365D+01
                 9.20390205D-08 9.23035021D-08 2.81994431D+01
 -------------------------------------------------------------------
 Center     Atomic                   Forces (Hartrees/Bohr)
 Number     Number              X              Y              Z
 -------------------------------------------------------------------
      1        6          -0.000001728    0.000001728    0.000000000
      2        6          -0.000005801   -0.000005801    0.000000003
      3        6           0.000001728   -0.000001728    0.000000000
      4        6           0.000005801    0.000005801   -0.000000003
 -------------------------------------------------------------------
 Cartesian Forces:  Max     0.000005801 RMS     0.000003495
 Force constants in Cartesian coordinates: 
                1             2             3             4             5 
      1  0.328418D+00
      2  0.257726D-01  0.328418D+00
      3  0.000000D+00  0.000000D+00  0.111380D-01
      4 -0.267164D-01 -0.900303D-01  0.000000D+00  0.275398D+00
      5 -0.926175D-01 -0.204618D+00  0.000000D+00  0.195733D+00  0.275398D+00
      6  0.000000D+00  0.000000D+00 -0.111350D-01  0.000000D+00  0.000000D+00
      7 -0.970838D-01  0.156875D+00  0.000000D+00 -0.204618D+00 -0.900303D-01
      8  0.156875D+00 -0.970838D-01  0.000000D+00 -0.926175D-01 -0.267164D-01
      9  0.000000D+00  0.000000D+00  0.111320D-01  0.000000D+00  0.000000D+00
     10 -0.204618D+00 -0.926175D-01  0.000000D+00 -0.440637D-01 -0.130854D-01
     11 -0.900303D-01 -0.267164D-01  0.000000D+00 -0.130854D-01 -0.440637D-01
     12  0.000000D+00  0.000000D+00 -0.111350D-01  0.000000D+00  0.000000D+00
                6             7             8             9            10 
      6  0.111334D-01
      7  0.000000D+00  0.328418D+00
      8  0.000000D+00  0.257726D-01  0.328418D+00
      9 -0.111350D-01  0.000000D+00  0.000000D+00  0.111380D-01
     10  0.000000D+00 -0.267164D-01 -0.900303D-01  0.000000D+00  0.275398D+00
     11  0.000000D+00 -0.926175D-01 -0.204618D+00  0.000000D+00  0.195733D+00
     12  0.111366D-01  0.000000D+00  0.000000D+00 -0.111350D-01  0.000000D+00
               11            12 
     11  0.275398D+00
     12  0.000000D+00  0.111334D-01
 FormGI is forming the generalized inverse of G from B-inverse, IUseBI=4.
 Force constants in internal coordinates: 
                1             2             3             4             5 
      1  0.204304D+00
      2  0.394991D-02  0.141609D+00
      3 -0.393573D-01  0.394991D-02  0.204304D+00
      4  0.876869D-01  0.394991D-02  0.465501D-01  0.204304D+00
      5  0.465501D-01  0.394991D-02  0.876869D-01 -0.393573D-01  0.204304D+00
      6  0.225569D-01 -0.586351D-01  0.225569D-01  0.407695D-01  0.407695D-01
      7  0.407695D-01 -0.586351D-01  0.407695D-01  0.225569D-01  0.225569D-01
      8  0.000000D+00  0.000000D+00  0.000000D+00  0.000000D+00  0.000000D+00
                6             7             8 
      6  0.499259D-01
      7  0.283238D-01  0.499259D-01
      8  0.000000D+00  0.000000D+00  0.612203D-01
 Leave Link  716 at Mon Apr 27 14:34:51 2015, MaxMem=   524288000 cpu:         0.3
 (Enter /opt/g09/l103.exe)

 GradGradGradGradGradGradGradGradGradGradGradGradGradGradGradGradGradGrad
 Berny optimization.
 Red2BG is reusing G-inverse.
 Internal  Forces:  Max     0.000004317 RMS     0.000003257
 Search for a local minimum.
 Step number   1 out of a maximum of   20
 All quantities printed in internal units (Hartrees-Bohrs-Radians)
 RMS Force = .32573D-05 SwitMx=.10000D-02 MixMth= 2
 Mixed Optimization -- En-DIIS/RFO-DIIS
 Second derivative matrix not updated -- analytic derivatives used.
 The second derivative matrix:
                          R1        R2        R3        R4        R5
           R1           0.20430
           R2           0.00395   0.14161
           R3          -0.03936   0.00395   0.20430
           R4           0.08769   0.00395   0.04655   0.20430
           R5           0.04655   0.00395   0.08769  -0.03936   0.20430
           A1           0.02256  -0.05864   0.02256   0.04077   0.04077
           A2           0.04077  -0.05864   0.04077   0.02256   0.02256
           D1           0.00000   0.00000   0.00000   0.00000   0.00000
                          A1        A2        D1
           A1           0.04993
           A2           0.02832   0.04993
           D1           0.00000   0.00000   0.06122
 ITU=  0
     Eigenvalues ---    0.05231   0.06122   0.18569   0.20252   0.28480
     Eigenvalues ---    0.33335
 RFO step:  Lambda= 0.00000000D+00 EMin= 5.23121938D-02
 Linear search not attempted -- first point.
 Iteration  1 RMS(Cart)=  0.00000786 RMS(Int)=  0.00000000
 Iteration  2 RMS(Cart)=  0.00000000 RMS(Int)=  0.00000000
 ITry= 1 IFail=0 DXMaxC= 1.11D-05 DCOld= 1.00D+10 DXMaxT= 3.00D-01 DXLimC= 3.00D+00 Rises=F
 Variable       Old X    -DE/DX   Delta X   Delta X   Delta X     New X
                                 (Linear)    (Quad)   (Total)
    R1        2.75026   0.00000   0.00000   0.00001   0.00001   2.75028
    R2        2.87505   0.00000   0.00000   0.00000   0.00000   2.87505
    R3        2.75026   0.00000   0.00000   0.00001   0.00001   2.75028
    R4        2.75026   0.00000   0.00000   0.00001   0.00001   2.75028
    R5        2.75026   0.00000   0.00000   0.00001   0.00001   2.75028
    A1        2.04160   0.00000   0.00000   0.00001   0.00001   2.04160
    A2        2.04160   0.00000   0.00000   0.00001   0.00001   2.04160
    D1        3.14159   0.00000   0.00000   0.00000   0.00000   3.14159
         Item               Value     Threshold  Converged?
 Maximum Force            0.000004     0.000015     YES
 RMS     Force            0.000003     0.000010     YES
 Maximum Displacement     0.000011     0.000060     YES
 RMS     Displacement     0.000008     0.000040     YES
 Predicted change in Energy=-1.275702D-10
 Optimization completed.
    -- Stationary point found.
                           ----------------------------
                           !   Optimized Parameters   !
                           ! (Angstroms and Degrees)  !
 --------------------------                            --------------------------
 ! Name  Definition              Value          Derivative Info.                !
 --------------------------------------------------------------------------------
 ! R1    R(1,2)                  1.4554         -DE/DX =    0.0                 !
 ! R2    R(1,3)                  1.5214         -DE/DX =    0.0                 !
 ! R3    R(1,4)                  1.4554         -DE/DX =    0.0                 !
 ! R4    R(2,3)                  1.4554         -DE/DX =    0.0                 !
 ! R5    R(3,4)                  1.4554         -DE/DX =    0.0                 !
 ! A1    A(2,1,4)              116.9748         -DE/DX =    0.0                 !
 ! A2    A(2,3,4)              116.9748         -DE/DX =    0.0                 !
 ! D1    D(2,1,3,4)            180.0            -DE/DX =    0.0                 !
 --------------------------------------------------------------------------------
 Lowest energy point so far.  Saving SCF results.
 GradGradGradGradGradGradGradGradGradGradGradGradGradGradGradGradGradGrad

 Largest change from initial coordinates is atom    0       0.000 Angstoms.
 Leave Link  103 at Mon Apr 27 14:34:51 2015, MaxMem=   524288000 cpu:         0.0
 (Enter /opt/g09/l202.exe)
                          Input orientation:                          
 ---------------------------------------------------------------------
 Center     Atomic      Atomic             Coordinates (Angstroms)
 Number     Number       Type             X           Y           Z
 ---------------------------------------------------------------------
      1          6           0        0.068100    1.331900    0.000000
      2          6           0       -0.271340   -0.083340    0.000000
      3          6           0        1.143900    0.256100    0.000000
      4          6           0        1.483340    1.671340    0.000000
 ---------------------------------------------------------------------
                    Distance matrix (angstroms):
                    1          2          3          4
     1  C    0.000000
     2  C    1.455378   0.000000
     3  C    1.521411   1.455378   0.000000
     4  C    1.455378   2.481492   1.455378   0.000000
 Symmetry turned off by external request.
 Stoichiometry    C4
 Framework group  D2H[C2'(C.C),C2"(C.C)]
 Deg. of freedom     2
 Full point group                 D2H     NOp   8
 Rotational constants (GHZ):     36.3892303     13.6785511      9.9415619
 Leave Link  202 at Mon Apr 27 14:34:51 2015, MaxMem=   524288000 cpu:         0.0
 (Enter /opt/g09/l716.exe)
 Dipole        =-3.50333096D-11 4.72795136D-10 2.78010939D-13
 Polarizability= 4.22163365D+01 2.48892207D+00 4.22163365D+01
                 9.20390205D-08 9.23035021D-08 2.81994431D+01
 Full mass-weighted force constant matrix:
 Low frequencies ---   -3.9866   -2.6553   -0.0009   -0.0005   -0.0002    3.6451
 Low frequencies ---  313.1760  463.0567  898.4305
 Diagonal vibrational polarizability:
        4.7970356       4.7970355      13.8607885
 Harmonic frequencies (cm**-1), IR intensities (KM/Mole), Raman scattering
 activities (A**4/AMU), depolarization ratios for plane and unpolarized
 incident light, reduced masses (AMU), force constants (mDyne/A),
 and normal coordinates:
                      1                      2                      3
                      A                      A                      A
 Frequencies --    313.1760               463.0567               898.4305
 Red. masses --     12.0000                12.0000                12.0000
 Frc consts  --      0.6934                 1.5160                 5.7069
 IR Inten    --     50.5163                44.7457                 0.0000
  Atom  AN      X      Y      Z        X      Y      Z        X      Y      Z
     1   6     0.00   0.00   0.50     0.35  -0.35   0.00    -0.34   0.34   0.00
     2   6     0.00   0.00  -0.50    -0.35   0.35   0.00     0.37   0.37   0.00
     3   6     0.00   0.00   0.50     0.35  -0.35   0.00     0.34  -0.34   0.00
     4   6     0.00   0.00  -0.50    -0.35   0.35   0.00    -0.37  -0.37   0.00
                      4                      5                      6
                      A                      A                      A
 Frequencies --    944.4262              1257.6946              1350.2667
 Red. masses --     12.0000                12.0000                12.0000
 Frc consts  --      6.3062                11.1836                12.8905
 IR Inten    --      0.0000                 0.0000               269.5217
  Atom  AN      X      Y      Z        X      Y      Z        X      Y      Z
     1   6     0.43   0.43   0.00     0.37  -0.37   0.00     0.35   0.35   0.00
     2   6     0.26  -0.26   0.00     0.34   0.34   0.00    -0.35  -0.35   0.00
     3   6    -0.43  -0.43   0.00    -0.37   0.37   0.00     0.35   0.35   0.00
     4   6    -0.26   0.26   0.00    -0.34  -0.34   0.00    -0.35  -0.35   0.00

 -------------------
 - Thermochemistry -
 -------------------
 Temperature   298.150 Kelvin.  Pressure   1.00000 Atm.
 Atom     1 has atomic number  6 and mass  12.00000
 Atom     2 has atomic number  6 and mass  12.00000
 Atom     3 has atomic number  6 and mass  12.00000
 Atom     4 has atomic number  6 and mass  12.00000
 Molecular mass:    48.00000 amu.
 Principal axes and moments of inertia in atomic units:
                           1         2         3
     Eigenvalues --    49.59548 131.93950 181.53498
           X            0.70711   0.70711   0.00000
           Y            0.70711  -0.70711   0.00000
           Z            0.00000   0.00000   1.00000
 This molecule is an asymmetric top.
 Rotational symmetry number  4.
 Rotational temperatures (Kelvin)      1.74641     0.65647     0.47712
 Rotational constants (GHZ):          36.38923    13.67855     9.94156
 Zero-point vibrational energy      31264.7 (Joules/Mol)
                                    7.47244 (Kcal/Mol)
 Warning -- explicit consideration of   2 degrees of freedom as
           vibrations may cause significant error
 Vibrational temperatures:    450.59   666.23  1292.64  1358.82  1809.54
          (Kelvin)           1942.73
 
 Zero-point correction=                           0.011908 (Hartree/Particle)
 Thermal correction to Energy=                    0.015520
 Thermal correction to Enthalpy=                  0.016464
 Thermal correction to Gibbs Free Energy=        -0.011517
 Sum of electronic and zero-point Energies=           -152.050191
 Sum of electronic and thermal Energies=              -152.046579
 Sum of electronic and thermal Enthalpies=            -152.045635
 Sum of electronic and thermal Free Energies=         -152.073616
 
                     E (Thermal)             CV                S
                      KCal/Mol        Cal/Mol-Kelvin    Cal/Mol-Kelvin
 Total                    9.739             10.182             58.891
 Electronic               0.000              0.000              0.000
 Translational            0.889              2.981             37.530
 Rotational               0.889              2.981             18.946
 Vibrational              7.961              4.220              2.415
 Vibration     1          0.701              1.649              1.346
 Vibration     2          0.821              1.332              0.757
                       Q            Log10(Q)             Ln(Q)
 Total Bot       0.198396D+06          5.297533         12.198021
 Total V=0       0.595479D+11         10.774866         24.810046
 Vib (Bot)       0.492086D-05         -5.307959        -12.222027
 Vib (Bot)    1  0.602674D+00         -0.219917         -0.506378
 Vib (Bot)    2  0.366386D+00         -0.436061         -1.004068
 Vib (V=0)       0.147698D+01          0.169374          0.389998
 Vib (V=0)    1  0.128308D+01          0.108254          0.249264
 Vib (V=0)    2  0.111987D+01          0.049168          0.113212
 Electronic      0.100000D+01          0.000000          0.000000
 Translational   0.130712D+08          7.116317         16.385926
 Rotational      0.308443D+04          3.489175          8.034122
 
                    W:\Data\additional_hydrocarbons\nist\enthalpy_estimation\succ
 ess\fine\corr_b971_12184-80-4.g09
                                                             IR Spectrum
 
     1        1                                                                                                                      
     3        2                             9   8                                        4             3                             
     5        5                             4   9                                        6             1                             
     0        8                             4   8                                        3             3                             
 
     X                                                                                   X             X                             
     X                                                                                   X             X                             
     X                                                                                   X             X                             
     X                                                                                                 X                             
     X                                                                                                                               
     X                                                                                                                               
     X                                                                                                                               
     X                                                                                                                               
     X                                                                                                                               
     X                                                                                                                               
     X                                                                                                                               
     X                                                                                                                               
     X                                                                                                                               
     X                                                                                                                               
     X                                                                                                                               
     X                                                                                                                               
     X                                                                                                                               
     X                                                                                                                               
     X                                                                                                                               
     X                                                                                                                               
 
 -------------------------------------------------------------------
 Center     Atomic                   Forces (Hartrees/Bohr)
 Number     Number              X              Y              Z
 -------------------------------------------------------------------
      1        6          -0.000001728    0.000001728    0.000000000
      2        6          -0.000005801   -0.000005801    0.000000003
      3        6           0.000001728   -0.000001728    0.000000000
      4        6           0.000005801    0.000005801   -0.000000003
 -------------------------------------------------------------------
 Cartesian Forces:  Max     0.000005801 RMS     0.000003495
 Force constants in Cartesian coordinates: 
                1             2             3             4             5 
      1  0.328418D+00
      2  0.257726D-01  0.328418D+00
      3  0.000000D+00  0.000000D+00  0.111380D-01
      4 -0.267164D-01 -0.900303D-01  0.000000D+00  0.275398D+00
      5 -0.926175D-01 -0.204618D+00  0.000000D+00  0.195733D+00  0.275398D+00
      6  0.000000D+00  0.000000D+00 -0.111350D-01  0.000000D+00  0.000000D+00
      7 -0.970838D-01  0.156875D+00  0.000000D+00 -0.204618D+00 -0.900303D-01
      8  0.156875D+00 -0.970838D-01  0.000000D+00 -0.926175D-01 -0.267164D-01
      9  0.000000D+00  0.000000D+00  0.111320D-01  0.000000D+00  0.000000D+00
     10 -0.204618D+00 -0.926175D-01  0.000000D+00 -0.440637D-01 -0.130854D-01
     11 -0.900303D-01 -0.267164D-01  0.000000D+00 -0.130854D-01 -0.440637D-01
     12  0.000000D+00  0.000000D+00 -0.111350D-01  0.000000D+00  0.000000D+00
                6             7             8             9            10 
      6  0.111334D-01
      7  0.000000D+00  0.328418D+00
      8  0.000000D+00  0.257726D-01  0.328418D+00
      9 -0.111350D-01  0.000000D+00  0.000000D+00  0.111380D-01
     10  0.000000D+00 -0.267164D-01 -0.900303D-01  0.000000D+00  0.275398D+00
     11  0.000000D+00 -0.926175D-01 -0.204618D+00  0.000000D+00  0.195733D+00
     12  0.111366D-01  0.000000D+00  0.000000D+00 -0.111350D-01  0.000000D+00
               11            12 
     11  0.275398D+00
     12  0.000000D+00  0.111334D-01
 Red2BG is reusing G-inverse.
 Force constants in internal coordinates: 
                1             2             3             4             5 
      1  0.204304D+00
      2  0.394991D-02  0.141609D+00
      3 -0.393573D-01  0.394991D-02  0.204304D+00
      4  0.876869D-01  0.394991D-02  0.465501D-01  0.204304D+00
      5  0.465501D-01  0.394991D-02  0.876869D-01 -0.393573D-01  0.204304D+00
      6  0.225569D-01 -0.586351D-01  0.225569D-01  0.407695D-01  0.407695D-01
      7  0.407695D-01 -0.586351D-01  0.407695D-01  0.225569D-01  0.225569D-01
      8  0.000000D+00  0.000000D+00  0.000000D+00  0.000000D+00  0.000000D+00
                6             7             8 
      6  0.499259D-01
      7  0.283238D-01  0.499259D-01
      8  0.000000D+00  0.000000D+00  0.612203D-01
 Leave Link  716 at Mon Apr 27 14:34:51 2015, MaxMem=   524288000 cpu:         0.3
 (Enter /opt/g09/l9999.exe)
 1\1\GINC-ARP\Freq\RB971\6-311+G(d,p)\C4\PB556\27-Apr-2015\0\\#p rB971/
 6-311+G(d,p) Opt=(Tight, CalcAll) Freq GFInput Population=None Integra
 l(Grid=UltraFine) Guess=MIX NoSymmetry\\W:\Data\additional_hydrocarbon
 s\nist\enthalpy_estimation\success\fine\corr_b971_12184-80-4.g09\\0,1\
 C,0.0681,1.3319,0.\C,-0.27134,-0.08334,0.\C,1.1439,0.2561,0.\C,1.48334
 ,1.67134,0.\\Version=ES64L-G09RevD.01\HF=-152.0620992\RMSD=9.391e-09\R
 MSF=3.495e-06\ZeroPoint=0.0119081\Thermal=0.0155198\Dipole=0.,0.,0.\Di
 poleDeriv=-0.6408939,-0.2698197,0.,-0.2698197,-0.6408939,0.,0.,0.,0.39
 42764,0.6408939,0.2698197,0.,0.2698197,0.6408939,0.,0.,0.,-0.3942764,-
 0.6408939,-0.2698197,0.,-0.2698197,-0.6408939,0.,0.,0.,0.3942764,0.640
 8939,0.2698197,0.,0.2698197,0.6408939,0.,0.,0.,-0.3942764\Polar=42.216
 3365,2.4889221,42.2163365,0.,0.,28.1994431\PG=D02H [C2'(C1.C1),C2"(C1.
 C1)]\NImag=0\\0.32841839,0.02577257,0.32841839,0.,0.,0.01113800,-0.026
 71639,-0.09003031,0.,0.27539829,-0.09261749,-0.20461818,0.,0.19573324,
 0.27539829,0.,0.,-0.01113498,0.,0.,0.01113338,-0.09708382,0.15687522,0
 .,-0.20461818,-0.09003031,0.,0.32841839,0.15687522,-0.09708382,0.,-0.0
 9261749,-0.02671639,0.,0.02577257,0.32841839,0.,0.,0.01113197,0.,0.,-0
 .01113498,0.,0.,0.01113800,-0.20461818,-0.09261749,0.,-0.04406372,-0.0
 1308545,0.,-0.02671639,-0.09003031,0.,0.27539829,-0.09003031,-0.026716
 39,0.,-0.01308544,-0.04406372,0.,-0.09261749,-0.20461818,0.,0.19573324
 ,0.27539829,0.,0.,-0.01113498,0.,0.,0.01113658,0.,0.,-0.01113498,0.,0.
 ,0.01113338\\0.00000173,-0.00000173,0.,0.00000580,0.00000580,0.,-0.000
 00173,0.00000173,0.,-0.00000580,-0.00000580,0.\\\@


    WHAT WE HAVE LEARNED
 IS LIKE A HANDFUL OF EARTH;
  WHAT WE HAVE YET TO LEARN
   IS LIKE THE WHOLE WORLD.

         -- AVVAYIAR
 Leave Link 9999 at Mon Apr 27 14:34:51 2015, MaxMem=   524288000 cpu:         0.3
 Job cpu time:       0 days  0 hours  2 minutes 42.1 seconds.
 File lengths (MBytes):  RWF=      9 Int=      0 D2E=      0 Chk=      2 Scr=      1
 Normal termination of Gaussian 09 at Mon Apr 27 14:34:51 2015.
 (Enter /opt/g09/l1.exe)
 Link1:  Proceeding to internal job step number  2.
 ----------------------------------------------------------------------
 #P Geom=AllCheck Guess=TCheck SCRF=Check GenChk RB971/6-311+G(d,p) Fre
 q
 ----------------------------------------------------------------------
 1/7=10,10=4,29=7,30=1,38=1,40=1/1,3;
 2/12=2,15=1,40=1/2;
 3/5=4,6=6,7=111,11=2,14=-4,16=1,24=10,25=1,30=1,70=2,71=2,74=-20,75=-5,116=1,140=1/1,2,3;
 4/5=101/1;
 5/5=2,98=1/2;
 8/6=4,10=90,11=11/1;
 11/6=1,8=1,9=11,15=111,16=1,31=1/1,2,10;
 10/6=1,31=1/2;
 7/8=1,10=1,25=1,30=1/1,2,3,16;
 1/7=10,10=4,30=1/3;
 99//99;
 Leave Link    1 at Mon Apr 27 14:34:52 2015, MaxMem=   524288000 cpu:         0.4
 (Enter /opt/g09/l101.exe)
 Structure from the checkpoint file:  "/scratch/pb556/g09_run/add_hco//Gau-4878.chk"
 ----------------------------------------------------------------------
 W:\Data\additional_hydrocarbons\nist\enthalpy_estimation\success\fine\
 corr_b971_12184-80-4.g09
 ----------------------------------------------------------------------
 Charge =  0 Multiplicity = 1
 Redundant internal coordinates found in file.
 C,0,0.0681,1.3319,0.
 C,0,-0.27134,-0.08334,0.
 C,0,1.1439,0.2561,0.
 C,0,1.48334,1.67134,0.
 Recover connectivity data from disk.
 NAtoms=      4 NQM=        4 NQMF=       0 NMMI=      0 NMMIF=      0
                NMic=       0 NMicF=      0.
                    Isotopes and Nuclear Properties:
 (Nuclear quadrupole moments (NQMom) in fm**2, nuclear magnetic moments (NMagM)
  in nuclear magnetons)

  Atom         1           2           3           4
 IAtWgt=          12          12          12          12
 AtmWgt=  12.0000000  12.0000000  12.0000000  12.0000000
 NucSpn=           0           0           0           0
 AtZEff=  -3.6000000  -3.6000000  -3.6000000  -3.6000000
 NQMom=    0.0000000   0.0000000   0.0000000   0.0000000
 NMagM=    0.0000000   0.0000000   0.0000000   0.0000000
 AtZNuc=   6.0000000   6.0000000   6.0000000   6.0000000
 Leave Link  101 at Mon Apr 27 14:34:52 2015, MaxMem=   524288000 cpu:         1.8
 (Enter /opt/g09/l103.exe)

 GradGradGradGradGradGradGradGradGradGradGradGradGradGradGradGradGradGrad
 Berny optimization.
 Initialization pass.
                           ----------------------------
                           !    Initial Parameters    !
                           ! (Angstroms and Degrees)  !
 --------------------------                            --------------------------
 ! Name  Definition              Value          Derivative Info.                !
 --------------------------------------------------------------------------------
 ! R1    R(1,2)                  1.4554         calculate D2E/DX2 analytically  !
 ! R2    R(1,3)                  1.5214         calculate D2E/DX2 analytically  !
 ! R3    R(1,4)                  1.4554         calculate D2E/DX2 analytically  !
 ! R4    R(2,3)                  1.4554         calculate D2E/DX2 analytically  !
 ! R5    R(3,4)                  1.4554         calculate D2E/DX2 analytically  !
 ! A1    A(2,1,4)              116.9748         calculate D2E/DX2 analytically  !
 ! A2    A(2,3,4)              116.9748         calculate D2E/DX2 analytically  !
 ! D1    D(2,1,3,4)            180.0            calculate D2E/DX2 analytically  !
 --------------------------------------------------------------------------------
 Trust Radius=3.00D-01 FncErr=1.00D-07 GrdErr=1.00D-07
 Number of steps in this run=      2 maximum allowed number of steps=      2.
 GradGradGradGradGradGradGradGradGradGradGradGradGradGradGradGradGradGrad

 Leave Link  103 at Mon Apr 27 14:34:52 2015, MaxMem=   524288000 cpu:         0.1
 (Enter /opt/g09/l202.exe)
                          Input orientation:                          
 ---------------------------------------------------------------------
 Center     Atomic      Atomic             Coordinates (Angstroms)
 Number     Number       Type             X           Y           Z
 ---------------------------------------------------------------------
      1          6           0        0.068100    1.331900    0.000000
      2          6           0       -0.271340   -0.083340    0.000000
      3          6           0        1.143900    0.256100    0.000000
      4          6           0        1.483340    1.671340    0.000000
 ---------------------------------------------------------------------
                    Distance matrix (angstroms):
                    1          2          3          4
     1  C    0.000000
     2  C    1.455378   0.000000
     3  C    1.521411   1.455378   0.000000
     4  C    1.455378   2.481492   1.455378   0.000000
 Symmetry turned off by external request.
 Stoichiometry    C4
 Framework group  D2H[C2'(C.C),C2"(C.C)]
 Deg. of freedom     2
 Full point group                 D2H     NOp   8
 Rotational constants (GHZ):     36.3892303     13.6785511      9.9415619
 Leave Link  202 at Mon Apr 27 14:34:52 2015, MaxMem=   524288000 cpu:         0.0
 (Enter /opt/g09/l301.exe)
 Standard basis: 6-311+G(d,p) (5D, 7F)
 Ernie: Thresh=  0.10000D-02 Tol=  0.10000D-05 Strict=F.
 AO basis set in the form of general basis input (Overlap normalization):
      1 0
 S   6 1.00       0.000000000000
      0.4563240000D+04  0.1966650249D-02
      0.6820240000D+03  0.1523060193D-01
      0.1549730000D+03  0.7612690966D-01
      0.4445530000D+02  0.2608010331D+00
      0.1302900000D+02  0.6164620782D+00
      0.1827730000D+01  0.2210060280D+00
 SP   3 1.00       0.000000000000
      0.2096420000D+02  0.1146600807D+00  0.4024869267D-01
      0.4803310000D+01  0.9199996477D+00  0.2375939567D+00
      0.1459330000D+01 -0.3030682134D-02  0.8158538515D+00
 SP   1 1.00       0.000000000000
      0.4834560000D+00  0.1000000000D+01  0.1000000000D+01
 SP   1 1.00       0.000000000000
      0.1455850000D+00  0.1000000000D+01  0.1000000000D+01
 SP   1 1.00       0.000000000000
      0.4380000000D-01  0.1000000000D+01  0.1000000000D+01
 D   1 1.00       0.000000000000
      0.6260000000D+00  0.1000000000D+01
 ****
      2 0
 S   6 1.00       0.000000000000
      0.4563240000D+04  0.1966650249D-02
      0.6820240000D+03  0.1523060193D-01
      0.1549730000D+03  0.7612690966D-01
      0.4445530000D+02  0.2608010331D+00
      0.1302900000D+02  0.6164620782D+00
      0.1827730000D+01  0.2210060280D+00
 SP   3 1.00       0.000000000000
      0.2096420000D+02  0.1146600807D+00  0.4024869267D-01
      0.4803310000D+01  0.9199996477D+00  0.2375939567D+00
      0.1459330000D+01 -0.3030682134D-02  0.8158538515D+00
 SP   1 1.00       0.000000000000
      0.4834560000D+00  0.1000000000D+01  0.1000000000D+01
 SP   1 1.00       0.000000000000
      0.1455850000D+00  0.1000000000D+01  0.1000000000D+01
 SP   1 1.00       0.000000000000
      0.4380000000D-01  0.1000000000D+01  0.1000000000D+01
 D   1 1.00       0.000000000000
      0.6260000000D+00  0.1000000000D+01
 ****
      3 0
 S   6 1.00       0.000000000000
      0.4563240000D+04  0.1966650249D-02
      0.6820240000D+03  0.1523060193D-01
      0.1549730000D+03  0.7612690966D-01
      0.4445530000D+02  0.2608010331D+00
      0.1302900000D+02  0.6164620782D+00
      0.1827730000D+01  0.2210060280D+00
 SP   3 1.00       0.000000000000
      0.2096420000D+02  0.1146600807D+00  0.4024869267D-01
      0.4803310000D+01  0.9199996477D+00  0.2375939567D+00
      0.1459330000D+01 -0.3030682134D-02  0.8158538515D+00
 SP   1 1.00       0.000000000000
      0.4834560000D+00  0.1000000000D+01  0.1000000000D+01
 SP   1 1.00       0.000000000000
      0.1455850000D+00  0.1000000000D+01  0.1000000000D+01
 SP   1 1.00       0.000000000000
      0.4380000000D-01  0.1000000000D+01  0.1000000000D+01
 D   1 1.00       0.000000000000
      0.6260000000D+00  0.1000000000D+01
 ****
      4 0
 S   6 1.00       0.000000000000
      0.4563240000D+04  0.1966650249D-02
      0.6820240000D+03  0.1523060193D-01
      0.1549730000D+03  0.7612690966D-01
      0.4445530000D+02  0.2608010331D+00
      0.1302900000D+02  0.6164620782D+00
      0.1827730000D+01  0.2210060280D+00
 SP   3 1.00       0.000000000000
      0.2096420000D+02  0.1146600807D+00  0.4024869267D-01
      0.4803310000D+01  0.9199996477D+00  0.2375939567D+00
      0.1459330000D+01 -0.3030682134D-02  0.8158538515D+00
 SP   1 1.00       0.000000000000
      0.4834560000D+00  0.1000000000D+01  0.1000000000D+01
 SP   1 1.00       0.000000000000
      0.1455850000D+00  0.1000000000D+01  0.1000000000D+01
 SP   1 1.00       0.000000000000
      0.4380000000D-01  0.1000000000D+01  0.1000000000D+01
 D   1 1.00       0.000000000000
      0.6260000000D+00  0.1000000000D+01
 ****

    88 basis functions,   144 primitive gaussians,    92 cartesian basis functions
    12 alpha electrons       12 beta electrons
       nuclear repulsion energy        72.5570981260 Hartrees.
 IExCor= 1614 DFT=T Ex+Corr=B971 ExCW=0 ScaHFX=  0.210000
 ScaDFX=  1.000000  1.000000  1.000000  1.000000 ScalE2=  1.000000  1.000000
 IRadAn=      5 IRanWt=     -1 IRanGd=            0 ICorTp=0 IEmpDi=  4
 NAtoms=    4 NActive=    4 NUniq=    4 SFac= 1.00D+00 NAtFMM=   60 NAOKFM=F Big=F
 Integral buffers will be    131072 words long.
 Raffenetti 2 integral format.
 Two-electron integral symmetry is turned off.
 Leave Link  301 at Mon Apr 27 14:34:52 2015, MaxMem=   524288000 cpu:         0.4
 (Enter /opt/g09/l302.exe)
 NPDir=0 NMtPBC=     1 NCelOv=     1 NCel=       1 NClECP=     1 NCelD=      1
         NCelK=      1 NCelE2=     1 NClLst=     1 CellRange=     0.0.
 One-electron integrals computed using PRISM.
 NBasis=    88 RedAO= T EigKep=  5.94D-05  NBF=    88
 NBsUse=    88 1.00D-06 EigRej= -1.00D+00 NBFU=    88
 Precomputing XC quadrature grid using
 IXCGrd= 4 IRadAn=           5 IRanWt=          -1 IRanGd=           0 AccXCQ= 0.00D+00.
 Generated NRdTot=       0 NPtTot=           0 NUsed=           0 NTot=          32
 NSgBfM=    92    92    92    92    92 MxSgAt=     4 MxSgA2=     4.
 Leave Link  302 at Mon Apr 27 14:34:52 2015, MaxMem=   524288000 cpu:         1.3
 (Enter /opt/g09/l303.exe)
 DipDrv:  MaxL=1.
 Leave Link  303 at Mon Apr 27 14:34:52 2015, MaxMem=   524288000 cpu:         0.3
 (Enter /opt/g09/l401.exe)
 Initial guess from the checkpoint file:  "/scratch/pb556/g09_run/add_hco//Gau-4878.chk"
 B after Tr=     0.000000    0.000000    0.000000
         Rot=    1.000000    0.000000    0.000000    0.000000 Ang=   0.00 deg.
 Guess basis will be translated and rotated to current coordinates.
 JPrj=2 DoOrth=T DoCkMO=T.
 Leave Link  401 at Mon Apr 27 14:34:52 2015, MaxMem=   524288000 cpu:         0.8
 (Enter /opt/g09/l502.exe)
 Closed shell SCF:
 Using DIIS extrapolation, IDIIS=  1040.
 Two-electron integral symmetry not used.
 Keep R1 ints in memory in canonical form, NReq=8631594.
 IVT=       45238 IEndB=       45238 NGot=   524288000 MDV=   516573277
 LenX=   516573277 LenY=   516564372
 Requested convergence on RMS density matrix=1.00D-08 within 128 cycles.
 Requested convergence on MAX density matrix=1.00D-06.
 Requested convergence on             energy=1.00D-06.
 No special actions if energy rises.
 FoFCou: FMM=F IPFlag=           0 FMFlag=           0 FMFlg1=           0
         NFxFlg=           0 DoJE=F BraDBF=F KetDBF=F FulRan=T
         wScrn=  0.000000 ICntrl=     600 IOpCl=  0 I1Cent=           0 NGrid=           0
         NMat0=    1 NMatS0=   3916 NMatT0=    0 NMatD0=    1 NMtDS0=    0 NMtDT0=    0
 Symmetry not used in FoFCou.

 Cycle   1  Pass 1  IDiag  1:
 E= -152.062099219729    
 DIIS: error= 2.64D-09 at cycle   1 NSaved=   1.
 NSaved= 1 IEnMin= 1 EnMin= -152.062099219729     IErMin= 1 ErrMin= 2.64D-09
 ErrMax= 2.64D-09  0.00D+00 EMaxC= 1.00D-01 BMatC= 5.58D-16 BMatP= 5.58D-16
 IDIUse=1 WtCom= 1.00D+00 WtEn= 0.00D+00
 Coeff-Com:  0.100D+01
 Coeff:      0.100D+01
 Gap=     0.127 Goal=   None    Shift=    0.000
 RMSDP=1.01D-09 MaxDP=1.55D-08              OVMax= 2.46D-08

 SCF Done:  E(RB971) =  -152.062099220     A.U. after    1 cycles
            NFock=  1  Conv=0.10D-08     -V/T= 2.0032
 KE= 1.515814484849D+02 PE=-4.972878844581D+02 EE= 1.210872386275D+02
 Leave Link  502 at Mon Apr 27 14:34:53 2015, MaxMem=   524288000 cpu:         3.9
 (Enter /opt/g09/l801.exe)
 DoSCS=F DFT=T ScalE2(SS,OS)=  1.000000  1.000000
 Range of M.O.s used for correlation:     1    88
 NBasis=    88 NAE=    12 NBE=    12 NFC=     0 NFV=     0
 NROrb=     88 NOA=    12 NOB=    12 NVA=    76 NVB=    76

 **** Warning!!: The largest alpha MO coefficient is  0.50408872D+02

 Leave Link  801 at Mon Apr 27 14:34:53 2015, MaxMem=   524288000 cpu:         0.3
 (Enter /opt/g09/l1101.exe)
 Using compressed storage, NAtomX=     4.
 Will process      5 centers per pass.
 Leave Link 1101 at Mon Apr 27 14:34:53 2015, MaxMem=   524288000 cpu:         1.2
 (Enter /opt/g09/l1102.exe)
 Symmetrizing basis deriv contribution to polar:
 IMax=3 JMax=2 DiffMx= 0.00D+00
 Leave Link 1102 at Mon Apr 27 14:34:53 2015, MaxMem=   524288000 cpu:         0.3
 (Enter /opt/g09/l1110.exe)
 Forming Gx(P) for the SCF density, NAtomX=     4.
 Integral derivatives from FoFJK, PRISM(SPDF).
 Do as many integral derivatives as possible in FoFJK.
 G2DrvN: MDV=     524287864.
 G2DrvN: will do     5 centers at a time, making    1 passes.
 Calling FoFCou, ICntrl=  3107 FMM=F I1Cent=   0 AccDes= 0.00D+00.
 FoFJK:  IHMeth= 1 ICntrl=    3107 DoSepK=F KAlg= 0 I1Cent=   0 FoldK=F
 IRaf=         0 NMat=   1 IRICut=       1 DoRegI=T DoRafI=F ISym2E= 0.
 FoFCou: FMM=F IPFlag=           0 FMFlag=      100000 FMFlg1=           0
         NFxFlg=           0 DoJE=F BraDBF=F KetDBF=F FulRan=T
         wScrn=  0.000000 ICntrl=    3107 IOpCl=  0 I1Cent=           0 NGrid=           0
         NMat0=    1 NMatS0=      1 NMatT0=    0 NMatD0=    1 NMtDS0=    0 NMtDT0=    0
 Symmetry not used in FoFCou.
 End of G2Drv F.D. properties file   721 does not exist.
 End of G2Drv F.D. properties file   722 does not exist.
 End of G2Drv F.D. properties file   788 does not exist.
 Leave Link 1110 at Mon Apr 27 14:34:56 2015, MaxMem=   524288000 cpu:        25.2
 (Enter /opt/g09/l1002.exe)
 Minotr:  Closed shell wavefunction.
          IDoAtm=1111
          Direct CPHF calculation.
          Differentiating once with respect to electric field.
                with respect to dipole field.
          Differentiating once with respect to nuclear coordinates.
          Requested convergence is 1.0D-08 RMS, and 1.0D-07 maximum.
          Secondary convergence is 1.0D-12 RMS, and 1.0D-12 maximum.
          NewPWx=T KeepS1=F KeepF1=F KeepIn=T MapXYZ=F SortEE=F KeepMc=T.
          MDV=     524287868 using IRadAn=       1.
 Generate precomputed XC quadrature information.
 Keep R1 ints in memory in canonical form, NReq=8585117.
 FoFCou: FMM=F IPFlag=           0 FMFlag=           0 FMFlg1=           0
         NFxFlg=           0 DoJE=F BraDBF=F KetDBF=F FulRan=T
         wScrn=  0.000000 ICntrl=     600 IOpCl=  0 I1Cent=           0 NGrid=           0
         NMat0=    1 NMatS0=   3916 NMatT0=    0 NMatD0=    1 NMtDS0=    0 NMtDT0=    0
 Symmetry not used in FoFCou.
          Solving linear equations simultaneously, MaxMat=       0.
          There are    15 degrees of freedom in the 1st order CPHF.  IDoFFX=6 NUNeed=     3.
     12 vectors produced by pass  0 Test12= 6.08D-15 6.67D-09 XBig12= 5.69D+01 4.55D+00.
 AX will form    12 AO Fock derivatives at one time.
     12 vectors produced by pass  1 Test12= 6.08D-15 6.67D-09 XBig12= 3.23D+01 2.05D+00.
     12 vectors produced by pass  2 Test12= 6.08D-15 6.67D-09 XBig12= 6.60D-01 4.51D-01.
     12 vectors produced by pass  3 Test12= 6.08D-15 6.67D-09 XBig12= 6.32D-03 2.47D-02.
     12 vectors produced by pass  4 Test12= 6.08D-15 6.67D-09 XBig12= 2.11D-05 1.66D-03.
     12 vectors produced by pass  5 Test12= 6.08D-15 6.67D-09 XBig12= 8.77D-08 1.08D-04.
     10 vectors produced by pass  6 Test12= 6.08D-15 6.67D-09 XBig12= 4.45D-10 4.67D-06.
      4 vectors produced by pass  7 Test12= 6.08D-15 6.67D-09 XBig12= 7.34D-13 2.24D-07.
      2 vectors produced by pass  8 Test12= 6.08D-15 6.67D-09 XBig12= 1.47D-15 9.80D-09.
 InvSVY:  IOpt=1 It=  1 EMax= 1.55D-15
 Solved reduced A of dimension    88 with    12 vectors.
 FullF1:  Do perturbations    1 to     3.
 Isotropic polarizability for W=    0.000000       37.54 Bohr**3.
 End of Minotr F.D. properties file   721 does not exist.
 End of Minotr F.D. properties file   722 does not exist.
 End of Minotr F.D. properties file   788 does not exist.
 Leave Link 1002 at Mon Apr 27 14:35:02 2015, MaxMem=   524288000 cpu:        41.9
 (Enter /opt/g09/l701.exe)
 Compute integral second derivatives.
 ... and contract with generalized density number  0.
 Leave Link  701 at Mon Apr 27 14:35:03 2015, MaxMem=   524288000 cpu:         2.0
 (Enter /opt/g09/l702.exe)
 L702 exits ... SP integral derivatives will be done elsewhere.
 Leave Link  702 at Mon Apr 27 14:35:03 2015, MaxMem=   524288000 cpu:         0.3
 (Enter /opt/g09/l703.exe)
 Compute integral second derivatives, UseDBF=F ICtDFT=           0.
 Integral derivatives from FoFJK, PRISM(SPDF).
 Calling FoFJK, ICntrl=    100127 FMM=F ISym2X=0 I1Cent= 0 IOpClX= 0 NMat=1 NMatS=1 NMatT=0.
 FoFJK:  IHMeth= 1 ICntrl=  100127 DoSepK=F KAlg= 0 I1Cent=   0 FoldK=F
 IRaf=         0 NMat=   1 IRICut=       1 DoRegI=T DoRafI=F ISym2E= 0.
 FoFCou: FMM=F IPFlag=           0 FMFlag=      100000 FMFlg1=         800
         NFxFlg=           0 DoJE=F BraDBF=F KetDBF=F FulRan=T
         wScrn=  0.000000 ICntrl=  100127 IOpCl=  0 I1Cent=           0 NGrid=           0
         NMat0=    1 NMatS0=      1 NMatT0=    0 NMatD0=    1 NMtDS0=    0 NMtDT0=    0
 Symmetry not used in FoFCou.
 Leave Link  703 at Mon Apr 27 14:35:11 2015, MaxMem=   524288000 cpu:        63.7
 (Enter /opt/g09/l716.exe)
 Dipole        = 2.00799377D-10-1.10452447D-09-3.59877670D-13
 Polarizability= 4.22163367D+01 2.48892192D+00 4.22163367D+01
                 1.07151588D-07 1.07296001D-07 2.81994429D+01
 Full mass-weighted force constant matrix:
 Low frequencies ---   -3.9867   -2.6548   -0.0008   -0.0006    0.0007    3.6428
 Low frequencies ---  313.1760  463.0566  898.4305
 Diagonal vibrational polarizability:
        4.7970355       4.7970354      13.8607877
 Harmonic frequencies (cm**-1), IR intensities (KM/Mole), Raman scattering
 activities (A**4/AMU), depolarization ratios for plane and unpolarized
 incident light, reduced masses (AMU), force constants (mDyne/A),
 and normal coordinates:
                      1                      2                      3
                      A                      A                      A
 Frequencies --    313.1760               463.0566               898.4305
 Red. masses --     12.0000                12.0000                12.0000
 Frc consts  --      0.6934                 1.5160                 5.7069
 IR Inten    --     50.5163                44.7457                 0.0000
  Atom  AN      X      Y      Z        X      Y      Z        X      Y      Z
     1   6     0.00   0.00   0.50     0.35  -0.35   0.00    -0.34   0.34   0.00
     2   6     0.00   0.00  -0.50    -0.35   0.35   0.00     0.37   0.37   0.00
     3   6     0.00   0.00   0.50     0.35  -0.35   0.00     0.34  -0.34   0.00
     4   6     0.00   0.00  -0.50    -0.35   0.35   0.00    -0.37  -0.37   0.00
                      4                      5                      6
                      A                      A                      A
 Frequencies --    944.4262              1257.6946              1350.2667
 Red. masses --     12.0000                12.0000                12.0000
 Frc consts  --      6.3062                11.1836                12.8905
 IR Inten    --      0.0000                 0.0000               269.5216
  Atom  AN      X      Y      Z        X      Y      Z        X      Y      Z
     1   6     0.43   0.43   0.00     0.37  -0.37   0.00     0.35   0.35   0.00
     2   6     0.26  -0.26   0.00     0.34   0.34   0.00    -0.35  -0.35   0.00
     3   6    -0.43  -0.43   0.00    -0.37   0.37   0.00     0.35   0.35   0.00
     4   6    -0.26   0.26   0.00    -0.34  -0.34   0.00    -0.35  -0.35   0.00

 -------------------
 - Thermochemistry -
 -------------------
 Temperature   298.150 Kelvin.  Pressure   1.00000 Atm.
 Atom     1 has atomic number  6 and mass  12.00000
 Atom     2 has atomic number  6 and mass  12.00000
 Atom     3 has atomic number  6 and mass  12.00000
 Atom     4 has atomic number  6 and mass  12.00000
 Molecular mass:    48.00000 amu.
 Principal axes and moments of inertia in atomic units:
                           1         2         3
     Eigenvalues --    49.59548 131.93950 181.53498
           X            0.70711   0.70711   0.00000
           Y            0.70711  -0.70711   0.00000
           Z            0.00000   0.00000   1.00000
 This molecule is an asymmetric top.
 Rotational symmetry number  4.
 Rotational temperatures (Kelvin)      1.74641     0.65647     0.47712
 Rotational constants (GHZ):          36.38923    13.67855     9.94156
 Zero-point vibrational energy      31264.7 (Joules/Mol)
                                    7.47244 (Kcal/Mol)
 Warning -- explicit consideration of   2 degrees of freedom as
           vibrations may cause significant error
 Vibrational temperatures:    450.59   666.23  1292.64  1358.82  1809.54
          (Kelvin)           1942.73
 
 Zero-point correction=                           0.011908 (Hartree/Particle)
 Thermal correction to Energy=                    0.015520
 Thermal correction to Enthalpy=                  0.016464
 Thermal correction to Gibbs Free Energy=        -0.011517
 Sum of electronic and zero-point Energies=           -152.050191
 Sum of electronic and thermal Energies=              -152.046579
 Sum of electronic and thermal Enthalpies=            -152.045635
 Sum of electronic and thermal Free Energies=         -152.073616
 
                     E (Thermal)             CV                S
                      KCal/Mol        Cal/Mol-Kelvin    Cal/Mol-Kelvin
 Total                    9.739             10.182             58.891
 Electronic               0.000              0.000              0.000
 Translational            0.889              2.981             37.530
 Rotational               0.889              2.981             18.946
 Vibrational              7.961              4.220              2.415
 Vibration     1          0.701              1.649              1.346
 Vibration     2          0.821              1.332              0.757
                       Q            Log10(Q)             Ln(Q)
 Total Bot       0.198396D+06          5.297533         12.198021
 Total V=0       0.595479D+11         10.774866         24.810046
 Vib (Bot)       0.492086D-05         -5.307959        -12.222027
 Vib (Bot)    1  0.602674D+00         -0.219917         -0.506378
 Vib (Bot)    2  0.366386D+00         -0.436061         -1.004068
 Vib (V=0)       0.147698D+01          0.169374          0.389998
 Vib (V=0)    1  0.128308D+01          0.108254          0.249264
 Vib (V=0)    2  0.111987D+01          0.049168          0.113212
 Electronic      0.100000D+01          0.000000          0.000000
 Translational   0.130712D+08          7.116317         16.385926
 Rotational      0.308443D+04          3.489175          8.034122
 
                    W:\Data\additional_hydrocarbons\nist\enthalpy_estimation\succ
 ess\fine\corr_b971_12184-80-4.g09
                                                             IR Spectrum
 
     1        1                                                                                                                      
     3        2                             9   8                                        4             3                             
     5        5                             4   9                                        6             1                             
     0        8                             4   8                                        3             3                             
 
     X                                                                                   X             X                             
     X                                                                                   X             X                             
     X                                                                                   X             X                             
     X                                                                                                 X                             
     X                                                                                                                               
     X                                                                                                                               
     X                                                                                                                               
     X                                                                                                                               
     X                                                                                                                               
     X                                                                                                                               
     X                                                                                                                               
     X                                                                                                                               
     X                                                                                                                               
     X                                                                                                                               
     X                                                                                                                               
     X                                                                                                                               
     X                                                                                                                               
     X                                                                                                                               
     X                                                                                                                               
     X                                                                                                                               
 
 -------------------------------------------------------------------
 Center     Atomic                   Forces (Hartrees/Bohr)
 Number     Number              X              Y              Z
 -------------------------------------------------------------------
      1        6          -0.000001732    0.000001732    0.000000000
      2        6          -0.000005796   -0.000005796    0.000000001
      3        6           0.000001732   -0.000001732    0.000000000
      4        6           0.000005796    0.000005796   -0.000000001
 -------------------------------------------------------------------
 Cartesian Forces:  Max     0.000005796 RMS     0.000003492
 Force constants in Cartesian coordinates: 
                1             2             3             4             5 
      1  0.328418D+00
      2  0.257726D-01  0.328418D+00
      3  0.000000D+00  0.000000D+00  0.111380D-01
      4 -0.267164D-01 -0.900303D-01  0.000000D+00  0.275398D+00
      5 -0.926175D-01 -0.204618D+00  0.000000D+00  0.195733D+00  0.275398D+00
      6  0.000000D+00  0.000000D+00 -0.111350D-01  0.000000D+00  0.000000D+00
      7 -0.970838D-01  0.156875D+00  0.000000D+00 -0.204618D+00 -0.900303D-01
      8  0.156875D+00 -0.970838D-01  0.000000D+00 -0.926175D-01 -0.267164D-01
      9  0.000000D+00  0.000000D+00  0.111320D-01  0.000000D+00  0.000000D+00
     10 -0.204618D+00 -0.926175D-01  0.000000D+00 -0.440637D-01 -0.130854D-01
     11 -0.900303D-01 -0.267164D-01  0.000000D+00 -0.130854D-01 -0.440637D-01
     12  0.000000D+00  0.000000D+00 -0.111350D-01  0.000000D+00  0.000000D+00
                6             7             8             9            10 
      6  0.111334D-01
      7  0.000000D+00  0.328418D+00
      8  0.000000D+00  0.257726D-01  0.328418D+00
      9 -0.111350D-01  0.000000D+00  0.000000D+00  0.111380D-01
     10  0.000000D+00 -0.267164D-01 -0.900303D-01  0.000000D+00  0.275398D+00
     11  0.000000D+00 -0.926175D-01 -0.204618D+00  0.000000D+00  0.195733D+00
     12  0.111366D-01  0.000000D+00  0.000000D+00 -0.111350D-01  0.000000D+00
               11            12 
     11  0.275398D+00
     12  0.000000D+00  0.111334D-01
 FormGI is forming the generalized inverse of G from B-inverse, IUseBI=4.
 Force constants in internal coordinates: 
                1             2             3             4             5 
      1  0.204304D+00
      2  0.394991D-02  0.141609D+00
      3 -0.393573D-01  0.394991D-02  0.204304D+00
      4  0.876869D-01  0.394991D-02  0.465501D-01  0.204304D+00
      5  0.465501D-01  0.394991D-02  0.876869D-01 -0.393573D-01  0.204304D+00
      6  0.225569D-01 -0.586351D-01  0.225569D-01  0.407695D-01  0.407695D-01
      7  0.407695D-01 -0.586351D-01  0.407695D-01  0.225569D-01  0.225569D-01
      8  0.000000D+00  0.000000D+00  0.000000D+00  0.000000D+00  0.000000D+00
                6             7             8 
      6  0.499259D-01
      7  0.283238D-01  0.499259D-01
      8  0.000000D+00  0.000000D+00  0.612203D-01
 Leave Link  716 at Mon Apr 27 14:35:11 2015, MaxMem=   524288000 cpu:         0.3
 (Enter /opt/g09/l103.exe)

 GradGradGradGradGradGradGradGradGradGradGradGradGradGradGradGradGradGrad
 Berny optimization.
 Red2BG is reusing G-inverse.
 Internal  Forces:  Max     0.000004313 RMS     0.000003254
 Search for a local minimum.
 Step number   1 out of a maximum of    2
 All quantities printed in internal units (Hartrees-Bohrs-Radians)
 Second derivative matrix not updated -- analytic derivatives used.
 The second derivative matrix:
                          R1        R2        R3        R4        R5
           R1           0.20430
           R2           0.00395   0.14161
           R3          -0.03936   0.00395   0.20430
           R4           0.08769   0.00395   0.04655   0.20430
           R5           0.04655   0.00395   0.08769  -0.03936   0.20430
           A1           0.02256  -0.05864   0.02256   0.04077   0.04077
           A2           0.04077  -0.05864   0.04077   0.02256   0.02256
           D1           0.00000   0.00000   0.00000   0.00000   0.00000
                          A1        A2        D1
           A1           0.04993
           A2           0.02832   0.04993
           D1           0.00000   0.00000   0.06122
 ITU=  0
     Eigenvalues ---    0.05231   0.06122   0.18569   0.20252   0.28480
     Eigenvalues ---    0.33335
 Angle between quadratic step and forces=   2.34 degrees.
 Linear search not attempted -- first point.
 Iteration  1 RMS(Cart)=  0.00000785 RMS(Int)=  0.00000000
 Iteration  2 RMS(Cart)=  0.00000000 RMS(Int)=  0.00000000
 ITry= 1 IFail=0 DXMaxC= 1.11D-05 DCOld= 1.00D+10 DXMaxT= 3.00D-01 DXLimC= 3.00D+00 Rises=F
 Variable       Old X    -DE/DX   Delta X   Delta X   Delta X     New X
                                 (Linear)    (Quad)   (Total)
    R1        2.75026   0.00000   0.00000   0.00001   0.00001   2.75028
    R2        2.87505   0.00000   0.00000   0.00000   0.00000   2.87505
    R3        2.75026   0.00000   0.00000   0.00001   0.00001   2.75028
    R4        2.75026   0.00000   0.00000   0.00001   0.00001   2.75028
    R5        2.75026   0.00000   0.00000   0.00001   0.00001   2.75028
    A1        2.04160   0.00000   0.00000   0.00001   0.00001   2.04160
    A2        2.04160   0.00000   0.00000   0.00001   0.00001   2.04160
    D1        3.14159   0.00000   0.00000   0.00000   0.00000   3.14159
         Item               Value     Threshold  Converged?
 Maximum Force            0.000004     0.000015     YES
 RMS     Force            0.000003     0.000010     YES
 Maximum Displacement     0.000011     0.000060     YES
 RMS     Displacement     0.000008     0.000040     YES
 Predicted change in Energy=-1.273164D-10
 Optimization completed.
    -- Stationary point found.
                           ----------------------------
                           !   Optimized Parameters   !
                           ! (Angstroms and Degrees)  !
 --------------------------                            --------------------------
 ! Name  Definition              Value          Derivative Info.                !
 --------------------------------------------------------------------------------
 ! R1    R(1,2)                  1.4554         -DE/DX =    0.0                 !
 ! R2    R(1,3)                  1.5214         -DE/DX =    0.0                 !
 ! R3    R(1,4)                  1.4554         -DE/DX =    0.0                 !
 ! R4    R(2,3)                  1.4554         -DE/DX =    0.0                 !
 ! R5    R(3,4)                  1.4554         -DE/DX =    0.0                 !
 ! A1    A(2,1,4)              116.9748         -DE/DX =    0.0                 !
 ! A2    A(2,3,4)              116.9748         -DE/DX =    0.0                 !
 ! D1    D(2,1,3,4)            180.0            -DE/DX =    0.0                 !
 --------------------------------------------------------------------------------
 GradGradGradGradGradGradGradGradGradGradGradGradGradGradGradGradGradGrad

 Leave Link  103 at Mon Apr 27 14:35:11 2015, MaxMem=   524288000 cpu:         0.0
 (Enter /opt/g09/l9999.exe)
 1\1\GINC-ARP\Freq\RB971\6-311+G(d,p)\C4\PB556\27-Apr-2015\0\\#P Geom=A
 llCheck Guess=TCheck SCRF=Check GenChk RB971/6-311+G(d,p) Freq\\W:\Dat
 a\additional_hydrocarbons\nist\enthalpy_estimation\success\fine\corr_b
 971_12184-80-4.g09\\0,1\C,0.0681,1.3319,0.\C,-0.27134,-0.08334,0.\C,1.
 1439,0.2561,0.\C,1.48334,1.67134,0.\\Version=ES64L-G09RevD.01\HF=-152.
 0620992\RMSD=1.013e-09\RMSF=3.492e-06\ZeroPoint=0.0119081\Thermal=0.01
 55198\Dipole=0.,0.,0.\DipoleDeriv=-0.6408939,-0.2698197,0.,-0.2698197,
 -0.6408939,0.,0.,0.,0.3942765,0.6408939,0.2698197,0.,0.2698197,0.64089
 39,0.,0.,0.,-0.3942765,-0.6408939,-0.2698197,0.,-0.2698197,-0.6408939,
 0.,0.,0.,0.3942765,0.6408939,0.2698197,0.,0.2698197,0.6408939,0.,0.,0.
 ,-0.3942765\Polar=42.2163367,2.4889219,42.2163367,0.0000001,0.0000001,
 28.1994429\PG=D02H [C2'(C1.C1),C2"(C1.C1)]\NImag=0\\0.32841838,0.02577
 257,0.32841838,0.,0.,0.01113800,-0.02671639,-0.09003031,0.,0.27539828,
 -0.09261749,-0.20461817,0.,0.19573324,0.27539828,0.,0.,-0.01113498,0.,
 0.,0.01113338,-0.09708382,0.15687522,0.,-0.20461817,-0.09003031,0.,0.3
 2841839,0.15687522,-0.09708382,0.,-0.09261749,-0.02671639,0.,0.0257725
 7,0.32841839,0.,0.,0.01113197,0.,0.,-0.01113498,0.,0.,0.01113800,-0.20
 461817,-0.09261749,0.,-0.04406372,-0.01308544,0.,-0.02671639,-0.090030
 31,0.,0.27539828,-0.09003030,-0.02671639,0.,-0.01308544,-0.04406372,0.
 ,-0.09261749,-0.20461818,0.,0.19573324,0.27539829,0.,0.,-0.01113498,0.
 ,0.,0.01113658,0.,0.,-0.01113498,0.,0.,0.01113338\\0.00000173,-0.00000
 173,0.,0.00000580,0.00000580,0.,-0.00000173,0.00000173,0.,-0.00000580,
 -0.00000580,0.\\\@


 THE REASON MAN'S BEST FRIEND IS A DOG IS BECAUSE
 HE WAGS HIS TAIL INSTEAD OF HIS TONGUE.
 Job cpu time:       0 days  0 hours  2 minutes 24.9 seconds.
 File lengths (MBytes):  RWF=      9 Int=      0 D2E=      0 Chk=      2 Scr=      1
 Normal termination of Gaussian 09 at Mon Apr 27 14:35:11 2015.
