 Entering Gaussian System, Link 0=g09
 Input=0_0freq-corr_b971_2025-56-1.gau
 Output=0_0freq-corr_b971_2025-56-1.log
 Initial command:
 /opt/g09/l1.exe "/scratch/pb556/g09_run/add_hco//Gau-30171.inp" -scrdir="/scratch/pb556/g09_run/add_hco//"
 Entering Link 1 = /opt/g09/l1.exe PID=     30180.
  
 Copyright (c) 1988,1990,1992,1993,1995,1998,2003,2009,2013,
            Gaussian, Inc.  All Rights Reserved.
  
 This is part of the Gaussian(R) 09 program.  It is based on
 the Gaussian(R) 03 system (copyright 2003, Gaussian, Inc.),
 the Gaussian(R) 98 system (copyright 1998, Gaussian, Inc.),
 the Gaussian(R) 94 system (copyright 1995, Gaussian, Inc.),
 the Gaussian 92(TM) system (copyright 1992, Gaussian, Inc.),
 the Gaussian 90(TM) system (copyright 1990, Gaussian, Inc.),
 the Gaussian 88(TM) system (copyright 1988, Gaussian, Inc.),
 the Gaussian 86(TM) system (copyright 1986, Carnegie Mellon
 University), and the Gaussian 82(TM) system (copyright 1983,
 Carnegie Mellon University). Gaussian is a federally registered
 trademark of Gaussian, Inc.
  
 This software contains proprietary and confidential information,
 including trade secrets, belonging to Gaussian, Inc.
  
 This software is provided under written license and may be
 used, copied, transmitted, or stored only in accord with that
 written license.
  
 The following legend is applicable only to US Government
 contracts under FAR:
  
                    RESTRICTED RIGHTS LEGEND
  
 Use, reproduction and disclosure by the US Government is
 subject to restrictions as set forth in subparagraphs (a)
 and (c) of the Commercial Computer Software - Restricted
 Rights clause in FAR 52.227-19.
  
 Gaussian, Inc.
 340 Quinnipiac St., Bldg. 40, Wallingford CT 06492
  
  
 ---------------------------------------------------------------
 Warning -- This program may not be used in any manner that
 competes with the business of Gaussian, Inc. or will provide
 assistance to any competitor of Gaussian, Inc.  The licensee
 of this program is prohibited from giving any competitor of
 Gaussian, Inc. access to this program.  By using this program,
 the user acknowledges that Gaussian, Inc. is engaged in the
 business of creating and licensing software in the field of
 computational chemistry and represents and warrants to the
 licensee that it is not a competitor of Gaussian, Inc. and that
 it will not use this program in any manner prohibited above.
 ---------------------------------------------------------------
  

 Cite this work as:
 Gaussian 09, Revision D.01,
 M. J. Frisch, G. W. Trucks, H. B. Schlegel, G. E. Scuseria, 
 M. A. Robb, J. R. Cheeseman, G. Scalmani, V. Barone, B. Mennucci, 
 G. A. Petersson, H. Nakatsuji, M. Caricato, X. Li, H. P. Hratchian, 
 A. F. Izmaylov, J. Bloino, G. Zheng, J. L. Sonnenberg, M. Hada, 
 M. Ehara, K. Toyota, R. Fukuda, J. Hasegawa, M. Ishida, T. Nakajima, 
 Y. Honda, O. Kitao, H. Nakai, T. Vreven, J. A. Montgomery, Jr., 
 J. E. Peralta, F. Ogliaro, M. Bearpark, J. J. Heyd, E. Brothers, 
 K. N. Kudin, V. N. Staroverov, T. Keith, R. Kobayashi, J. Normand, 
 K. Raghavachari, A. Rendell, J. C. Burant, S. S. Iyengar, J. Tomasi, 
 M. Cossi, N. Rega, J. M. Millam, M. Klene, J. E. Knox, J. B. Cross, 
 V. Bakken, C. Adamo, J. Jaramillo, R. Gomperts, R. E. Stratmann, 
 O. Yazyev, A. J. Austin, R. Cammi, C. Pomelli, J. W. Ochterski, 
 R. L. Martin, K. Morokuma, V. G. Zakrzewski, G. A. Voth, 
 P. Salvador, J. J. Dannenberg, S. Dapprich, A. D. Daniels, 
 O. Farkas, J. B. Foresman, J. V. Ortiz, J. Cioslowski, 
 and D. J. Fox, Gaussian, Inc., Wallingford CT, 2013.
 
 ******************************************
 Gaussian 09:  ES64L-G09RevD.01 24-Apr-2013
                27-Apr-2015 
 ******************************************
 %NProcShared=8
 Will use up to    8 processors via shared memory.
 %Mem=500MW
 ----------------------------------------------------------------------
 #p uB971/6-311+G(d,p) Opt=(Tight, CalcAll) Freq GFInput Population=Non
 e Integral(Grid=UltraFine) Guess=MIX NoSymmetry
 ----------------------------------------------------------------------
 1/7=10,10=4,14=-1,18=20,19=15,26=4,38=1/1,3;
 2/9=110,12=2,15=1,17=6,18=5,40=1/2;
 3/5=4,6=6,7=111,11=2,16=1,24=10,25=1,30=1,71=2,74=-20,75=-5,116=2,140=1/1,2,3;
 4/13=-1/1;
 5/5=2,38=5/2;
 8/6=4,10=90,11=11/1;
 11/6=1,8=1,9=11,15=111,16=1,31=1/1,2,10;
 10/6=1,31=1/2;
 7/10=1,25=1,30=1/1,2,3,16;
 1/7=10,10=4,14=-1,18=20,19=15,26=4/3(3);
 2/9=110,15=1/2;
 7/8=1,9=1,25=1,30=1,44=-1/16;
 99//99;
 2/9=110,15=1/2;
 3/5=4,6=6,7=111,11=2,16=1,25=1,30=1,71=2,74=-20,75=-5,116=2,140=1/1,2,3;
 4/5=5,16=3,69=1/1;
 5/5=2,38=5/2;
 8/6=4,10=90,11=11/1;
 11/6=1,8=1,9=11,15=111,16=1,31=1/1,2,10;
 10/6=1,31=1/2;
 7/10=1,25=1,30=1/1,2,3,16;
 1/7=10,10=4,14=-1,18=20,19=15,26=4/3(-8);
 2/9=110,15=1/2;
 7/8=1,9=1,25=1,30=1,44=-1/16;
 99//99;
 Leave Link    1 at Mon Apr 27 15:15:54 2015, MaxMem=   524288000 cpu:         0.7
 (Enter /opt/g09/l101.exe)
 ----------------------------------------------------------------------
 W:\Data\additional_hydrocarbons\nist\enthalpy_estimation\success\fine\
 corr_b971_2025-56-1.g09
 ----------------------------------------------------------------------
 Symbolic Z-matrix:
 Charge =  0 Multiplicity = 2
 C                     0.74281   0.95615   1.02879 
 C                     2.19461   0.84729   1.34644 
 H                     0.40877   1.35218   0.07539 
 H                    -0.00526   0.5196    1.6824 
 H                     2.37752   0.86102   2.42695 
 H                     2.6265   -0.0968    0.96915 
 H                     2.77384   1.65718   0.88849 
 
 NAtoms=      7 NQM=        7 NQMF=       0 NMMI=      0 NMMIF=      0
                NMic=       0 NMicF=      0.
                    Isotopes and Nuclear Properties:
 (Nuclear quadrupole moments (NQMom) in fm**2, nuclear magnetic moments (NMagM)
  in nuclear magnetons)

  Atom         1           2           3           4           5           6           7
 IAtWgt=          12          12           1           1           1           1           1
 AtmWgt=  12.0000000  12.0000000   1.0078250   1.0078250   1.0078250   1.0078250   1.0078250
 NucSpn=           0           0           1           1           1           1           1
 AtZEff=   0.0000000   0.0000000   0.0000000   0.0000000   0.0000000   0.0000000   0.0000000
 NQMom=    0.0000000   0.0000000   0.0000000   0.0000000   0.0000000   0.0000000   0.0000000
 NMagM=    0.0000000   0.0000000   2.7928460   2.7928460   2.7928460   2.7928460   2.7928460
 AtZNuc=   6.0000000   6.0000000   1.0000000   1.0000000   1.0000000   1.0000000   1.0000000
 Leave Link  101 at Mon Apr 27 15:15:54 2015, MaxMem=   524288000 cpu:         1.9
 (Enter /opt/g09/l103.exe)

 GradGradGradGradGradGradGradGradGradGradGradGradGradGradGradGradGradGrad
 Berny optimization.
 Initialization pass.
                           ----------------------------
                           !    Initial Parameters    !
                           ! (Angstroms and Degrees)  !
 --------------------------                            --------------------------
 ! Name  Definition              Value          Derivative Info.                !
 --------------------------------------------------------------------------------
 ! R1    R(1,2)                  1.4901         calculate D2E/DX2 analytically  !
 ! R2    R(1,3)                  1.0851         calculate D2E/DX2 analytically  !
 ! R3    R(1,4)                  1.0851         calculate D2E/DX2 analytically  !
 ! R4    R(2,5)                  1.096          calculate D2E/DX2 analytically  !
 ! R5    R(2,6)                  1.1046         calculate D2E/DX2 analytically  !
 ! R6    R(2,7)                  1.096          calculate D2E/DX2 analytically  !
 ! A1    A(2,1,3)              120.9236         calculate D2E/DX2 analytically  !
 ! A2    A(2,1,4)              120.9232         calculate D2E/DX2 analytically  !
 ! A3    A(3,1,4)              117.6369         calculate D2E/DX2 analytically  !
 ! A4    A(1,2,5)              111.8297         calculate D2E/DX2 analytically  !
 ! A5    A(1,2,6)              111.75           calculate D2E/DX2 analytically  !
 ! A6    A(1,2,7)              111.8303         calculate D2E/DX2 analytically  !
 ! A7    A(5,2,6)              106.3912         calculate D2E/DX2 analytically  !
 ! A8    A(5,2,7)              108.3302         calculate D2E/DX2 analytically  !
 ! A9    A(6,2,7)              106.3929         calculate D2E/DX2 analytically  !
 ! D1    D(3,1,2,5)            155.0408         calculate D2E/DX2 analytically  !
 ! D2    D(3,1,2,6)            -85.8088         calculate D2E/DX2 analytically  !
 ! D3    D(3,1,2,7)             33.3442         calculate D2E/DX2 analytically  !
 ! D4    D(4,1,2,5)            -33.3959         calculate D2E/DX2 analytically  !
 ! D5    D(4,1,2,6)             85.7545         calculate D2E/DX2 analytically  !
 ! D6    D(4,1,2,7)           -155.0925         calculate D2E/DX2 analytically  !
 --------------------------------------------------------------------------------
 Trust Radius=3.00D-01 FncErr=1.00D-07 GrdErr=1.00D-06
 Number of steps in this run=     31 maximum allowed number of steps=    100.
 GradGradGradGradGradGradGradGradGradGradGradGradGradGradGradGradGradGrad

 Leave Link  103 at Mon Apr 27 15:15:54 2015, MaxMem=   524288000 cpu:         0.1
 (Enter /opt/g09/l202.exe)
                          Input orientation:                          
 ---------------------------------------------------------------------
 Center     Atomic      Atomic             Coordinates (Angstroms)
 Number     Number       Type             X           Y           Z
 ---------------------------------------------------------------------
      1          6           0        0.742810    0.956150    1.028790
      2          6           0        2.194610    0.847290    1.346440
      3          1           0        0.408770    1.352180    0.075390
      4          1           0       -0.005260    0.519600    1.682400
      5          1           0        2.377520    0.861020    2.426950
      6          1           0        2.626500   -0.096800    0.969150
      7          1           0        2.773840    1.657180    0.888490
 ---------------------------------------------------------------------
                    Distance matrix (angstroms):
                    1          2          3          4          5
     1  C    0.000000
     2  C    1.490126   0.000000
     3  H    1.085078   2.249379   0.000000
     4  H    1.085076   2.249373   1.856634   0.000000
     5  H    2.153179   1.095968   3.105970   2.519635   0.000000
     6  H    2.158830   1.104619   2.795832   2.795503   1.761985
     7  H    2.153186   1.095969   2.519467   3.106087   1.777020
                    6          7
     6  H    0.000000
     7  H    1.762005   0.000000
 Symmetry turned off by external request.
 Stoichiometry    C2H5(2)
 Framework group  C1[X(C2H5)]
 Deg. of freedom    15
 Full point group                 C1      NOp   1
 Rotational constants (GHZ):    103.3161654     22.6597099     20.9979862
 Leave Link  202 at Mon Apr 27 15:15:54 2015, MaxMem=   524288000 cpu:         0.0
 (Enter /opt/g09/l301.exe)
 Standard basis: 6-311+G(d,p) (5D, 7F)
 Ernie: Thresh=  0.10000D-02 Tol=  0.10000D-05 Strict=F.
 AO basis set in the form of general basis input (Overlap normalization):
      1 0
 S   6 1.00       0.000000000000
      0.4563240000D+04  0.1966650249D-02
      0.6820240000D+03  0.1523060193D-01
      0.1549730000D+03  0.7612690966D-01
      0.4445530000D+02  0.2608010331D+00
      0.1302900000D+02  0.6164620782D+00
      0.1827730000D+01  0.2210060280D+00
 SP   3 1.00       0.000000000000
      0.2096420000D+02  0.1146600807D+00  0.4024869267D-01
      0.4803310000D+01  0.9199996477D+00  0.2375939567D+00
      0.1459330000D+01 -0.3030682134D-02  0.8158538515D+00
 SP   1 1.00       0.000000000000
      0.4834560000D+00  0.1000000000D+01  0.1000000000D+01
 SP   1 1.00       0.000000000000
      0.1455850000D+00  0.1000000000D+01  0.1000000000D+01
 SP   1 1.00       0.000000000000
      0.4380000000D-01  0.1000000000D+01  0.1000000000D+01
 D   1 1.00       0.000000000000
      0.6260000000D+00  0.1000000000D+01
 ****
      2 0
 S   6 1.00       0.000000000000
      0.4563240000D+04  0.1966650249D-02
      0.6820240000D+03  0.1523060193D-01
      0.1549730000D+03  0.7612690966D-01
      0.4445530000D+02  0.2608010331D+00
      0.1302900000D+02  0.6164620782D+00
      0.1827730000D+01  0.2210060280D+00
 SP   3 1.00       0.000000000000
      0.2096420000D+02  0.1146600807D+00  0.4024869267D-01
      0.4803310000D+01  0.9199996477D+00  0.2375939567D+00
      0.1459330000D+01 -0.3030682134D-02  0.8158538515D+00
 SP   1 1.00       0.000000000000
      0.4834560000D+00  0.1000000000D+01  0.1000000000D+01
 SP   1 1.00       0.000000000000
      0.1455850000D+00  0.1000000000D+01  0.1000000000D+01
 SP   1 1.00       0.000000000000
      0.4380000000D-01  0.1000000000D+01  0.1000000000D+01
 D   1 1.00       0.000000000000
      0.6260000000D+00  0.1000000000D+01
 ****
      3 0
 S   3 1.00       0.000000000000
      0.3386500000D+02  0.2549381454D-01
      0.5094790000D+01  0.1903731086D+00
      0.1158790000D+01  0.8521614860D+00
 S   1 1.00       0.000000000000
      0.3258400000D+00  0.1000000000D+01
 S   1 1.00       0.000000000000
      0.1027410000D+00  0.1000000000D+01
 P   1 1.00       0.000000000000
      0.7500000000D+00  0.1000000000D+01
 ****
      4 0
 S   3 1.00       0.000000000000
      0.3386500000D+02  0.2549381454D-01
      0.5094790000D+01  0.1903731086D+00
      0.1158790000D+01  0.8521614860D+00
 S   1 1.00       0.000000000000
      0.3258400000D+00  0.1000000000D+01
 S   1 1.00       0.000000000000
      0.1027410000D+00  0.1000000000D+01
 P   1 1.00       0.000000000000
      0.7500000000D+00  0.1000000000D+01
 ****
      5 0
 S   3 1.00       0.000000000000
      0.3386500000D+02  0.2549381454D-01
      0.5094790000D+01  0.1903731086D+00
      0.1158790000D+01  0.8521614860D+00
 S   1 1.00       0.000000000000
      0.3258400000D+00  0.1000000000D+01
 S   1 1.00       0.000000000000
      0.1027410000D+00  0.1000000000D+01
 P   1 1.00       0.000000000000
      0.7500000000D+00  0.1000000000D+01
 ****
      6 0
 S   3 1.00       0.000000000000
      0.3386500000D+02  0.2549381454D-01
      0.5094790000D+01  0.1903731086D+00
      0.1158790000D+01  0.8521614860D+00
 S   1 1.00       0.000000000000
      0.3258400000D+00  0.1000000000D+01
 S   1 1.00       0.000000000000
      0.1027410000D+00  0.1000000000D+01
 P   1 1.00       0.000000000000
      0.7500000000D+00  0.1000000000D+01
 ****
      7 0
 S   3 1.00       0.000000000000
      0.3386500000D+02  0.2549381454D-01
      0.5094790000D+01  0.1903731086D+00
      0.1158790000D+01  0.8521614860D+00
 S   1 1.00       0.000000000000
      0.3258400000D+00  0.1000000000D+01
 S   1 1.00       0.000000000000
      0.1027410000D+00  0.1000000000D+01
 P   1 1.00       0.000000000000
      0.7500000000D+00  0.1000000000D+01
 ****

    74 basis functions,   112 primitive gaussians,    76 cartesian basis functions
     9 alpha electrons        8 beta electrons
       nuclear repulsion energy        36.8708845243 Hartrees.
 IExCor= 1614 DFT=T Ex+Corr=B971 ExCW=0 ScaHFX=  0.210000
 ScaDFX=  1.000000  1.000000  1.000000  1.000000 ScalE2=  1.000000  1.000000
 IRadAn=      5 IRanWt=     -1 IRanGd=            0 ICorTp=0 IEmpDi=  4
 NAtoms=    7 NActive=    7 NUniq=    7 SFac= 1.00D+00 NAtFMM=   60 NAOKFM=F Big=F
 Integral buffers will be    131072 words long.
 Raffenetti 2 integral format.
 Two-electron integral symmetry is turned off.
 Leave Link  301 at Mon Apr 27 15:15:54 2015, MaxMem=   524288000 cpu:         0.5
 (Enter /opt/g09/l302.exe)
 NPDir=0 NMtPBC=     1 NCelOv=     1 NCel=       1 NClECP=     1 NCelD=      1
         NCelK=      1 NCelE2=     1 NClLst=     1 CellRange=     0.0.
 One-electron integrals computed using PRISM.
 NBasis=    74 RedAO= T EigKep=  2.14D-04  NBF=    74
 NBsUse=    74 1.00D-06 EigRej= -1.00D+00 NBFU=    74
 Precomputing XC quadrature grid using
 IXCGrd= 4 IRadAn=           5 IRanWt=          -1 IRanGd=           0 AccXCQ= 0.00D+00.
 Generated NRdTot=       0 NPtTot=           0 NUsed=           0 NTot=          32
 NSgBfM=    76    76    76    76    76 MxSgAt=     7 MxSgA2=     7.
 Leave Link  302 at Mon Apr 27 15:15:54 2015, MaxMem=   524288000 cpu:         1.3
 (Enter /opt/g09/l303.exe)
 DipDrv:  MaxL=1.
 Leave Link  303 at Mon Apr 27 15:15:54 2015, MaxMem=   524288000 cpu:         0.3
 (Enter /opt/g09/l401.exe)
 ExpMin= 4.38D-02 ExpMax= 4.56D+03 ExpMxC= 6.82D+02 IAcc=3 IRadAn=         5 AccDes= 0.00D+00
 Harris functional with IExCor= 1614 and IRadAn=       5 diagonalized for initial guess.
 HarFok:  IExCor= 1614 AccDes= 0.00D+00 IRadAn=         5 IDoV= 1 UseB2=F ITyADJ=14
 ICtDFT=  3500011 ScaDFX=  1.000000  1.000000  1.000000  1.000000
 FoFCou: FMM=F IPFlag=           0 FMFlag=      100000 FMFlg1=           0
         NFxFlg=           0 DoJE=T BraDBF=F KetDBF=T FulRan=T
         wScrn=  0.000000 ICntrl=     500 IOpCl=  0 I1Cent=   200000004 NGrid=           0
         NMat0=    1 NMatS0=      1 NMatT0=    0 NMatD0=    1 NMtDS0=    0 NMtDT0=    0
 Symmetry not used in FoFCou.
 Harris En= -76.6623449176349    
 JPrj=0 DoOrth=F DoCkMO=T.
 Mixing orbitals, IMix= 1 IMixAn=  0 NRI=1 NE=    9 Coef=  7.07106781D-01  7.07106781D-01
 Mixing orbitals, IMix= 1 IMixAn=  0 NRI=1 NE=    8 Coef= -7.07106781D-01  7.07106781D-01
 Initial guess <Sx>= 0.0000 <Sy>= 0.0000 <Sz>= 0.5000 <S**2>= 1.0000 S= 0.6180
 Leave Link  401 at Mon Apr 27 15:15:55 2015, MaxMem=   524288000 cpu:         2.7
 (Enter /opt/g09/l502.exe)
 UHF open shell SCF:
 Using DIIS extrapolation, IDIIS=  1040.
 Two-electron integral symmetry not used.
 Keep R1 and R2 ints in memory in canonical form, NReq=8640900.
 IVT=       36956 IEndB=       36956 NGot=   524288000 MDV=   516547645
 LenX=   516547645 LenY=   516541428
 Requested convergence on RMS density matrix=1.00D-08 within 128 cycles.
 Requested convergence on MAX density matrix=1.00D-06.
 Requested convergence on             energy=1.00D-06.
 No special actions if energy rises.
 FoFCou: FMM=F IPFlag=           0 FMFlag=           0 FMFlg1=           0
         NFxFlg=           0 DoJE=F BraDBF=F KetDBF=F FulRan=T
         wScrn=  0.000000 ICntrl=     600 IOpCl=  0 I1Cent=           0 NGrid=           0
         NMat0=    1 NMatS0=   2775 NMatT0=    0 NMatD0=    1 NMtDS0=    0 NMtDT0=    0
 Symmetry not used in FoFCou.

 Cycle   1  Pass 1  IDiag  1:
 E= -78.9356131989185    
 DIIS: error= 9.42D-02 at cycle   1 NSaved=   1.
 NSaved= 1 IEnMin= 1 EnMin= -78.9356131989185     IErMin= 1 ErrMin= 9.42D-02
 ErrMax= 9.42D-02  0.00D+00 EMaxC= 1.00D-01 BMatC= 6.01D-01 BMatP= 6.01D-01
 IDIUse=3 WtCom= 5.85D-02 WtEn= 9.42D-01
 Coeff-Com:  0.100D+01
 Coeff-En:   0.100D+01
 Coeff:      0.100D+01
 Gap=     0.040 Goal=   None    Shift=    0.000
 Gap=     0.070 Goal=   None    Shift=    0.000
 GapD=    0.040 DampG=0.250 DampE=0.500 DampFc=0.2500 IDamp=-1.
 Damping current iteration by 2.50D-01
 RMSDP=6.44D-02 MaxDP=5.26D+00              OVMax= 6.15D-01

 Cycle   2  Pass 1  IDiag  1:
 E= -78.9770308840818     Delta-E=       -0.041417685163 Rises=F Damp=T
 DIIS: error= 6.95D-02 at cycle   2 NSaved=   2.
 NSaved= 2 IEnMin= 2 EnMin= -78.9770308840818     IErMin= 2 ErrMin= 6.95D-02
 ErrMax= 6.95D-02  0.00D+00 EMaxC= 1.00D-01 BMatC= 3.28D-01 BMatP= 6.01D-01
 IDIUse=3 WtCom= 3.05D-01 WtEn= 6.95D-01
 Coeff-Com: -0.260D+01 0.360D+01
 Coeff-En:   0.000D+00 0.100D+01
 Coeff:     -0.794D+00 0.179D+01
 Gap=     0.182 Goal=   None    Shift=    0.000
 Gap=     0.245 Goal=   None    Shift=    0.000
 RMSDP=4.90D-02 MaxDP=4.00D+00 DE=-4.14D-02 OVMax= 6.93D-02

 Cycle   3  Pass 1  IDiag  1:
 E= -79.1424469278990     Delta-E=       -0.165416043817 Rises=F Damp=F
 DIIS: error= 9.13D-03 at cycle   3 NSaved=   3.
 NSaved= 3 IEnMin= 3 EnMin= -79.1424469278990     IErMin= 3 ErrMin= 9.13D-03
 ErrMax= 9.13D-03  0.00D+00 EMaxC= 1.00D-01 BMatC= 6.01D-03 BMatP= 3.28D-01
 IDIUse=3 WtCom= 9.09D-01 WtEn= 9.13D-02
 Coeff-Com:  0.409D+00-0.516D+00 0.111D+01
 Coeff-En:   0.000D+00 0.000D+00 0.100D+01
 Coeff:      0.372D+00-0.469D+00 0.110D+01
 Gap=     0.218 Goal=   None    Shift=    0.000
 Gap=     0.283 Goal=   None    Shift=    0.000
 RMSDP=1.90D-03 MaxDP=6.27D-02 DE=-1.65D-01 OVMax= 7.34D-02

 Cycle   4  Pass 1  IDiag  1:
 E= -79.1476893744018     Delta-E=       -0.005242446503 Rises=F Damp=F
 DIIS: error= 2.77D-03 at cycle   4 NSaved=   4.
 NSaved= 4 IEnMin= 4 EnMin= -79.1476893744018     IErMin= 4 ErrMin= 2.77D-03
 ErrMax= 2.77D-03  0.00D+00 EMaxC= 1.00D-01 BMatC= 9.64D-04 BMatP= 6.01D-03
 IDIUse=3 WtCom= 9.72D-01 WtEn= 2.77D-02
 Coeff-Com:  0.422D+00-0.566D+00 0.112D+00 0.103D+01
 Coeff-En:   0.000D+00 0.000D+00 0.000D+00 0.100D+01
 Coeff:      0.410D+00-0.550D+00 0.109D+00 0.103D+01
 Gap=     0.223 Goal=   None    Shift=    0.000
 Gap=     0.296 Goal=   None    Shift=    0.000
 RMSDP=4.52D-04 MaxDP=1.21D-02 DE=-5.24D-03 OVMax= 2.47D-02

 Cycle   5  Pass 1  IDiag  1:
 E= -79.1482682414584     Delta-E=       -0.000578867057 Rises=F Damp=F
 DIIS: error= 6.88D-04 at cycle   5 NSaved=   5.
 NSaved= 5 IEnMin= 5 EnMin= -79.1482682414584     IErMin= 5 ErrMin= 6.88D-04
 ErrMax= 6.88D-04  0.00D+00 EMaxC= 1.00D-01 BMatC= 8.01D-05 BMatP= 9.64D-04
 IDIUse=3 WtCom= 9.93D-01 WtEn= 6.88D-03
 Coeff-Com: -0.146D-01 0.170D-01-0.833D-01 0.159D+00 0.922D+00
 Coeff-En:   0.000D+00 0.000D+00 0.000D+00 0.000D+00 0.100D+01
 Coeff:     -0.145D-01 0.169D-01-0.827D-01 0.158D+00 0.923D+00
 Gap=     0.226 Goal=   None    Shift=    0.000
 Gap=     0.295 Goal=   None    Shift=    0.000
 RMSDP=1.42D-04 MaxDP=3.40D-03 DE=-5.79D-04 OVMax= 4.73D-03

 Cycle   6  Pass 1  IDiag  1:
 E= -79.1483066610934     Delta-E=       -0.000038419635 Rises=F Damp=F
 DIIS: error= 1.84D-04 at cycle   6 NSaved=   6.
 NSaved= 6 IEnMin= 6 EnMin= -79.1483066610934     IErMin= 6 ErrMin= 1.84D-04
 ErrMax= 1.84D-04  0.00D+00 EMaxC= 1.00D-01 BMatC= 6.76D-06 BMatP= 8.01D-05
 IDIUse=3 WtCom= 9.98D-01 WtEn= 1.84D-03
 Coeff-Com: -0.321D-01 0.429D-01-0.150D-01-0.537D-01 0.141D+00 0.917D+00
 Coeff-En:   0.000D+00 0.000D+00 0.000D+00 0.000D+00 0.000D+00 0.100D+01
 Coeff:     -0.320D-01 0.428D-01-0.150D-01-0.536D-01 0.141D+00 0.917D+00
 Gap=     0.225 Goal=   None    Shift=    0.000
 Gap=     0.295 Goal=   None    Shift=    0.000
 RMSDP=2.88D-05 MaxDP=5.38D-04 DE=-3.84D-05 OVMax= 9.53D-04

 Cycle   7  Pass 1  IDiag  1:
 E= -79.1483091581307     Delta-E=       -0.000002497037 Rises=F Damp=F
 DIIS: error= 1.12D-04 at cycle   7 NSaved=   7.
 NSaved= 7 IEnMin= 7 EnMin= -79.1483091581307     IErMin= 7 ErrMin= 1.12D-04
 ErrMax= 1.12D-04  0.00D+00 EMaxC= 1.00D-01 BMatC= 1.49D-06 BMatP= 6.76D-06
 IDIUse=3 WtCom= 9.99D-01 WtEn= 1.12D-03
 Coeff-Com: -0.559D-02 0.764D-02 0.273D-02-0.306D-01-0.273D-01 0.332D+00
 Coeff-Com:  0.721D+00
 Coeff-En:   0.000D+00 0.000D+00 0.000D+00 0.000D+00 0.000D+00 0.000D+00
 Coeff-En:   0.100D+01
 Coeff:     -0.559D-02 0.763D-02 0.273D-02-0.306D-01-0.273D-01 0.332D+00
 Coeff:      0.721D+00
 Gap=     0.225 Goal=   None    Shift=    0.000
 Gap=     0.295 Goal=   None    Shift=    0.000
 RMSDP=8.65D-06 MaxDP=1.97D-04 DE=-2.50D-06 OVMax= 3.11D-04

 Cycle   8  Pass 1  IDiag  1:
 E= -79.1483095880357     Delta-E=       -0.000000429905 Rises=F Damp=F
 DIIS: error= 3.75D-05 at cycle   8 NSaved=   8.
 NSaved= 8 IEnMin= 8 EnMin= -79.1483095880357     IErMin= 8 ErrMin= 3.75D-05
 ErrMax= 3.75D-05  0.00D+00 EMaxC= 1.00D-01 BMatC= 1.87D-07 BMatP= 1.49D-06
 IDIUse=1 WtCom= 1.00D+00 WtEn= 0.00D+00
 Coeff-Com:  0.118D-02-0.147D-02 0.289D-02-0.748D-02-0.283D-01 0.281D-01
 Coeff-Com:  0.281D+00 0.724D+00
 Coeff:      0.118D-02-0.147D-02 0.289D-02-0.748D-02-0.283D-01 0.281D-01
 Coeff:      0.281D+00 0.724D+00
 Gap=     0.225 Goal=   None    Shift=    0.000
 Gap=     0.295 Goal=   None    Shift=    0.000
 RMSDP=3.26D-06 MaxDP=7.68D-05 DE=-4.30D-07 OVMax= 1.02D-04

 Cycle   9  Pass 1  IDiag  1:
 E= -79.1483096469322     Delta-E=       -0.000000058897 Rises=F Damp=F
 DIIS: error= 5.71D-06 at cycle   9 NSaved=   9.
 NSaved= 9 IEnMin= 9 EnMin= -79.1483096469322     IErMin= 9 ErrMin= 5.71D-06
 ErrMax= 5.71D-06  0.00D+00 EMaxC= 1.00D-01 BMatC= 8.65D-09 BMatP= 1.87D-07
 IDIUse=1 WtCom= 1.00D+00 WtEn= 0.00D+00
 Coeff-Com:  0.242D-03-0.326D-03-0.187D-03 0.195D-02-0.738D-03-0.277D-01
 Coeff-Com: -0.371D-01 0.110D+00 0.953D+00
 Coeff:      0.242D-03-0.326D-03-0.187D-03 0.195D-02-0.738D-03-0.277D-01
 Coeff:     -0.371D-01 0.110D+00 0.953D+00
 Gap=     0.225 Goal=   None    Shift=    0.000
 Gap=     0.295 Goal=   None    Shift=    0.000
 RMSDP=1.46D-06 MaxDP=3.83D-05 DE=-5.89D-08 OVMax= 2.93D-05

 Cycle  10  Pass 1  IDiag  1:
 E= -79.1483096506077     Delta-E=       -0.000000003675 Rises=F Damp=F
 DIIS: error= 1.89D-06 at cycle  10 NSaved=  10.
 NSaved=10 IEnMin=10 EnMin= -79.1483096506077     IErMin=10 ErrMin= 1.89D-06
 ErrMax= 1.89D-06  0.00D+00 EMaxC= 1.00D-01 BMatC= 4.02D-10 BMatP= 8.65D-09
 IDIUse=1 WtCom= 1.00D+00 WtEn= 0.00D+00
 Coeff-Com: -0.138D-03 0.179D-03-0.201D-03 0.530D-03 0.130D-02-0.309D-02
 Coeff-Com: -0.169D-01-0.361D-01 0.525D-01 0.100D+01
 Coeff:     -0.138D-03 0.179D-03-0.201D-03 0.530D-03 0.130D-02-0.309D-02
 Coeff:     -0.169D-01-0.361D-01 0.525D-01 0.100D+01
 Gap=     0.225 Goal=   None    Shift=    0.000
 Gap=     0.295 Goal=   None    Shift=    0.000
 RMSDP=2.67D-07 MaxDP=3.98D-06 DE=-3.68D-09 OVMax= 8.86D-06

 Cycle  11  Pass 1  IDiag  1:
 E= -79.1483096508417     Delta-E=       -0.000000000234 Rises=F Damp=F
 DIIS: error= 5.21D-07 at cycle  11 NSaved=  11.
 NSaved=11 IEnMin=11 EnMin= -79.1483096508417     IErMin=11 ErrMin= 5.21D-07
 ErrMax= 5.21D-07  0.00D+00 EMaxC= 1.00D-01 BMatC= 3.16D-11 BMatP= 4.02D-10
 IDIUse=1 WtCom= 1.00D+00 WtEn= 0.00D+00
 Coeff-Com:  0.111D-04-0.148D-04 0.200D-04-0.149D-03 0.223D-03 0.200D-02
 Coeff-Com:  0.209D-02-0.111D-01-0.708D-01 0.921D-02 0.107D+01
 Coeff:      0.111D-04-0.148D-04 0.200D-04-0.149D-03 0.223D-03 0.200D-02
 Coeff:      0.209D-02-0.111D-01-0.708D-01 0.921D-02 0.107D+01
 Gap=     0.225 Goal=   None    Shift=    0.000
 Gap=     0.295 Goal=   None    Shift=    0.000
 RMSDP=6.77D-08 MaxDP=1.14D-06 DE=-2.34D-10 OVMax= 2.59D-06

 Cycle  12  Pass 1  IDiag  1:
 E= -79.1483096508610     Delta-E=       -0.000000000019 Rises=F Damp=F
 DIIS: error= 8.37D-08 at cycle  12 NSaved=  12.
 NSaved=12 IEnMin=12 EnMin= -79.1483096508610     IErMin=12 ErrMin= 8.37D-08
 ErrMax= 8.37D-08  0.00D+00 EMaxC= 1.00D-01 BMatC= 1.56D-12 BMatP= 3.16D-11
 IDIUse=1 WtCom= 1.00D+00 WtEn= 0.00D+00
 Coeff-Com:  0.359D-05-0.452D-05 0.108D-04-0.435D-04-0.131D-04 0.418D-03
 Coeff-Com:  0.100D-02-0.191D-03-0.123D-01-0.378D-01 0.144D+00 0.905D+00
 Coeff:      0.359D-05-0.452D-05 0.108D-04-0.435D-04-0.131D-04 0.418D-03
 Coeff:      0.100D-02-0.191D-03-0.123D-01-0.378D-01 0.144D+00 0.905D+00
 Gap=     0.225 Goal=   None    Shift=    0.000
 Gap=     0.295 Goal=   None    Shift=    0.000
 RMSDP=3.08D-08 MaxDP=8.21D-07 DE=-1.92D-11 OVMax= 5.30D-07

 Cycle  13  Pass 1  IDiag  1:
 E= -79.1483096508616     Delta-E=       -0.000000000001 Rises=F Damp=F
 DIIS: error= 2.81D-08 at cycle  13 NSaved=  13.
 NSaved=13 IEnMin=13 EnMin= -79.1483096508616     IErMin=13 ErrMin= 2.81D-08
 ErrMax= 2.81D-08  0.00D+00 EMaxC= 1.00D-01 BMatC= 1.75D-13 BMatP= 1.56D-12
 IDIUse=1 WtCom= 1.00D+00 WtEn= 0.00D+00
 Coeff-Com: -0.143D-05 0.197D-05-0.281D-06 0.418D-05-0.274D-04-0.898D-04
 Coeff-Com:  0.564D-04 0.108D-02 0.405D-02-0.965D-02-0.748D-01 0.185D+00
 Coeff-Com:  0.894D+00
 Coeff:     -0.143D-05 0.197D-05-0.281D-06 0.418D-05-0.274D-04-0.898D-04
 Coeff:      0.564D-04 0.108D-02 0.405D-02-0.965D-02-0.748D-01 0.185D+00
 Coeff:      0.894D+00
 Gap=     0.225 Goal=   None    Shift=    0.000
 Gap=     0.295 Goal=   None    Shift=    0.000
 RMSDP=4.66D-09 MaxDP=6.13D-08 DE=-5.97D-13 OVMax= 1.44D-07

 SCF Done:  E(UB971) =  -79.1483096509     A.U. after   13 cycles
            NFock= 13  Conv=0.47D-08     -V/T= 2.0046
 <Sx>= 0.0000 <Sy>= 0.0000 <Sz>= 0.5000 <S**2>= 0.7542 S= 0.5021
 <L.S>= 0.000000000000E+00
 KE= 7.878738784541D+01 PE=-2.566820566509D+02 EE= 6.187547463030D+01
 Annihilation of the first spin contaminant:
 S**2 before annihilation     0.7542,   after     0.7500
 Leave Link  502 at Mon Apr 27 15:16:00 2015, MaxMem=   524288000 cpu:        40.4
 (Enter /opt/g09/l801.exe)
 DoSCS=F DFT=T ScalE2(SS,OS)=  1.000000  1.000000
 Range of M.O.s used for correlation:     1    74
 NBasis=    74 NAE=     9 NBE=     8 NFC=     0 NFV=     0
 NROrb=     74 NOA=     9 NOB=     8 NVA=    65 NVB=    66

 **** Warning!!: The largest alpha MO coefficient is  0.32465728D+02


 **** Warning!!: The largest beta MO coefficient is  0.23391008D+02

 Leave Link  801 at Mon Apr 27 15:16:00 2015, MaxMem=   524288000 cpu:         0.5
 (Enter /opt/g09/l1101.exe)
 Using compressed storage, NAtomX=     7.
 Will process      8 centers per pass.
 Leave Link 1101 at Mon Apr 27 15:16:01 2015, MaxMem=   524288000 cpu:         1.4
 (Enter /opt/g09/l1102.exe)
 Symmetrizing basis deriv contribution to polar:
 IMax=3 JMax=2 DiffMx= 0.00D+00
 Leave Link 1102 at Mon Apr 27 15:16:01 2015, MaxMem=   524288000 cpu:         0.3
 (Enter /opt/g09/l1110.exe)
 Forming Gx(P) for the SCF density, NAtomX=     7.
 Integral derivatives from FoFJK, PRISM(SPDF).
 Do as many integral derivatives as possible in FoFJK.
 G2DrvN: MDV=     524287840.
 G2DrvN: will do     8 centers at a time, making    1 passes.
 Calling FoFCou, ICntrl=  3107 FMM=F I1Cent=   0 AccDes= 0.00D+00.
 FoFJK:  IHMeth= 1 ICntrl=    3107 DoSepK=F KAlg= 0 I1Cent=   0 FoldK=F
 IRaf=         0 NMat=   1 IRICut=       1 DoRegI=T DoRafI=F ISym2E= 0.
 FoFCou: FMM=F IPFlag=           0 FMFlag=      100000 FMFlg1=           0
         NFxFlg=           0 DoJE=F BraDBF=F KetDBF=F FulRan=T
         wScrn=  0.000000 ICntrl=    3107 IOpCl=  1 I1Cent=           0 NGrid=           0
         NMat0=    1 NMatS0=      1 NMatT0=    0 NMatD0=    1 NMtDS0=    0 NMtDT0=    0
 Symmetry not used in FoFCou.
 End of G2Drv F.D. properties file   721 does not exist.
 End of G2Drv F.D. properties file   722 does not exist.
 End of G2Drv F.D. properties file   788 does not exist.
 Leave Link 1110 at Mon Apr 27 15:16:07 2015, MaxMem=   524288000 cpu:        52.3
 (Enter /opt/g09/l1002.exe)
 Minotr:  UHF open shell wavefunction.
          IDoAtm=1111111
          Direct CPHF calculation.
          Differentiating once with respect to electric field.
                with respect to dipole field.
          Differentiating once with respect to nuclear coordinates.
          Requested convergence is 1.0D-08 RMS, and 1.0D-07 maximum.
          Secondary convergence is 1.0D-12 RMS, and 1.0D-12 maximum.
          NewPWx=T KeepS1=F KeepF1=F KeepIn=T MapXYZ=F SortEE=F KeepMc=T.
          MDV=     524287778 using IRadAn=       1.
 Generate precomputed XC quadrature information.
 Keep R1 and R2 ints in memory in canonical form, NReq=8603811.
 FoFCou: FMM=F IPFlag=           0 FMFlag=           0 FMFlg1=           0
         NFxFlg=           0 DoJE=F BraDBF=F KetDBF=F FulRan=T
         wScrn=  0.000000 ICntrl=     600 IOpCl=  0 I1Cent=           0 NGrid=           0
         NMat0=    1 NMatS0=   2775 NMatT0=    0 NMatD0=    1 NMtDS0=    0 NMtDT0=    0
 Symmetry not used in FoFCou.
          Solving linear equations simultaneously, MaxMat=       0.
          There are    24 degrees of freedom in the 1st order CPHF.  IDoFFX=6 NUNeed=     3.
     21 vectors produced by pass  0 Test12= 4.64D-15 4.17D-09 XBig12= 3.23D+01 2.37D+00.
 AX will form    21 AO Fock derivatives at one time.
     21 vectors produced by pass  1 Test12= 4.64D-15 4.17D-09 XBig12= 1.99D+00 6.63D-01.
     21 vectors produced by pass  2 Test12= 4.64D-15 4.17D-09 XBig12= 2.72D-02 5.10D-02.
     21 vectors produced by pass  3 Test12= 4.64D-15 4.17D-09 XBig12= 2.23D-04 3.55D-03.
     21 vectors produced by pass  4 Test12= 4.64D-15 4.17D-09 XBig12= 1.78D-06 3.19D-04.
     21 vectors produced by pass  5 Test12= 4.64D-15 4.17D-09 XBig12= 5.15D-09 1.26D-05.
      8 vectors produced by pass  6 Test12= 4.64D-15 4.17D-09 XBig12= 1.45D-11 7.84D-07.
      3 vectors produced by pass  7 Test12= 4.64D-15 4.17D-09 XBig12= 5.86D-14 5.98D-08.
 InvSVY:  IOpt=1 It=  1 EMax= 5.33D-15
 Solved reduced A of dimension   137 with    24 vectors.
 FullF1:  Do perturbations    1 to     3.
 Isotropic polarizability for W=    0.000000       25.42 Bohr**3.
 End of Minotr F.D. properties file   721 does not exist.
 End of Minotr F.D. properties file   722 does not exist.
 End of Minotr F.D. properties file   788 does not exist.
 Leave Link 1002 at Mon Apr 27 15:16:17 2015, MaxMem=   524288000 cpu:        78.1
 (Enter /opt/g09/l701.exe)
 Compute integral second derivatives.
 ... and contract with generalized density number  0.
 Leave Link  701 at Mon Apr 27 15:16:17 2015, MaxMem=   524288000 cpu:         2.1
 (Enter /opt/g09/l702.exe)
 L702 exits ... SP integral derivatives will be done elsewhere.
 Leave Link  702 at Mon Apr 27 15:16:17 2015, MaxMem=   524288000 cpu:         0.5
 (Enter /opt/g09/l703.exe)
 Compute integral second derivatives, UseDBF=F ICtDFT=           0.
 Integral derivatives from FoFJK, PRISM(SPDF).
 Calling FoFJK, ICntrl=    100127 FMM=F ISym2X=0 I1Cent= 0 IOpClX= 1 NMat=1 NMatS=1 NMatT=0.
 FoFJK:  IHMeth= 1 ICntrl=  100127 DoSepK=F KAlg= 0 I1Cent=   0 FoldK=F
 IRaf=         0 NMat=   1 IRICut=       1 DoRegI=T DoRafI=F ISym2E= 0.
 FoFCou: FMM=F IPFlag=           0 FMFlag=      100000 FMFlg1=         800
         NFxFlg=           0 DoJE=F BraDBF=F KetDBF=F FulRan=T
         wScrn=  0.000000 ICntrl=  100127 IOpCl=  1 I1Cent=           0 NGrid=           0
         NMat0=    1 NMatS0=      1 NMatT0=    0 NMatD0=    1 NMtDS0=    0 NMtDT0=    0
 Symmetry not used in FoFCou.
 Leave Link  703 at Mon Apr 27 15:16:30 2015, MaxMem=   524288000 cpu:        95.7
 (Enter /opt/g09/l716.exe)
 Dipole        = 1.23419300D-01-5.99513401D-02 7.56234737D-04
 Polarizability= 2.87858589D+01-8.13033192D-01 2.35539425D+01
                 8.41782580D-01-3.82510371D-01 2.39058729D+01
 -------------------------------------------------------------------
 Center     Atomic                   Forces (Hartrees/Bohr)
 Number     Number              X              Y              Z
 -------------------------------------------------------------------
      1        6           0.000003228    0.000001979   -0.000002530
      2        6          -0.000002607    0.000000373   -0.000003431
      3        1           0.000000228    0.000000004   -0.000000107
      4        1          -0.000001085   -0.000001381    0.000002144
      5        1           0.000000863    0.000000382    0.000003748
      6        1           0.000000441   -0.000000916   -0.000000451
      7        1          -0.000001068   -0.000000441    0.000000627
 -------------------------------------------------------------------
 Cartesian Forces:  Max     0.000003748 RMS     0.000001760
 Force constants in Cartesian coordinates: 
                1             2             3             4             5 
      1  0.542292D+00
      2  0.393222D-01  0.168684D+00
      3  0.184625D-03 -0.224077D+00  0.504708D+00
      4 -0.227816D+00  0.868220D-02 -0.322160D-01  0.475480D+00
      5  0.268770D-02 -0.500659D-01  0.189771D-01  0.274342D-01  0.489229D+00
      6 -0.353009D-01  0.205182D-01 -0.838245D-01 -0.632979D-02 -0.270545D-01
      7 -0.790675D-01  0.279106D-01 -0.751565D-01 -0.308577D-02  0.858900D-02
      8  0.281087D-01 -0.569818D-01  0.108666D+00 -0.191210D-02  0.151260D-02
      9 -0.767664D-01  0.112922D+00 -0.270292D+00  0.167782D-02  0.620514D-05
     10 -0.186690D+00 -0.812081D-01  0.117658D+00 -0.120515D-01 -0.132820D-01
     11 -0.840046D-01 -0.667271D-01  0.915454D-01  0.373990D-02  0.513556D-02
     12  0.117919D+00  0.879603D-01 -0.152982D+00 -0.678856D-02 -0.211659D-02
     13 -0.710275D-02  0.386097D-02 -0.331630D-01 -0.509889D-01 -0.516120D-02
     14  0.304327D-02 -0.101169D-02  0.440440D-02 -0.566990D-02 -0.441558D-01
     15 -0.269241D-02  0.154169D-02 -0.467742D-02 -0.373679D-01 -0.201584D-02
     16 -0.209518D-01  0.225243D-01  0.623538D-02 -0.700119D-01  0.814110D-01
     17  0.759078D-02  0.207226D-02  0.299052D-02  0.691758D-01 -0.215475D+00
     18 -0.149147D-02  0.683992D-02  0.322817D-02  0.282291D-01 -0.695172D-01
     19 -0.206636D-01 -0.210923D-01  0.164580D-01 -0.111526D+00 -0.101679D+00
     20  0.325196D-02  0.403068D-02 -0.250669D-02 -0.101450D+00 -0.186181D+00
     21 -0.185252D-02 -0.570468D-02  0.384023D-02  0.527953D-01  0.817208D-01
                6             7             8             9            10 
      6  0.539450D+00
      7 -0.251914D-01  0.785906D-01
      8  0.362262D-02 -0.306004D-01  0.543479D-01
      9  0.327136D-03  0.836134D-01 -0.117616D+00  0.279164D+00
     10  0.167053D-01  0.805612D-02  0.420186D-02 -0.730209D-02  0.194826D+00
     11 -0.404871D-02 -0.727574D-02 -0.391058D-03  0.442253D-02  0.884110D-01
     12  0.565273D-02  0.172522D-01  0.924705D-02 -0.952387D-02 -0.125883D+00
     13 -0.385427D-01 -0.523388D-02 -0.487482D-03 -0.878446D-03  0.144992D-02
     14 -0.311056D-02  0.114761D-02  0.945519D-03  0.509380D-03 -0.219239D-04
     15 -0.297420D+00 -0.777022D-03 -0.175265D-02  0.674588D-03 -0.340974D-03
     16  0.345604D-01 -0.808932D-03 -0.137330D-03 -0.216747D-03 -0.884348D-03
     17 -0.726697D-01  0.660832D-03 -0.379422D-04 -0.964368D-04  0.354797D-03
     18 -0.692915D-01 -0.113504D-03 -0.113191D-02 -0.791681D-03  0.226911D-03
     19  0.540990D-01  0.154944D-02  0.826722D-03 -0.127532D-03 -0.470636D-02
     20  0.827427D-01 -0.432003D-03  0.604816D-03 -0.147563D-03  0.154441D-02
     21 -0.948943D-01  0.372805D-03 -0.103570D-02  0.441756D-03 -0.106382D-02
               11            12            13            14            15 
     11  0.630307D-01
     12 -0.935872D-01  0.154308D+00
     13 -0.124817D-03  0.758917D-03  0.580755D-01
     14 -0.881123D-04 -0.717573D-03 -0.103429D-03  0.446144D-01
     15  0.467166D-03  0.123316D-02  0.438011D-01  0.355533D-02  0.324009D+00
     16 -0.524183D-03 -0.536468D-03  0.186398D-02 -0.339134D-02 -0.940696D-03
     17 -0.110002D-02 -0.182479D-03 -0.188059D-03 -0.136318D-02 -0.564291D-03
     18  0.420154D-03  0.356239D-03  0.118000D-01 -0.285465D-01 -0.125037D-01
     19 -0.221534D-03 -0.272228D-02  0.193609D-02  0.499571D-02 -0.168214D-02
     20  0.140020D-03 -0.603538D-03  0.220402D-02  0.105894D-02 -0.123141D-02
     21  0.780601D-03  0.955799D-03  0.162242D-01  0.239055D-01 -0.113156D-01
               16            17            18            19            20 
     16  0.845318D-01
     17 -0.860501D-01  0.238610D+00
     18 -0.335902D-01  0.795444D-01  0.745518D-01
     19  0.626119D-02  0.845591D-02 -0.506088D-02  0.127149D+00
     20 -0.138324D-01 -0.227062D-01  0.123911D-01  0.108714D+00  0.203053D+00
     21 -0.551174D-02 -0.902196D-02  0.445063D-02 -0.609642D-01 -0.906446D-01
               21 
     21  0.965214D-01
 FormGI is forming the generalized inverse of G from B-inverse, IUseBI=4.
 Force constants in internal coordinates: 
                1             2             3             4             5 
      1  0.312750D+00
      2  0.297776D-02  0.357754D+00
      3  0.298072D-02  0.823100D-03  0.357750D+00
      4  0.719158D-02 -0.616542D-03  0.691834D-03  0.331059D+00
      5  0.159885D-01  0.157182D-03  0.157307D-03  0.391933D-02  0.308840D+00
      6  0.718322D-02  0.691383D-03 -0.617746D-03  0.211667D-02  0.391800D-02
      7  0.924729D-02  0.387201D-02 -0.105758D-01  0.305156D-02  0.600402D-03
      8  0.923672D-02 -0.105813D-01  0.386189D-02 -0.214117D-02  0.594989D-03
      9 -0.183096D-01  0.682493D-02  0.682965D-02 -0.917677D-03 -0.110751D-02
     10  0.167542D-01  0.366829D-02 -0.160091D-02  0.175352D-02 -0.650117D-02
     11  0.170675D-01  0.393172D-04  0.351588D-04 -0.675780D-02  0.132341D-02
     12  0.167533D-01 -0.160016D-02  0.367244D-02 -0.559474D-02 -0.649808D-02
     13 -0.195417D-01 -0.159191D-02 -0.769401D-05  0.657821D-02  0.710159D-02
     14 -0.156963D-01 -0.700509D-03 -0.701976D-03  0.576781D-02 -0.132928D-02
     15 -0.195374D-01 -0.823955D-05 -0.159037D-02 -0.996603D-03  0.710229D-02
     16  0.192659D-02 -0.865523D-03 -0.630396D-04  0.712248D-03 -0.584042D-02
     17  0.525975D-04 -0.371598D-03 -0.113789D-02  0.568267D-02 -0.313548D-03
     18 -0.181562D-02 -0.144387D-02 -0.641896D-03 -0.399667D-02  0.521629D-02
     19  0.181916D-02  0.641814D-03  0.144553D-02  0.576705D-03 -0.521886D-02
     20 -0.548314D-04  0.113574D-02  0.370678D-03  0.554713D-02  0.308015D-03
     21 -0.192305D-02  0.634693D-04  0.866673D-03 -0.413221D-02  0.583785D-02
                6             7             8             9            10 
      6  0.331073D+00
      7 -0.214432D-02  0.762485D-01
      8  0.305467D-02 -0.412648D-01  0.762626D-01
      9 -0.917580D-03 -0.346014D-01 -0.346147D-01  0.685291D-01
     10 -0.559670D-02  0.123050D-01 -0.980868D-02 -0.246924D-02  0.997355D-01
     11 -0.675509D-02 -0.156322D-03 -0.170072D-03  0.203859D-03 -0.166613D-01
     12  0.175185D-02 -0.981743D-02  0.123110D-01 -0.246665D-02 -0.237841D-01
     13 -0.995624D-03 -0.437069D-02  0.285758D-02  0.156527D-02 -0.384103D-01
     14  0.576811D-02 -0.103135D-02 -0.103670D-02  0.203623D-02 -0.372299D-01
     15  0.657767D-02  0.285575D-02 -0.436900D-02  0.156525D-02  0.106955D-01
     16  0.413163D-02 -0.294820D-03  0.521116D-03 -0.516460D-03 -0.273740D-03
     17 -0.554537D-02  0.240055D-02 -0.262628D-02 -0.630466D-04  0.728421D-02
     18 -0.575016D-03 -0.746102D-03  0.663297D-04  0.392061D-03 -0.661899D-02
     19  0.399657D-02 -0.694239D-04  0.751008D-03 -0.392630D-03 -0.259464D-03
     20 -0.568042D-02  0.262595D-02 -0.239639D-02  0.607835D-04  0.729848D-02
     21 -0.710072D-03 -0.520706D-03  0.296223D-03  0.515891D-03 -0.660472D-02
               11            12            13            14            15 
     11  0.925513D-01
     12 -0.166633D-01  0.997281D-01
     13 -0.358010D-01  0.106955D-01  0.546043D-01
     14  0.907018D-02 -0.372275D-01  0.767788D-02  0.557700D-01
     15 -0.358084D-01 -0.384049D-01  0.629766D-02  0.767541D-02  0.546090D-01
     16 -0.560363D-02  0.660216D-02 -0.104098D-01  0.940917D-02 -0.105902D-03
     17  0.495199D-03 -0.730092D-02  0.864306D-02  0.444525D-04 -0.919905D-02
     18  0.658608D-02  0.259947D-03 -0.446183D-03 -0.932271D-02  0.985671D-02
     19 -0.658186D-02  0.661516D-02 -0.985595D-02  0.932024D-02  0.446698D-03
     20 -0.483039D-03 -0.728791D-02  0.919696D-02 -0.444724D-04 -0.864645D-02
     21  0.560784D-02  0.272955D-03  0.107719D-03 -0.941164D-02  0.104093D-01
               16            17            18            19            20 
     16  0.127634D-01
     17 -0.450252D-02  0.118014D-01
     18 -0.396351D-02 -0.454812D-02  0.126735D-01
     19  0.103637D-01 -0.685310D-02 -0.626761D-02  0.126779D-01
     20 -0.690215D-02  0.945081D-02 -0.685221D-02 -0.453895D-02  0.118140D-01
     21 -0.636314D-02 -0.689870D-02  0.103694D-01 -0.395346D-02 -0.448902D-02
               21 
     21  0.127791D-01
 Leave Link  716 at Mon Apr 27 15:16:30 2015, MaxMem=   524288000 cpu:         0.9
 (Enter /opt/g09/l103.exe)

 GradGradGradGradGradGradGradGradGradGradGradGradGradGradGradGradGradGrad
 Berny optimization.
 Red2BG is reusing G-inverse.
 Internal  Forces:  Max     0.000003822 RMS     0.000001248
 Search for a local minimum.
 Step number   1 out of a maximum of   31
 All quantities printed in internal units (Hartrees-Bohrs-Radians)
 RMS Force = .12477D-05 SwitMx=.10000D-02 MixMth= 2
 Mixed Optimization -- En-DIIS/RFO-DIIS
 Second derivative matrix not updated -- analytic derivatives used.
 ITU=  0
     Eigenvalues ---    0.00030   0.00705   0.05524   0.05627   0.10030
     Eigenvalues ---    0.10482   0.11710   0.13369   0.15977   0.30260
     Eigenvalues ---    0.32405   0.33008   0.34283   0.35806   0.35961
 RFO step:  Lambda= 0.00000000D+00 EMin= 3.02623195D-04
 Linear search not attempted -- first point.
 Iteration  1 RMS(Cart)=  0.00000540 RMS(Int)=  0.00000000
 Iteration  2 RMS(Cart)=  0.00000000 RMS(Int)=  0.00000000
 ITry= 1 IFail=0 DXMaxC= 8.99D-06 DCOld= 1.00D+10 DXMaxT= 3.00D-01 DXLimC= 3.00D+00 Rises=F
 Variable       Old X    -DE/DX   Delta X   Delta X   Delta X     New X
                                 (Linear)    (Quad)   (Total)
    R1        2.81593   0.00000   0.00000  -0.00001  -0.00001   2.81592
    R2        2.05050   0.00000   0.00000   0.00000   0.00000   2.05050
    R3        2.05050   0.00000   0.00000   0.00001   0.00001   2.05050
    R4        2.07108   0.00000   0.00000   0.00001   0.00001   2.07109
    R5        2.08743   0.00000   0.00000   0.00000   0.00000   2.08743
    R6        2.07108   0.00000   0.00000   0.00000   0.00000   2.07108
    A1        2.11052   0.00000   0.00000   0.00000   0.00000   2.11052
    A2        2.11051   0.00000   0.00000  -0.00001  -0.00001   2.11050
    A3        2.05315   0.00000   0.00000   0.00001   0.00001   2.05316
    A4        1.95180   0.00000   0.00000   0.00000   0.00000   1.95180
    A5        1.95041   0.00000   0.00000   0.00000   0.00000   1.95041
    A6        1.95181   0.00000   0.00000   0.00000   0.00000   1.95180
    A7        1.85688   0.00000   0.00000   0.00000   0.00000   1.85688
    A8        1.89072   0.00000   0.00000   0.00000   0.00000   1.89071
    A9        1.85691   0.00000   0.00000   0.00000   0.00000   1.85691
    D1        2.70597   0.00000   0.00000   0.00001   0.00001   2.70598
    D2       -1.49765   0.00000   0.00000   0.00001   0.00001  -1.49763
    D3        0.58197   0.00000   0.00000   0.00001   0.00001   0.58198
    D4       -0.58287   0.00000   0.00000  -0.00001  -0.00001  -0.58287
    D5        1.49670   0.00000   0.00000   0.00000   0.00000   1.49670
    D6       -2.70688   0.00000   0.00000   0.00000   0.00000  -2.70687
         Item               Value     Threshold  Converged?
 Maximum Force            0.000004     0.000015     YES
 RMS     Force            0.000001     0.000010     YES
 Maximum Displacement     0.000009     0.000060     YES
 RMS     Displacement     0.000005     0.000040     YES
 Predicted change in Energy=-5.924303D-11
 Optimization completed.
    -- Stationary point found.
                           ----------------------------
                           !   Optimized Parameters   !
                           ! (Angstroms and Degrees)  !
 --------------------------                            --------------------------
 ! Name  Definition              Value          Derivative Info.                !
 --------------------------------------------------------------------------------
 ! R1    R(1,2)                  1.4901         -DE/DX =    0.0                 !
 ! R2    R(1,3)                  1.0851         -DE/DX =    0.0                 !
 ! R3    R(1,4)                  1.0851         -DE/DX =    0.0                 !
 ! R4    R(2,5)                  1.096          -DE/DX =    0.0                 !
 ! R5    R(2,6)                  1.1046         -DE/DX =    0.0                 !
 ! R6    R(2,7)                  1.096          -DE/DX =    0.0                 !
 ! A1    A(2,1,3)              120.9236         -DE/DX =    0.0                 !
 ! A2    A(2,1,4)              120.9232         -DE/DX =    0.0                 !
 ! A3    A(3,1,4)              117.6369         -DE/DX =    0.0                 !
 ! A4    A(1,2,5)              111.8297         -DE/DX =    0.0                 !
 ! A5    A(1,2,6)              111.75           -DE/DX =    0.0                 !
 ! A6    A(1,2,7)              111.8303         -DE/DX =    0.0                 !
 ! A7    A(5,2,6)              106.3912         -DE/DX =    0.0                 !
 ! A8    A(5,2,7)              108.3302         -DE/DX =    0.0                 !
 ! A9    A(6,2,7)              106.3929         -DE/DX =    0.0                 !
 ! D1    D(3,1,2,5)            155.0408         -DE/DX =    0.0                 !
 ! D2    D(3,1,2,6)            -85.8088         -DE/DX =    0.0                 !
 ! D3    D(3,1,2,7)             33.3442         -DE/DX =    0.0                 !
 ! D4    D(4,1,2,5)            -33.3959         -DE/DX =    0.0                 !
 ! D5    D(4,1,2,6)             85.7545         -DE/DX =    0.0                 !
 ! D6    D(4,1,2,7)           -155.0925         -DE/DX =    0.0                 !
 --------------------------------------------------------------------------------
 Lowest energy point so far.  Saving SCF results.
 GradGradGradGradGradGradGradGradGradGradGradGradGradGradGradGradGradGrad

 Largest change from initial coordinates is atom    0       0.000 Angstoms.
 Leave Link  103 at Mon Apr 27 15:16:30 2015, MaxMem=   524288000 cpu:         0.0
 (Enter /opt/g09/l202.exe)
                          Input orientation:                          
 ---------------------------------------------------------------------
 Center     Atomic      Atomic             Coordinates (Angstroms)
 Number     Number       Type             X           Y           Z
 ---------------------------------------------------------------------
      1          6           0        0.742810    0.956150    1.028790
      2          6           0        2.194610    0.847290    1.346440
      3          1           0        0.408770    1.352180    0.075390
      4          1           0       -0.005260    0.519600    1.682400
      5          1           0        2.377520    0.861020    2.426950
      6          1           0        2.626500   -0.096800    0.969150
      7          1           0        2.773840    1.657180    0.888490
 ---------------------------------------------------------------------
                    Distance matrix (angstroms):
                    1          2          3          4          5
     1  C    0.000000
     2  C    1.490126   0.000000
     3  H    1.085078   2.249379   0.000000
     4  H    1.085076   2.249373   1.856634   0.000000
     5  H    2.153179   1.095968   3.105970   2.519635   0.000000
     6  H    2.158830   1.104619   2.795832   2.795503   1.761985
     7  H    2.153186   1.095969   2.519467   3.106087   1.777020
                    6          7
     6  H    0.000000
     7  H    1.762005   0.000000
 Symmetry turned off by external request.
 Stoichiometry    C2H5(2)
 Framework group  C1[X(C2H5)]
 Deg. of freedom    15
 Full point group                 C1      NOp   1
 Rotational constants (GHZ):    103.3161654     22.6597099     20.9979862
 Leave Link  202 at Mon Apr 27 15:16:30 2015, MaxMem=   524288000 cpu:         0.0
 (Enter /opt/g09/l716.exe)
 Dipole        = 1.23419300D-01-5.99513401D-02 7.56234737D-04
 Polarizability= 2.87858589D+01-8.13033192D-01 2.35539425D+01
                 8.41782580D-01-3.82510371D-01 2.39058729D+01
 Full mass-weighted force constant matrix:
 Low frequencies ---  -11.8571   -0.0010   -0.0007   -0.0005    4.2104   10.7080
 Low frequencies ---  109.1524  477.0428  807.4115
 Diagonal vibrational polarizability:
        0.3159720       6.8657838       1.8379612
 Harmonic frequencies (cm**-1), IR intensities (KM/Mole), Raman scattering
 activities (A**4/AMU), depolarization ratios for plane and unpolarized
 incident light, reduced masses (AMU), force constants (mDyne/A),
 and normal coordinates:
                      1                      2                      3
                      A                      A                      A
 Frequencies --    109.1496               477.0422               807.4115
 Red. masses --      1.0082                 1.2167                 1.0505
 Frc consts  --      0.0071                 0.1631                 0.4035
 IR Inten    --      0.0055                70.5331                 2.6390
  Atom  AN      X      Y      Z        X      Y      Z        X      Y      Z
     1   6     0.00   0.00   0.00    -0.01   0.12   0.06    -0.01  -0.02   0.04
     2   6     0.00   0.00   0.00     0.00   0.00   0.00    -0.01  -0.02   0.03
     3   1    -0.04   0.52   0.23     0.08  -0.61  -0.28     0.50   0.08  -0.10
     4   1     0.05  -0.50  -0.27     0.09  -0.60  -0.30    -0.40   0.13  -0.31
     5   1     0.02   0.33   0.00     0.07  -0.07  -0.02     0.44   0.09  -0.05
     6   1    -0.08  -0.17   0.33    -0.17  -0.06  -0.07     0.05   0.09  -0.18
     7   1     0.05  -0.19  -0.26     0.07  -0.07  -0.02    -0.36   0.07  -0.27
                      4                      5                      6
                      A                      A                      A
 Frequencies --    969.7105              1062.6672              1184.9384
 Red. masses --      1.3276                 3.3292                 1.4736
 Frc consts  --      0.7355                 2.2151                 1.2191
 IR Inten    --      0.8050                 0.1179                 2.1149
  Atom  AN      X      Y      Z        X      Y      Z        X      Y      Z
     1   6     0.02  -0.08  -0.04     0.32  -0.01   0.08    -0.03  -0.06   0.12
     2   6    -0.02   0.13   0.06    -0.31   0.01  -0.08     0.03   0.07  -0.14
     3   1     0.04   0.05   0.02     0.43   0.02   0.07     0.46   0.02  -0.03
     4   1     0.03   0.04   0.05     0.41  -0.02   0.14    -0.40   0.10  -0.21
     5   1     0.31  -0.29   0.00    -0.43   0.03  -0.06    -0.45  -0.12  -0.04
     6   1    -0.73  -0.10  -0.24    -0.17   0.03  -0.03    -0.07  -0.14   0.26
     7   1     0.34  -0.24  -0.11    -0.41   0.06  -0.11     0.40   0.01   0.24
                      7                      8                      9
                      A                      A                      A
 Frequencies --   1390.7082              1458.0699              1476.2861
 Red. masses --      1.1862                 1.1162                 1.0346
 Frc consts  --      1.3517                 1.3981                 1.3285
 IR Inten    --      2.6464                 2.5585                 6.4139
  Atom  AN      X      Y      Z        X      Y      Z        X      Y      Z
     1   6     0.02   0.00   0.00    -0.09   0.00  -0.02     0.00  -0.01   0.02
     2   6     0.12  -0.02   0.02     0.01  -0.03  -0.01    -0.01  -0.02   0.03
     3   1    -0.13  -0.02   0.04     0.54   0.15  -0.17     0.02   0.01   0.02
     4   1    -0.10   0.04  -0.09     0.39  -0.15   0.41    -0.07   0.00  -0.05
     5   1    -0.47   0.20   0.10     0.12   0.35  -0.03    -0.30   0.43   0.06
     6   1    -0.55  -0.19  -0.24    -0.18  -0.07  -0.08     0.14   0.30  -0.59
     7   1    -0.43   0.29  -0.08     0.02   0.16   0.33     0.36  -0.34  -0.10
                     10                     11                     12
                      A                      A                      A
 Frequencies --   1476.5316              2941.7836              3033.2924
 Red. masses --      1.1161                 1.0596                 1.0690
 Frc consts  --      1.4336                 5.4028                 5.7953
 IR Inten    --      4.4323                26.0719                23.1946
  Atom  AN      X      Y      Z        X      Y      Z        X      Y      Z
     1   6     0.07  -0.01   0.01     0.00   0.00   0.00     0.00   0.00   0.00
     2   6    -0.05  -0.04  -0.04     0.04  -0.06  -0.02     0.03   0.06   0.04
     3   1    -0.32  -0.09   0.11     0.00   0.00   0.00     0.00   0.00   0.00
     4   1    -0.22   0.10  -0.24     0.00   0.00   0.00     0.00   0.00   0.00
     5   1     0.37   0.45  -0.10    -0.02  -0.02  -0.17    -0.10   0.01  -0.68
     6   1    -0.17  -0.08  -0.02    -0.36   0.83   0.34     0.09  -0.18  -0.07
     7   1     0.15   0.18   0.56    -0.08  -0.14   0.06    -0.36  -0.50   0.30
                     13                     14                     15
                      A                      A                      A
 Frequencies --   3079.9759              3132.2944              3235.3482
 Red. masses --      1.1019                 1.0509                 1.1186
 Frc consts  --      6.1586                 6.0747                 6.8986
 IR Inten    --     21.2259                15.5918                14.0500
  Atom  AN      X      Y      Z        X      Y      Z        X      Y      Z
     1   6     0.00   0.00  -0.01    -0.06   0.00  -0.02    -0.02  -0.04   0.09
     2   6    -0.02  -0.04   0.08     0.00   0.00   0.00     0.00   0.00   0.01
     3   1     0.01  -0.01   0.05     0.20  -0.27   0.62    -0.22   0.26  -0.61
     4   1    -0.03  -0.02   0.03     0.48   0.28  -0.44     0.49   0.28  -0.42
     5   1    -0.11  -0.02  -0.69     0.00   0.00   0.00    -0.01   0.00  -0.05
     6   1    -0.01  -0.01   0.02     0.00   0.00   0.00     0.00   0.00   0.00
     7   1     0.37   0.53  -0.29     0.00   0.00   0.00     0.03   0.04  -0.02

 -------------------
 - Thermochemistry -
 -------------------
 Temperature   298.150 Kelvin.  Pressure   1.00000 Atm.
 Atom     1 has atomic number  6 and mass  12.00000
 Atom     2 has atomic number  6 and mass  12.00000
 Atom     3 has atomic number  1 and mass   1.00783
 Atom     4 has atomic number  1 and mass   1.00783
 Atom     5 has atomic number  1 and mass   1.00783
 Atom     6 has atomic number  1 and mass   1.00783
 Atom     7 has atomic number  1 and mass   1.00783
 Molecular mass:    29.03913 amu.
 Principal axes and moments of inertia in atomic units:
                           1         2         3
     Eigenvalues --    17.46814  79.64538  85.94830
           X            0.97401  -0.22301  -0.03961
           Y           -0.06643  -0.44844   0.89134
           Z            0.21654   0.86555   0.45160
 This molecule is an asymmetric top.
 Rotational symmetry number  1.
 Rotational temperatures (Kelvin)      4.95839     1.08749     1.00774
 Rotational constants (GHZ):         103.31617    22.65971    20.99799
 Zero-point vibrational energy     154528.9 (Joules/Mol)
                                   36.93329 (Kcal/Mol)
 Warning -- explicit consideration of   2 degrees of freedom as
           vibrations may cause significant error
 Vibrational temperatures:    157.04   686.36  1161.68  1395.20  1528.94
          (Kelvin)           1704.86  2000.92  2097.83  2124.04  2124.40
                             4232.57  4364.23  4431.39  4506.67  4654.94
 
 Zero-point correction=                           0.058857 (Hartree/Particle)
 Thermal correction to Energy=                    0.062837
 Thermal correction to Enthalpy=                  0.063781
 Thermal correction to Gibbs Free Energy=         0.034649
 Sum of electronic and zero-point Energies=            -79.089453
 Sum of electronic and thermal Energies=               -79.085472
 Sum of electronic and thermal Enthalpies=             -79.084528
 Sum of electronic and thermal Free Energies=          -79.113661
 
                     E (Thermal)             CV                S
                      KCal/Mol        Cal/Mol-Kelvin    Cal/Mol-Kelvin
 Total                   39.431             11.142             61.314
 Electronic               0.000              0.000              1.377
 Translational            0.889              2.981             36.032
 Rotational               0.889              2.981             19.420
 Vibrational             37.653              5.181              4.484
 Vibration     1          0.606              1.942              3.284
 Vibration     2          0.834              1.301              0.718
                       Q            Log10(Q)             Ln(Q)
 Total Bot       0.115487D-15        -15.937467        -36.697374
 Total V=0       0.136391D+12         11.134787         25.638795
 Vib (Bot)       0.239830D-26        -26.620096        -61.295037
 Vib (Bot)    1  0.187677D+01          0.273411          0.629552
 Vib (Bot)    2  0.351479D+00         -0.454101         -1.045605
 Vib (V=0)       0.283242D+01          0.452158          1.041133
 Vib (V=0)    1  0.244223D+01          0.387787          0.892912
 Vib (V=0)    2  0.111118D+01          0.045783          0.105420
 Electronic      0.200000D+01          0.301030          0.693147
 Translational   0.615078D+07          6.788931         15.632090
 Rotational      0.391443D+04          3.592669          8.272425
 
                    W:\Data\additional_hydrocarbons\nist\enthalpy_estimation\succ
 ess\fine\corr_b971_2025-56-1.g09
                                                             IR Spectrum
 
      3   3 33   2                                                       111  1       1    1                                         
      2   1 00   9                                                       444  3       1    0  9      8            4             1    
      3   3 83   4                                                       775  9       8    6  7      0            7             0    
      5   2 03   2                                                       768  1       5    3  0      7            7             9    
 
      X   X XX   X                                                       XXX  X       X    X  X      X            X                  
      X   X XX   X                                                        X                                       X                  
      X   X XX   X                                                                                                X                  
      X   X XX   X                                                                                                X                  
            XX   X                                                                                                X                  
            XX   X                                                                                                X                  
             X   X                                                                                                X                  
                                                                                                                  X                  
                                                                                                                  X                  
                                                                                                                  X                  
                                                                                                                  X                  
                                                                                                                  X                  
                                                                                                                  X                  
                                                                                                                  X                  
                                                                                                                  X                  
                                                                                                                  X                  
                                                                                                                  X                  
                                                                                                                  X                  
                                                                                                                  X                  
                                                                                                                  X                  
 
 -------------------------------------------------------------------
 Center     Atomic                   Forces (Hartrees/Bohr)
 Number     Number              X              Y              Z
 -------------------------------------------------------------------
      1        6           0.000003228    0.000001979   -0.000002530
      2        6          -0.000002607    0.000000373   -0.000003431
      3        1           0.000000228    0.000000004   -0.000000107
      4        1          -0.000001085   -0.000001381    0.000002144
      5        1           0.000000863    0.000000382    0.000003748
      6        1           0.000000441   -0.000000916   -0.000000451
      7        1          -0.000001068   -0.000000441    0.000000627
 -------------------------------------------------------------------
 Cartesian Forces:  Max     0.000003748 RMS     0.000001760
 Force constants in Cartesian coordinates: 
                1             2             3             4             5 
      1  0.542292D+00
      2  0.393222D-01  0.168684D+00
      3  0.184625D-03 -0.224077D+00  0.504708D+00
      4 -0.227816D+00  0.868220D-02 -0.322160D-01  0.475480D+00
      5  0.268770D-02 -0.500659D-01  0.189771D-01  0.274342D-01  0.489229D+00
      6 -0.353009D-01  0.205182D-01 -0.838245D-01 -0.632979D-02 -0.270545D-01
      7 -0.790675D-01  0.279106D-01 -0.751565D-01 -0.308577D-02  0.858900D-02
      8  0.281087D-01 -0.569818D-01  0.108666D+00 -0.191210D-02  0.151260D-02
      9 -0.767664D-01  0.112922D+00 -0.270292D+00  0.167782D-02  0.620514D-05
     10 -0.186690D+00 -0.812081D-01  0.117658D+00 -0.120515D-01 -0.132820D-01
     11 -0.840046D-01 -0.667271D-01  0.915454D-01  0.373990D-02  0.513556D-02
     12  0.117919D+00  0.879603D-01 -0.152982D+00 -0.678856D-02 -0.211659D-02
     13 -0.710275D-02  0.386097D-02 -0.331630D-01 -0.509889D-01 -0.516120D-02
     14  0.304327D-02 -0.101169D-02  0.440440D-02 -0.566990D-02 -0.441558D-01
     15 -0.269241D-02  0.154169D-02 -0.467742D-02 -0.373679D-01 -0.201584D-02
     16 -0.209518D-01  0.225243D-01  0.623538D-02 -0.700119D-01  0.814110D-01
     17  0.759078D-02  0.207226D-02  0.299052D-02  0.691758D-01 -0.215475D+00
     18 -0.149147D-02  0.683992D-02  0.322817D-02  0.282291D-01 -0.695172D-01
     19 -0.206636D-01 -0.210923D-01  0.164580D-01 -0.111526D+00 -0.101679D+00
     20  0.325196D-02  0.403068D-02 -0.250669D-02 -0.101450D+00 -0.186181D+00
     21 -0.185252D-02 -0.570468D-02  0.384023D-02  0.527953D-01  0.817208D-01
                6             7             8             9            10 
      6  0.539450D+00
      7 -0.251914D-01  0.785906D-01
      8  0.362262D-02 -0.306004D-01  0.543479D-01
      9  0.327136D-03  0.836134D-01 -0.117616D+00  0.279164D+00
     10  0.167053D-01  0.805612D-02  0.420186D-02 -0.730209D-02  0.194826D+00
     11 -0.404871D-02 -0.727574D-02 -0.391058D-03  0.442253D-02  0.884110D-01
     12  0.565273D-02  0.172522D-01  0.924705D-02 -0.952387D-02 -0.125883D+00
     13 -0.385427D-01 -0.523388D-02 -0.487482D-03 -0.878446D-03  0.144992D-02
     14 -0.311056D-02  0.114761D-02  0.945519D-03  0.509380D-03 -0.219239D-04
     15 -0.297420D+00 -0.777022D-03 -0.175265D-02  0.674588D-03 -0.340974D-03
     16  0.345604D-01 -0.808932D-03 -0.137330D-03 -0.216747D-03 -0.884348D-03
     17 -0.726697D-01  0.660832D-03 -0.379422D-04 -0.964368D-04  0.354797D-03
     18 -0.692915D-01 -0.113504D-03 -0.113191D-02 -0.791681D-03  0.226911D-03
     19  0.540990D-01  0.154944D-02  0.826722D-03 -0.127532D-03 -0.470636D-02
     20  0.827427D-01 -0.432003D-03  0.604816D-03 -0.147563D-03  0.154441D-02
     21 -0.948943D-01  0.372805D-03 -0.103570D-02  0.441756D-03 -0.106382D-02
               11            12            13            14            15 
     11  0.630307D-01
     12 -0.935872D-01  0.154308D+00
     13 -0.124817D-03  0.758917D-03  0.580755D-01
     14 -0.881123D-04 -0.717573D-03 -0.103429D-03  0.446144D-01
     15  0.467166D-03  0.123316D-02  0.438011D-01  0.355533D-02  0.324009D+00
     16 -0.524183D-03 -0.536468D-03  0.186398D-02 -0.339134D-02 -0.940696D-03
     17 -0.110002D-02 -0.182479D-03 -0.188059D-03 -0.136318D-02 -0.564291D-03
     18  0.420154D-03  0.356239D-03  0.118000D-01 -0.285465D-01 -0.125037D-01
     19 -0.221534D-03 -0.272228D-02  0.193609D-02  0.499571D-02 -0.168214D-02
     20  0.140020D-03 -0.603538D-03  0.220402D-02  0.105894D-02 -0.123141D-02
     21  0.780601D-03  0.955799D-03  0.162242D-01  0.239055D-01 -0.113156D-01
               16            17            18            19            20 
     16  0.845318D-01
     17 -0.860501D-01  0.238610D+00
     18 -0.335902D-01  0.795444D-01  0.745518D-01
     19  0.626119D-02  0.845591D-02 -0.506088D-02  0.127149D+00
     20 -0.138324D-01 -0.227062D-01  0.123911D-01  0.108714D+00  0.203053D+00
     21 -0.551174D-02 -0.902196D-02  0.445063D-02 -0.609642D-01 -0.906446D-01
               21 
     21  0.965214D-01
 Red2BG is reusing G-inverse.
 Force constants in internal coordinates: 
                1             2             3             4             5 
      1  0.312750D+00
      2  0.297776D-02  0.357754D+00
      3  0.298072D-02  0.823100D-03  0.357750D+00
      4  0.719158D-02 -0.616542D-03  0.691834D-03  0.331059D+00
      5  0.159885D-01  0.157182D-03  0.157307D-03  0.391933D-02  0.308840D+00
      6  0.718322D-02  0.691383D-03 -0.617746D-03  0.211667D-02  0.391800D-02
      7  0.924729D-02  0.387201D-02 -0.105758D-01  0.305156D-02  0.600402D-03
      8  0.923672D-02 -0.105813D-01  0.386189D-02 -0.214117D-02  0.594989D-03
      9 -0.183096D-01  0.682493D-02  0.682965D-02 -0.917677D-03 -0.110751D-02
     10  0.167542D-01  0.366829D-02 -0.160091D-02  0.175352D-02 -0.650117D-02
     11  0.170675D-01  0.393172D-04  0.351588D-04 -0.675780D-02  0.132341D-02
     12  0.167533D-01 -0.160016D-02  0.367244D-02 -0.559474D-02 -0.649808D-02
     13 -0.195417D-01 -0.159191D-02 -0.769401D-05  0.657821D-02  0.710159D-02
     14 -0.156963D-01 -0.700509D-03 -0.701976D-03  0.576781D-02 -0.132928D-02
     15 -0.195374D-01 -0.823955D-05 -0.159037D-02 -0.996603D-03  0.710229D-02
     16  0.192659D-02 -0.865523D-03 -0.630396D-04  0.712248D-03 -0.584042D-02
     17  0.525975D-04 -0.371598D-03 -0.113789D-02  0.568267D-02 -0.313548D-03
     18 -0.181562D-02 -0.144387D-02 -0.641896D-03 -0.399667D-02  0.521629D-02
     19  0.181916D-02  0.641814D-03  0.144553D-02  0.576705D-03 -0.521886D-02
     20 -0.548314D-04  0.113574D-02  0.370678D-03  0.554713D-02  0.308015D-03
     21 -0.192305D-02  0.634693D-04  0.866673D-03 -0.413221D-02  0.583785D-02
                6             7             8             9            10 
      6  0.331073D+00
      7 -0.214432D-02  0.762485D-01
      8  0.305467D-02 -0.412648D-01  0.762626D-01
      9 -0.917580D-03 -0.346014D-01 -0.346147D-01  0.685291D-01
     10 -0.559670D-02  0.123050D-01 -0.980868D-02 -0.246924D-02  0.997355D-01
     11 -0.675509D-02 -0.156322D-03 -0.170072D-03  0.203859D-03 -0.166613D-01
     12  0.175185D-02 -0.981743D-02  0.123110D-01 -0.246665D-02 -0.237841D-01
     13 -0.995624D-03 -0.437069D-02  0.285758D-02  0.156527D-02 -0.384103D-01
     14  0.576811D-02 -0.103135D-02 -0.103670D-02  0.203623D-02 -0.372299D-01
     15  0.657767D-02  0.285575D-02 -0.436900D-02  0.156525D-02  0.106955D-01
     16  0.413163D-02 -0.294820D-03  0.521116D-03 -0.516460D-03 -0.273740D-03
     17 -0.554537D-02  0.240055D-02 -0.262628D-02 -0.630466D-04  0.728421D-02
     18 -0.575016D-03 -0.746102D-03  0.663297D-04  0.392061D-03 -0.661899D-02
     19  0.399657D-02 -0.694239D-04  0.751008D-03 -0.392630D-03 -0.259464D-03
     20 -0.568042D-02  0.262595D-02 -0.239639D-02  0.607835D-04  0.729848D-02
     21 -0.710072D-03 -0.520706D-03  0.296223D-03  0.515891D-03 -0.660472D-02
               11            12            13            14            15 
     11  0.925513D-01
     12 -0.166633D-01  0.997281D-01
     13 -0.358010D-01  0.106955D-01  0.546043D-01
     14  0.907018D-02 -0.372275D-01  0.767788D-02  0.557700D-01
     15 -0.358084D-01 -0.384049D-01  0.629766D-02  0.767541D-02  0.546090D-01
     16 -0.560363D-02  0.660216D-02 -0.104098D-01  0.940917D-02 -0.105902D-03
     17  0.495199D-03 -0.730092D-02  0.864306D-02  0.444525D-04 -0.919905D-02
     18  0.658608D-02  0.259947D-03 -0.446183D-03 -0.932271D-02  0.985671D-02
     19 -0.658186D-02  0.661516D-02 -0.985595D-02  0.932024D-02  0.446698D-03
     20 -0.483039D-03 -0.728791D-02  0.919696D-02 -0.444724D-04 -0.864645D-02
     21  0.560784D-02  0.272955D-03  0.107719D-03 -0.941164D-02  0.104093D-01
               16            17            18            19            20 
     16  0.127634D-01
     17 -0.450252D-02  0.118014D-01
     18 -0.396351D-02 -0.454812D-02  0.126735D-01
     19  0.103637D-01 -0.685310D-02 -0.626761D-02  0.126779D-01
     20 -0.690215D-02  0.945081D-02 -0.685221D-02 -0.453895D-02  0.118140D-01
     21 -0.636314D-02 -0.689870D-02  0.103694D-01 -0.395346D-02 -0.448902D-02
               21 
     21  0.127791D-01
 Leave Link  716 at Mon Apr 27 15:16:30 2015, MaxMem=   524288000 cpu:         2.5
 (Enter /opt/g09/l9999.exe)
 1\1\GINC-PICASSO\Freq\UB971\6-311+G(d,p)\C2H5(2)\PB556\27-Apr-2015\0\\
 #p uB971/6-311+G(d,p) Opt=(Tight, CalcAll) Freq GFInput Population=Non
 e Integral(Grid=UltraFine) Guess=MIX NoSymmetry\\W:\Data\additional_hy
 drocarbons\nist\enthalpy_estimation\success\fine\corr_b971_2025-56-1.g
 09\\0,2\C,0.74281,0.95615,1.02879\C,2.19461,0.84729,1.34644\H,0.40877,
 1.35218,0.07539\H,-0.00526,0.5196,1.6824\H,2.37752,0.86102,2.42695\H,2
 .6265,-0.0968,0.96915\H,2.77384,1.65718,0.88849\\Version=ES64L-G09RevD
 .01\HF=-79.1483097\S2=0.754159\S2-1=0.\S2A=0.750012\RMSD=4.661e-09\RMS
 F=1.760e-06\ZeroPoint=0.0588569\Thermal=0.0628372\Dipole=0.1234193,-0.
 0599513,0.0007562\DipoleDeriv=0.1240869,0.0335419,0.0214062,0.0243455,
 -0.3238616,-0.217748,0.0166844,-0.2153629,0.0012086,-0.0119578,0.00011
 9,-0.0162702,0.0536246,0.1127061,0.0455501,0.011353,0.0317682,0.070892
 1,-0.0123289,-0.0010229,-0.0402857,0.0081357,0.1252182,0.087298,-0.067
 5181,0.0887,-0.0479858,-0.0644957,-0.0434061,0.0274457,-0.060501,0.113
 0703,0.0829327,0.0505747,0.0835781,0.0165366,0.0221843,0.0056407,-0.03
 00062,-0.0145523,0.0858964,-0.0043328,-0.0676136,0.0032469,-0.1380882,
 -0.0260656,0.0726316,0.0077023,0.0986101,-0.077292,-0.0610962,0.021186
 4,-0.0678172,0.0602558,-0.0314232,-0.0675041,0.0300079,-0.1096626,-0.0
 357375,0.0673961,0.0353332,0.075887,0.0371809\Polar=28.7858589,-0.8130
 332,23.5539425,0.8417826,-0.3825104,23.9058729\PG=C01 [X(C2H5)]\NImag=
 0\\0.54229217,0.03932222,0.16868358,0.00018462,-0.22407707,0.50470769,
 -0.22781621,0.00868220,-0.03221600,0.47548006,0.00268770,-0.05006586,0
 .01897708,0.02743421,0.48922949,-0.03530088,0.02051821,-0.08382446,-0.
 00632979,-0.02705452,0.53945021,-0.07906755,0.02791065,-0.07515647,-0.
 00308577,0.00858900,-0.02519140,0.07859057,0.02810868,-0.05698184,0.10
 866631,-0.00191210,0.00151260,0.00362262,-0.03060035,0.05434791,-0.076
 76639,0.11292161,-0.27029203,0.00167782,0.00000621,0.00032714,0.083613
 39,-0.11761573,0.27916410,-0.18669028,-0.08120811,0.11765755,-0.012051
 55,-0.01328201,0.01670530,0.00805612,0.00420186,-0.00730209,0.19482650
 ,-0.08400460,-0.06672713,0.09154545,0.00373990,0.00513556,-0.00404871,
 -0.00727574,-0.00039106,0.00442253,0.08841098,0.06303073,0.11791905,0.
 08796032,-0.15298218,-0.00678856,-0.00211659,0.00565273,0.01725221,0.0
 0924705,-0.00952387,-0.12588287,-0.09358719,0.15430814,-0.00710275,0.0
 0386097,-0.03316305,-0.05098887,-0.00516120,-0.03854267,-0.00523388,-0
 .00048748,-0.00087845,0.00144992,-0.00012482,0.00075892,0.05807551,0.0
 0304327,-0.00101169,0.00440440,-0.00566990,-0.04415583,-0.00311056,0.0
 0114761,0.00094552,0.00050938,-0.00002192,-0.00008811,-0.00071757,-0.0
 0010343,0.04461435,-0.00269241,0.00154169,-0.00467742,-0.03736786,-0.0
 0201584,-0.29741983,-0.00077702,-0.00175265,0.00067459,-0.00034097,0.0
 0046717,0.00123316,0.04380110,0.00355533,0.32400876,-0.02095179,0.0225
 2433,0.00623538,-0.07001186,0.08141099,0.03456042,-0.00080893,-0.00013
 733,-0.00021675,-0.00088435,-0.00052418,-0.00053647,0.00186398,-0.0033
 9134,-0.00094070,0.08453176,0.00759078,0.00207226,0.00299052,0.0691758
 1,-0.21547510,-0.07266975,0.00066083,-0.00003794,-0.00009644,0.0003548
 0,-0.00110002,-0.00018248,-0.00018806,-0.00136318,-0.00056429,-0.08605
 006,0.23861018,-0.00149147,0.00683992,0.00322817,0.02822911,-0.0695171
 7,-0.06929154,-0.00011350,-0.00113191,-0.00079168,0.00022691,0.0004201
 5,0.00035624,0.01179999,-0.02854651,-0.01250366,-0.03359015,0.07954439
 ,0.07455184,-0.02066358,-0.02109225,0.01645796,-0.11152581,-0.10167870
 ,0.05409902,0.00154944,0.00082672,-0.00012753,-0.00470636,-0.00022153,
 -0.00272228,0.00193609,0.00499571,-0.00168214,0.00626119,0.00845591,-0
 .00506088,0.12714902,0.00325196,0.00403068,-0.00250669,-0.10145012,-0.
 18618087,0.08274270,-0.00043200,0.00060482,-0.00014756,0.00154441,0.00
 014002,-0.00060354,0.00220402,0.00105894,-0.00123141,-0.01383241,-0.02
 270620,0.01239112,0.10871415,0.20305261,-0.00185252,-0.00570468,0.0038
 4023,0.05279529,0.08172082,-0.09489425,0.00037280,-0.00103570,0.000441
 76,-0.00106382,0.00078060,0.00095580,0.01622416,0.02390552,-0.01131560
 ,-0.00551174,-0.00902196,0.00445063,-0.06096416,-0.09064461,0.09652144
 \\-0.00000323,-0.00000198,0.00000253,0.00000261,-0.00000037,0.00000343
 ,-0.00000023,0.,0.00000011,0.00000108,0.00000138,-0.00000214,-0.000000
 86,-0.00000038,-0.00000375,-0.00000044,0.00000092,0.00000045,0.0000010
 7,0.00000044,-0.00000063\\\@


 WHEN HAVING A MEETING OF THE MINDS,
 MAKE SURE YOU HAVE THE EQUIPMENT FOR IT.
 Leave Link 9999 at Mon Apr 27 15:16:30 2015, MaxMem=   524288000 cpu:         0.4
 Job cpu time:       0 days  0 hours  4 minutes 46.4 seconds.
 File lengths (MBytes):  RWF=     11 Int=      0 D2E=      0 Chk=      2 Scr=      1
 Normal termination of Gaussian 09 at Mon Apr 27 15:16:30 2015.
 (Enter /opt/g09/l1.exe)
 Link1:  Proceeding to internal job step number  2.
 ----------------------------------------------------------------------
 #P Geom=AllCheck Guess=TCheck SCRF=Check GenChk UB971/6-311+G(d,p) Fre
 q
 ----------------------------------------------------------------------
 1/7=10,10=4,29=7,30=1,38=1,40=1/1,3;
 2/12=2,15=1,40=1/2;
 3/5=4,6=6,7=111,11=2,14=-4,16=1,24=10,25=1,30=1,70=2,71=2,74=-20,75=-5,116=2,140=1/1,2,3;
 4/5=101/1;
 5/5=2,98=1/2;
 8/6=4,10=90,11=11/1;
 11/6=1,8=1,9=11,15=111,16=1,31=1/1,2,10;
 10/6=1,31=1/2;
 7/8=1,10=1,25=1,30=1/1,2,3,16;
 1/7=10,10=4,30=1/3;
 99//99;
 Leave Link    1 at Mon Apr 27 15:16:30 2015, MaxMem=   524288000 cpu:         0.4
 (Enter /opt/g09/l101.exe)
 Structure from the checkpoint file:  "/scratch/pb556/g09_run/add_hco//Gau-30180.chk"
 ----------------------------------------------------------------------
 W:\Data\additional_hydrocarbons\nist\enthalpy_estimation\success\fine\
 corr_b971_2025-56-1.g09
 ----------------------------------------------------------------------
 Charge =  0 Multiplicity = 2
 Redundant internal coordinates found in file.
 C,0,0.74281,0.95615,1.02879
 C,0,2.19461,0.84729,1.34644
 H,0,0.40877,1.35218,0.07539
 H,0,-0.00526,0.5196,1.6824
 H,0,2.37752,0.86102,2.42695
 H,0,2.6265,-0.0968,0.96915
 H,0,2.77384,1.65718,0.88849
 Recover connectivity data from disk.
 NAtoms=      7 NQM=        7 NQMF=       0 NMMI=      0 NMMIF=      0
                NMic=       0 NMicF=      0.
                    Isotopes and Nuclear Properties:
 (Nuclear quadrupole moments (NQMom) in fm**2, nuclear magnetic moments (NMagM)
  in nuclear magnetons)

  Atom         1           2           3           4           5           6           7
 IAtWgt=          12          12           1           1           1           1           1
 AtmWgt=  12.0000000  12.0000000   1.0078250   1.0078250   1.0078250   1.0078250   1.0078250
 NucSpn=           0           0           1           1           1           1           1
 AtZEff=  -3.6000000  -3.6000000  -1.0000000  -1.0000000  -1.0000000  -1.0000000  -1.0000000
 NQMom=    0.0000000   0.0000000   0.0000000   0.0000000   0.0000000   0.0000000   0.0000000
 NMagM=    0.0000000   0.0000000   2.7928460   2.7928460   2.7928460   2.7928460   2.7928460
 AtZNuc=   6.0000000   6.0000000   1.0000000   1.0000000   1.0000000   1.0000000   1.0000000
 Leave Link  101 at Mon Apr 27 15:16:31 2015, MaxMem=   524288000 cpu:         1.9
 (Enter /opt/g09/l103.exe)

 GradGradGradGradGradGradGradGradGradGradGradGradGradGradGradGradGradGrad
[...]
                                                                                                                  X                  
                                                                                                                  X                  
                                                                                                                  X                  
                                                                                                                  X                  
                                                                                                                  X                  
                                                                                                                  X                  
 
 -------------------------------------------------------------------
 Center     Atomic                   Forces (Hartrees/Bohr)
 Number     Number              X              Y              Z
 -------------------------------------------------------------------
      1        6           0.000003224    0.000001978   -0.000002528
      2        6          -0.000002607    0.000000382   -0.000003425
      3        1           0.000000229    0.000000005   -0.000000106
      4        1          -0.000001082   -0.000001382    0.000002141
      5        1           0.000000862    0.000000381    0.000003743
      6        1           0.000000443   -0.000000921   -0.000000453
      7        1          -0.000001068   -0.000000443    0.000000628
 -------------------------------------------------------------------
 Cartesian Forces:  Max     0.000003743 RMS     0.000001759
 Force constants in Cartesian coordinates: 
                1             2             3             4             5 
      1  0.542292D+00
      2  0.393222D-01  0.168684D+00
      3  0.184624D-03 -0.224077D+00  0.504708D+00
      4 -0.227816D+00  0.868220D-02 -0.322160D-01  0.475480D+00
      5  0.268770D-02 -0.500659D-01  0.189771D-01  0.274342D-01  0.489229D+00
      6 -0.353009D-01  0.205182D-01 -0.838245D-01 -0.632979D-02 -0.270545D-01
      7 -0.790675D-01  0.279107D-01 -0.751565D-01 -0.308577D-02  0.858900D-02
      8  0.281087D-01 -0.569818D-01  0.108666D+00 -0.191210D-02  0.151260D-02
      9 -0.767664D-01  0.112922D+00 -0.270292D+00  0.167782D-02  0.620501D-05
     10 -0.186690D+00 -0.812081D-01  0.117658D+00 -0.120515D-01 -0.132820D-01
     11 -0.840046D-01 -0.667271D-01  0.915454D-01  0.373990D-02  0.513556D-02
     12  0.117919D+00  0.879603D-01 -0.152982D+00 -0.678856D-02 -0.211659D-02
     13 -0.710275D-02  0.386097D-02 -0.331630D-01 -0.509889D-01 -0.516120D-02
     14  0.304327D-02 -0.101169D-02  0.440440D-02 -0.566990D-02 -0.441558D-01
     15 -0.269241D-02  0.154169D-02 -0.467742D-02 -0.373679D-01 -0.201584D-02
     16 -0.209518D-01  0.225243D-01  0.623538D-02 -0.700119D-01  0.814110D-01
     17  0.759078D-02  0.207226D-02  0.299052D-02  0.691758D-01 -0.215475D+00
     18 -0.149147D-02  0.683991D-02  0.322817D-02  0.282291D-01 -0.695172D-01
     19 -0.206636D-01 -0.210923D-01  0.164580D-01 -0.111526D+00 -0.101679D+00
     20  0.325196D-02  0.403068D-02 -0.250669D-02 -0.101450D+00 -0.186181D+00
     21 -0.185252D-02 -0.570468D-02  0.384023D-02  0.527953D-01  0.817208D-01
                6             7             8             9            10 
      6  0.539450D+00
      7 -0.251914D-01  0.785906D-01
      8  0.362261D-02 -0.306004D-01  0.543479D-01
      9  0.327137D-03  0.836134D-01 -0.117616D+00  0.279164D+00
     10  0.167053D-01  0.805612D-02  0.420186D-02 -0.730209D-02  0.194826D+00
     11 -0.404871D-02 -0.727574D-02 -0.391058D-03  0.442253D-02  0.884110D-01
     12  0.565273D-02  0.172522D-01  0.924705D-02 -0.952387D-02 -0.125883D+00
     13 -0.385427D-01 -0.523388D-02 -0.487482D-03 -0.878446D-03  0.144992D-02
     14 -0.311056D-02  0.114761D-02  0.945519D-03  0.509380D-03 -0.219239D-04
     15 -0.297420D+00 -0.777022D-03 -0.175265D-02  0.674587D-03 -0.340974D-03
     16  0.345604D-01 -0.808932D-03 -0.137330D-03 -0.216747D-03 -0.884348D-03
     17 -0.726697D-01  0.660832D-03 -0.379423D-04 -0.964368D-04  0.354797D-03
     18 -0.692915D-01 -0.113504D-03 -0.113191D-02 -0.791681D-03  0.226911D-03
     19  0.540990D-01  0.154944D-02  0.826723D-03 -0.127532D-03 -0.470636D-02
     20  0.827427D-01 -0.432003D-03  0.604816D-03 -0.147563D-03  0.154441D-02
     21 -0.948943D-01  0.372805D-03 -0.103570D-02  0.441756D-03 -0.106382D-02
               11            12            13            14            15 
     11  0.630307D-01
     12 -0.935872D-01  0.154308D+00
     13 -0.124817D-03  0.758917D-03  0.580755D-01
     14 -0.881123D-04 -0.717573D-03 -0.103429D-03  0.446144D-01
     15  0.467166D-03  0.123316D-02  0.438011D-01  0.355533D-02  0.324009D+00
     16 -0.524183D-03 -0.536468D-03  0.186398D-02 -0.339134D-02 -0.940695D-03
     17 -0.110002D-02 -0.182479D-03 -0.188059D-03 -0.136319D-02 -0.564291D-03
     18  0.420154D-03  0.356240D-03  0.118000D-01 -0.285465D-01 -0.125037D-01
     19 -0.221535D-03 -0.272228D-02  0.193609D-02  0.499571D-02 -0.168214D-02
     20  0.140020D-03 -0.603538D-03  0.220402D-02  0.105894D-02 -0.123141D-02
     21  0.780602D-03  0.955799D-03  0.162242D-01  0.239055D-01 -0.113156D-01
               16            17            18            19            20 
     16  0.845318D-01
     17 -0.860501D-01  0.238610D+00
     18 -0.335902D-01  0.795444D-01  0.745518D-01
     19  0.626119D-02  0.845591D-02 -0.506088D-02  0.127149D+00
     20 -0.138324D-01 -0.227062D-01  0.123911D-01  0.108714D+00  0.203053D+00
     21 -0.551174D-02 -0.902196D-02  0.445063D-02 -0.609642D-01 -0.906446D-01
               21 
     21  0.965214D-01
 FormGI is forming the generalized inverse of G from B-inverse, IUseBI=4.
 Force constants in internal coordinates: 
                1             2             3             4             5 
      1  0.312750D+00
      2  0.297776D-02  0.357754D+00
      3  0.298072D-02  0.823100D-03  0.357750D+00
      4  0.719158D-02 -0.616542D-03  0.691834D-03  0.331059D+00
      5  0.159885D-01  0.157182D-03  0.157306D-03  0.391932D-02  0.308840D+00
      6  0.718322D-02  0.691383D-03 -0.617746D-03  0.211667D-02  0.391800D-02
      7  0.924729D-02  0.387201D-02 -0.105758D-01  0.305156D-02  0.600402D-03
      8  0.923672D-02 -0.105813D-01  0.386189D-02 -0.214117D-02  0.594989D-03
      9 -0.183096D-01  0.682493D-02  0.682966D-02 -0.917677D-03 -0.110751D-02
     10  0.167542D-01  0.366829D-02 -0.160091D-02  0.175352D-02 -0.650117D-02
     11  0.170675D-01  0.393177D-04  0.351586D-04 -0.675780D-02  0.132341D-02
     12  0.167533D-01 -0.160016D-02  0.367244D-02 -0.559474D-02 -0.649808D-02
     13 -0.195417D-01 -0.159191D-02 -0.769397D-05  0.657821D-02  0.710159D-02
     14 -0.156963D-01 -0.700509D-03 -0.701976D-03  0.576781D-02 -0.132928D-02
     15 -0.195374D-01 -0.823956D-05 -0.159037D-02 -0.996603D-03  0.710229D-02
     16  0.192659D-02 -0.865523D-03 -0.630397D-04  0.712248D-03 -0.584042D-02
     17  0.525978D-04 -0.371599D-03 -0.113789D-02  0.568267D-02 -0.313548D-03
     18 -0.181562D-02 -0.144387D-02 -0.641896D-03 -0.399667D-02  0.521629D-02
     19  0.181916D-02  0.641814D-03  0.144553D-02  0.576705D-03 -0.521886D-02
     20 -0.548313D-04  0.113574D-02  0.370679D-03  0.554712D-02  0.308015D-03
     21 -0.192305D-02  0.634696D-04  0.866674D-03 -0.413221D-02  0.583785D-02
                6             7             8             9            10 
      6  0.331073D+00
      7 -0.214432D-02  0.762485D-01
      8  0.305467D-02 -0.412648D-01  0.762626D-01
      9 -0.917580D-03 -0.346014D-01 -0.346147D-01  0.685291D-01
     10 -0.559670D-02  0.123050D-01 -0.980868D-02 -0.246924D-02  0.997355D-01
     11 -0.675509D-02 -0.156322D-03 -0.170072D-03  0.203859D-03 -0.166613D-01
     12  0.175184D-02 -0.981743D-02  0.123110D-01 -0.246665D-02 -0.237841D-01
     13 -0.995624D-03 -0.437069D-02  0.285758D-02  0.156527D-02 -0.384103D-01
     14  0.576811D-02 -0.103135D-02 -0.103670D-02  0.203623D-02 -0.372299D-01
     15  0.657767D-02  0.285575D-02 -0.436900D-02  0.156525D-02  0.106955D-01
     16  0.413163D-02 -0.294820D-03  0.521116D-03 -0.516460D-03 -0.273740D-03
     17 -0.554537D-02  0.240055D-02 -0.262628D-02 -0.630469D-04  0.728421D-02
     18 -0.575016D-03 -0.746102D-03  0.663304D-04  0.392060D-03 -0.661899D-02
     19  0.399657D-02 -0.694236D-04  0.751008D-03 -0.392630D-03 -0.259464D-03
     20 -0.568042D-02  0.262595D-02 -0.239639D-02  0.607836D-04  0.729848D-02
     21 -0.710071D-03 -0.520705D-03  0.296222D-03  0.515891D-03 -0.660472D-02
               11            12            13            14            15 
     11  0.925513D-01
     12 -0.166633D-01  0.997281D-01
     13 -0.358010D-01  0.106955D-01  0.546043D-01
     14  0.907018D-02 -0.372275D-01  0.767788D-02  0.557700D-01
     15 -0.358084D-01 -0.384049D-01  0.629766D-02  0.767541D-02  0.546090D-01
     16 -0.560363D-02  0.660216D-02 -0.104098D-01  0.940917D-02 -0.105902D-03
     17  0.495198D-03 -0.730092D-02  0.864306D-02  0.444525D-04 -0.919905D-02
     18  0.658608D-02  0.259946D-03 -0.446182D-03 -0.932271D-02  0.985671D-02
     19 -0.658186D-02  0.661516D-02 -0.985595D-02  0.932024D-02  0.446697D-03
     20 -0.483039D-03 -0.728791D-02  0.919696D-02 -0.444726D-04 -0.864645D-02
     21  0.560784D-02  0.272954D-03  0.107720D-03 -0.941164D-02  0.104093D-01
               16            17            18            19            20 
     16  0.127634D-01
     17 -0.450252D-02  0.118014D-01
     18 -0.396351D-02 -0.454812D-02  0.126735D-01
     19  0.103637D-01 -0.685310D-02 -0.626761D-02  0.126779D-01
     20 -0.690215D-02  0.945081D-02 -0.685221D-02 -0.453895D-02  0.118140D-01
     21 -0.636314D-02 -0.689870D-02  0.103694D-01 -0.395346D-02 -0.448902D-02
               21 
     21  0.127791D-01
 Leave Link  716 at Mon Apr 27 15:17:02 2015, MaxMem=   524288000 cpu:         0.3
 (Enter /opt/g09/l103.exe)

 GradGradGradGradGradGradGradGradGradGradGradGradGradGradGradGradGradGrad
 Berny optimization.
 Red2BG is reusing G-inverse.
 Internal  Forces:  Max     0.000003818 RMS     0.000001247
 Search for a local minimum.
 Step number   1 out of a maximum of    2
 All quantities printed in internal units (Hartrees-Bohrs-Radians)
 Second derivative matrix not updated -- analytic derivatives used.
 ITU=  0
     Eigenvalues ---    0.00030   0.00705   0.05524   0.05627   0.10030
     Eigenvalues ---    0.10482   0.11710   0.13369   0.15977   0.30260
     Eigenvalues ---    0.32405   0.33008   0.34283   0.35806   0.35961
 Angle between quadratic step and forces=  42.10 degrees.
 Linear search not attempted -- first point.
 Iteration  1 RMS(Cart)=  0.00000507 RMS(Int)=  0.00000000
 Iteration  2 RMS(Cart)=  0.00000000 RMS(Int)=  0.00000000
 ITry= 1 IFail=0 DXMaxC= 8.77D-06 DCOld= 1.00D+10 DXMaxT= 3.00D-01 DXLimC= 3.00D+00 Rises=F
 Variable       Old X    -DE/DX   Delta X   Delta X   Delta X     New X
                                 (Linear)    (Quad)   (Total)
    R1        2.81593   0.00000   0.00000  -0.00001  -0.00001   2.81592
    R2        2.05050   0.00000   0.00000   0.00000   0.00000   2.05050
    R3        2.05050   0.00000   0.00000   0.00001   0.00001   2.05050
    R4        2.07108   0.00000   0.00000   0.00001   0.00001   2.07109
    R5        2.08743   0.00000   0.00000   0.00000   0.00000   2.08743
    R6        2.07108   0.00000   0.00000   0.00000   0.00000   2.07108
    A1        2.11052   0.00000   0.00000   0.00000   0.00000   2.11052
    A2        2.11051   0.00000   0.00000  -0.00001  -0.00001   2.11050
    A3        2.05315   0.00000   0.00000   0.00001   0.00001   2.05316
    A4        1.95180   0.00000   0.00000   0.00000   0.00000   1.95180
    A5        1.95041   0.00000   0.00000   0.00000   0.00000   1.95041
    A6        1.95181   0.00000   0.00000   0.00000   0.00000   1.95180
    A7        1.85688   0.00000   0.00000   0.00000   0.00000   1.85688
    A8        1.89072   0.00000   0.00000   0.00000   0.00000   1.89071
    A9        1.85691   0.00000   0.00000   0.00000   0.00000   1.85691
    D1        2.70597   0.00000   0.00000   0.00000   0.00000   2.70598
    D2       -1.49765   0.00000   0.00000   0.00001   0.00001  -1.49764
    D3        0.58197   0.00000   0.00000   0.00001   0.00001   0.58198
    D4       -0.58287   0.00000   0.00000  -0.00001  -0.00001  -0.58288
    D5        1.49670   0.00000   0.00000   0.00000   0.00000   1.49670
    D6       -2.70688   0.00000   0.00000   0.00000   0.00000  -2.70688
         Item               Value     Threshold  Converged?
 Maximum Force            0.000004     0.000015     YES
 RMS     Force            0.000001     0.000010     YES
 Maximum Displacement     0.000009     0.000060     YES
 RMS     Displacement     0.000005     0.000040     YES
 Predicted change in Energy=-5.916400D-11
 Optimization completed.
    -- Stationary point found.
                           ----------------------------
                           !   Optimized Parameters   !
                           ! (Angstroms and Degrees)  !
 --------------------------                            --------------------------
 ! Name  Definition              Value          Derivative Info.                !
 --------------------------------------------------------------------------------
 ! R1    R(1,2)                  1.4901         -DE/DX =    0.0                 !
 ! R2    R(1,3)                  1.0851         -DE/DX =    0.0                 !
 ! R3    R(1,4)                  1.0851         -DE/DX =    0.0                 !
 ! R4    R(2,5)                  1.096          -DE/DX =    0.0                 !
 ! R5    R(2,6)                  1.1046         -DE/DX =    0.0                 !
 ! R6    R(2,7)                  1.096          -DE/DX =    0.0                 !
 ! A1    A(2,1,3)              120.9236         -DE/DX =    0.0                 !
 ! A2    A(2,1,4)              120.9232         -DE/DX =    0.0                 !
 ! A3    A(3,1,4)              117.6369         -DE/DX =    0.0                 !
 ! A4    A(1,2,5)              111.8297         -DE/DX =    0.0                 !
 ! A5    A(1,2,6)              111.75           -DE/DX =    0.0                 !
 ! A6    A(1,2,7)              111.8303         -DE/DX =    0.0                 !
 ! A7    A(5,2,6)              106.3912         -DE/DX =    0.0                 !
 ! A8    A(5,2,7)              108.3302         -DE/DX =    0.0                 !
 ! A9    A(6,2,7)              106.3929         -DE/DX =    0.0                 !
 ! D1    D(3,1,2,5)            155.0408         -DE/DX =    0.0                 !
 ! D2    D(3,1,2,6)            -85.8088         -DE/DX =    0.0                 !
 ! D3    D(3,1,2,7)             33.3442         -DE/DX =    0.0                 !
 ! D4    D(4,1,2,5)            -33.3959         -DE/DX =    0.0                 !
 ! D5    D(4,1,2,6)             85.7545         -DE/DX =    0.0                 !
 ! D6    D(4,1,2,7)           -155.0925         -DE/DX =    0.0                 !
 --------------------------------------------------------------------------------
 GradGradGradGradGradGradGradGradGradGradGradGradGradGradGradGradGradGrad

 Leave Link  103 at Mon Apr 27 15:17:02 2015, MaxMem=   524288000 cpu:         0.0
 (Enter /opt/g09/l9999.exe)
 1\1\GINC-PICASSO\Freq\UB971\6-311+G(d,p)\C2H5(2)\PB556\27-Apr-2015\0\\
 #P Geom=AllCheck Guess=TCheck SCRF=Check GenChk UB971/6-311+G(d,p) Fre
 q\\W:\Data\additional_hydrocarbons\nist\enthalpy_estimation\success\fi
 ne\corr_b971_2025-56-1.g09\\0,2\C,0.74281,0.95615,1.02879\C,2.19461,0.
 84729,1.34644\H,0.40877,1.35218,0.07539\H,-0.00526,0.5196,1.6824\H,2.3
 7752,0.86102,2.42695\H,2.6265,-0.0968,0.96915\H,2.77384,1.65718,0.8884
 9\\Version=ES64L-G09RevD.01\HF=-79.1483097\S2=0.754159\S2-1=0.\S2A=0.7
 50012\RMSD=9.135e-10\RMSF=1.759e-06\ZeroPoint=0.0588569\Thermal=0.0628
 372\Dipole=0.1234193,-0.0599513,0.0007563\DipoleDeriv=0.124087,0.03354
 2,0.0214062,0.0243455,-0.3238616,-0.2177481,0.0166844,-0.215363,0.0012
 087,-0.0119578,0.0001189,-0.0162703,0.0536246,0.1127062,0.0455502,0.01
 1353,0.0317682,0.070892,-0.0123289,-0.0010229,-0.0402857,0.0081357,0.1
 252182,0.087298,-0.0675181,0.0887,-0.0479858,-0.0644957,-0.0434061,0.0
 274457,-0.0605009,0.1130703,0.0829327,0.0505747,0.0835782,0.0165366,0.
 0221843,0.0056407,-0.0300062,-0.0145523,0.0858964,-0.0043328,-0.067613
 6,0.0032469,-0.1380882,-0.0260656,0.0726317,0.0077023,0.0986101,-0.077
 292,-0.0610962,0.0211864,-0.0678172,0.0602558,-0.0314233,-0.0675041,0.
 0300079,-0.1096626,-0.0357375,0.0673961,0.0353332,0.075887,0.0371809\P
 olar=28.7858591,-0.8130331,23.5539426,0.8417826,-0.3825105,23.905873\P
 G=C01 [X(C2H5)]\NImag=0\\0.54229217,0.03932222,0.16868358,0.00018462,-
 0.22407708,0.50470770,-0.22781621,0.00868220,-0.03221600,0.47548006,0.
 00268770,-0.05006586,0.01897708,0.02743421,0.48922949,-0.03530088,0.02
 051822,-0.08382446,-0.00632979,-0.02705452,0.53945021,-0.07906755,0.02
 791065,-0.07515647,-0.00308577,0.00858900,-0.02519140,0.07859057,0.028
 10868,-0.05698184,0.10866631,-0.00191210,0.00151260,0.00362261,-0.0306
 0035,0.05434791,-0.07676639,0.11292161,-0.27029203,0.00167782,0.000006
 21,0.00032714,0.08361339,-0.11761573,0.27916410,-0.18669028,-0.0812081
 1,0.11765755,-0.01205155,-0.01328201,0.01670530,0.00805612,0.00420186,
 -0.00730209,0.19482650,-0.08400460,-0.06672713,0.09154545,0.00373990,0
 .00513556,-0.00404871,-0.00727574,-0.00039106,0.00442253,0.08841098,0.
 06303073,0.11791905,0.08796032,-0.15298219,-0.00678856,-0.00211659,0.0
 0565273,0.01725221,0.00924705,-0.00952387,-0.12588287,-0.09358719,0.15
 430814,-0.00710275,0.00386097,-0.03316305,-0.05098887,-0.00516120,-0.0
 3854267,-0.00523388,-0.00048748,-0.00087845,0.00144992,-0.00012482,0.0
 0075892,0.05807551,0.00304327,-0.00101169,0.00440440,-0.00566990,-0.04
 415583,-0.00311056,0.00114761,0.00094552,0.00050938,-0.00002192,-0.000
 08811,-0.00071757,-0.00010343,0.04461435,-0.00269241,0.00154169,-0.004
 67742,-0.03736786,-0.00201584,-0.29741983,-0.00077702,-0.00175265,0.00
 067459,-0.00034097,0.00046717,0.00123316,0.04380110,0.00355533,0.32400
 876,-0.02095179,0.02252433,0.00623538,-0.07001186,0.08141099,0.0345604
 2,-0.00080893,-0.00013733,-0.00021675,-0.00088435,-0.00052418,-0.00053
 647,0.00186398,-0.00339134,-0.00094070,0.08453176,0.00759078,0.0020722
 6,0.00299052,0.06917581,-0.21547510,-0.07266975,0.00066083,-0.00003794
 ,-0.00009644,0.00035480,-0.00110002,-0.00018248,-0.00018806,-0.0013631
 9,-0.00056429,-0.08605006,0.23861018,-0.00149147,0.00683991,0.00322817
 ,0.02822910,-0.06951717,-0.06929154,-0.00011350,-0.00113191,-0.0007916
 8,0.00022691,0.00042015,0.00035624,0.01179999,-0.02854651,-0.01250365,
 -0.03359015,0.07954439,0.07455183,-0.02066358,-0.02109225,0.01645796,-
 0.11152581,-0.10167870,0.05409902,0.00154944,0.00082672,-0.00012753,-0
 .00470636,-0.00022153,-0.00272228,0.00193609,0.00499571,-0.00168214,0.
 00626119,0.00845591,-0.00506088,0.12714902,0.00325196,0.00403068,-0.00
 250669,-0.10145012,-0.18618087,0.08274270,-0.00043200,0.00060482,-0.00
 014756,0.00154441,0.00014002,-0.00060354,0.00220402,0.00105894,-0.0012
 3141,-0.01383241,-0.02270620,0.01239111,0.10871415,0.20305262,-0.00185
 252,-0.00570468,0.00384023,0.05279529,0.08172082,-0.09489425,0.0003728
 0,-0.00103570,0.00044176,-0.00106382,0.00078060,0.00095580,0.01622416,
 0.02390552,-0.01131560,-0.00551174,-0.00902196,0.00445063,-0.06096416,
 -0.09064461,0.09652144\\-0.00000322,-0.00000198,0.00000253,0.00000261,
 -0.00000038,0.00000342,-0.00000023,0.,0.00000011,0.00000108,0.00000138
 ,-0.00000214,-0.00000086,-0.00000038,-0.00000374,-0.00000044,0.0000009
 2,0.00000045,0.00000107,0.00000044,-0.00000063\\\@


 IT IS NOT EASY TO DESCRIBE
     THE SEA WITH THE MOUTH

                   -- KOKYU
 Job cpu time:       0 days  0 hours  4 minutes  3.8 seconds.
 File lengths (MBytes):  RWF=     11 Int=      0 D2E=      0 Chk=      2 Scr=      1
 Normal termination of Gaussian 09 at Mon Apr 27 15:17:02 2015.
