 Entering Gaussian System, Link 0=g09
 Input=0_0freq-0_0b971_2143-68-2.gau
 Output=0_0freq-0_0b971_2143-68-2.log
 Initial command:
 /opt/g09/l1.exe "/scratch/pb556/g09_run/add_hco//Gau-9564.inp" -scrdir="/scratch/pb556/g09_run/add_hco//"
 Entering Link 1 = /opt/g09/l1.exe PID=      9573.
  
 Copyright (c) 1988,1990,1992,1993,1995,1998,2003,2009,2013,
            Gaussian, Inc.  All Rights Reserved.
  
 This is part of the Gaussian(R) 09 program.  It is based on
 the Gaussian(R) 03 system (copyright 2003, Gaussian, Inc.),
 the Gaussian(R) 98 system (copyright 1998, Gaussian, Inc.),
 the Gaussian(R) 94 system (copyright 1995, Gaussian, Inc.),
 the Gaussian 92(TM) system (copyright 1992, Gaussian, Inc.),
 the Gaussian 90(TM) system (copyright 1990, Gaussian, Inc.),
 the Gaussian 88(TM) system (copyright 1988, Gaussian, Inc.),
 the Gaussian 86(TM) system (copyright 1986, Carnegie Mellon
 University), and the Gaussian 82(TM) system (copyright 1983,
 Carnegie Mellon University). Gaussian is a federally registered
 trademark of Gaussian, Inc.
  
 This software contains proprietary and confidential information,
 including trade secrets, belonging to Gaussian, Inc.
  
 This software is provided under written license and may be
 used, copied, transmitted, or stored only in accord with that
 written license.
  
 The following legend is applicable only to US Government
 contracts under FAR:
  
                    RESTRICTED RIGHTS LEGEND
  
 Use, reproduction and disclosure by the US Government is
 subject to restrictions as set forth in subparagraphs (a)
 and (c) of the Commercial Computer Software - Restricted
 Rights clause in FAR 52.227-19.
  
 Gaussian, Inc.
 340 Quinnipiac St., Bldg. 40, Wallingford CT 06492
  
  
 ---------------------------------------------------------------
 Warning -- This program may not be used in any manner that
 competes with the business of Gaussian, Inc. or will provide
 assistance to any competitor of Gaussian, Inc.  The licensee
 of this program is prohibited from giving any competitor of
 Gaussian, Inc. access to this program.  By using this program,
 the user acknowledges that Gaussian, Inc. is engaged in the
 business of creating and licensing software in the field of
 computational chemistry and represents and warrants to the
 licensee that it is not a competitor of Gaussian, Inc. and that
 it will not use this program in any manner prohibited above.
 ---------------------------------------------------------------
  

 Cite this work as:
 Gaussian 09, Revision D.01,
 M. J. Frisch, G. W. Trucks, H. B. Schlegel, G. E. Scuseria, 
 M. A. Robb, J. R. Cheeseman, G. Scalmani, V. Barone, B. Mennucci, 
 G. A. Petersson, H. Nakatsuji, M. Caricato, X. Li, H. P. Hratchian, 
 A. F. Izmaylov, J. Bloino, G. Zheng, J. L. Sonnenberg, M. Hada, 
 M. Ehara, K. Toyota, R. Fukuda, J. Hasegawa, M. Ishida, T. Nakajima, 
 Y. Honda, O. Kitao, H. Nakai, T. Vreven, J. A. Montgomery, Jr., 
 J. E. Peralta, F. Ogliaro, M. Bearpark, J. J. Heyd, E. Brothers, 
 K. N. Kudin, V. N. Staroverov, T. Keith, R. Kobayashi, J. Normand, 
 K. Raghavachari, A. Rendell, J. C. Burant, S. S. Iyengar, J. Tomasi, 
 M. Cossi, N. Rega, J. M. Millam, M. Klene, J. E. Knox, J. B. Cross, 
 V. Bakken, C. Adamo, J. Jaramillo, R. Gomperts, R. E. Stratmann, 
 O. Yazyev, A. J. Austin, R. Cammi, C. Pomelli, J. W. Ochterski, 
 R. L. Martin, K. Morokuma, V. G. Zakrzewski, G. A. Voth, 
 P. Salvador, J. J. Dannenberg, S. Dapprich, A. D. Daniels, 
 O. Farkas, J. B. Foresman, J. V. Ortiz, J. Cioslowski, 
 and D. J. Fox, Gaussian, Inc., Wallingford CT, 2013.
 
 ******************************************
 Gaussian 09:  ES64L-G09RevD.01 24-Apr-2013
                25-Apr-2015 
 ******************************************
 %NProcShared=8
 Will use up to    8 processors via shared memory.
 %Mem=500MW
 ----------------------------------------------------------------------
 #p uB971/6-311+G(d,p) Opt=(Tight, CalcAll) Freq GFInput Population=Non
 e Integral(Grid=UltraFine) Guess=MIX NoSymmetry
 ----------------------------------------------------------------------
 1/7=10,10=4,14=-1,18=20,19=15,26=4,38=1/1,3;
 2/9=110,12=2,15=1,17=6,18=5,40=1/2;
 3/5=4,6=6,7=111,11=2,16=1,24=10,25=1,30=1,71=2,74=-20,75=-5,116=2,140=1/1,2,3;
 4/13=-1/1;
 5/5=2,38=5/2;
 8/6=4,10=90,11=11/1;
 11/6=1,8=1,9=11,15=111,16=1,31=1/1,2,10;
 10/6=1,31=1/2;
 7/10=1,25=1,30=1/1,2,3,16;
 1/7=10,10=4,14=-1,18=20,19=15,26=4/3(3);
 2/9=110,15=1/2;
 7/8=1,9=1,25=1,30=1,44=-1/16;
 99//99;
 2/9=110,15=1/2;
 3/5=4,6=6,7=111,11=2,16=1,25=1,30=1,71=2,74=-20,75=-5,116=2,140=1/1,2,3;
 4/5=5,16=3,69=1/1;
 5/5=2,38=5/2;
 8/6=4,10=90,11=11/1;
 11/6=1,8=1,9=11,15=111,16=1,31=1/1,2,10;
 10/6=1,31=1/2;
 7/10=1,25=1,30=1/1,2,3,16;
 1/7=10,10=4,14=-1,18=20,19=15,26=4/3(-8);
 2/9=110,15=1/2;
 7/8=1,9=1,25=1,30=1,44=-1/16;
 99//99;
 Leave Link    1 at Sat Apr 25 20:08:14 2015, MaxMem=   524288000 cpu:         0.5
 (Enter /opt/g09/l101.exe)
 ----------------------------------------------------------------------
 W:\Data\additional_hydrocarbons\nist\enthalpy_estimation\success\fine\
 0_0b971_2143-68-2.g09
 ----------------------------------------------------------------------
 Symbolic Z-matrix:
 Charge =  0 Multiplicity = 2
 C                     0.49733   0.90698   0.96795 
 O                     1.79861   0.51802   0.85856 
 H                     0.34423   1.72222   1.69382 
 H                     0.02508   1.13152  -0.00237 
 H                    -0.03874   0.02306   1.37664 
 
 NAtoms=      5 NQM=        5 NQMF=       0 NMMI=      0 NMMIF=      0
                NMic=       0 NMicF=      0.
                    Isotopes and Nuclear Properties:
 (Nuclear quadrupole moments (NQMom) in fm**2, nuclear magnetic moments (NMagM)
  in nuclear magnetons)

  Atom         1           2           3           4           5
 IAtWgt=          12          16           1           1           1
 AtmWgt=  12.0000000  15.9949146   1.0078250   1.0078250   1.0078250
 NucSpn=           0           0           1           1           1
 AtZEff=   0.0000000   0.0000000   0.0000000   0.0000000   0.0000000
 NQMom=    0.0000000   0.0000000   0.0000000   0.0000000   0.0000000
 NMagM=    0.0000000   0.0000000   2.7928460   2.7928460   2.7928460
 AtZNuc=   6.0000000   8.0000000   1.0000000   1.0000000   1.0000000
 Leave Link  101 at Sat Apr 25 20:08:15 2015, MaxMem=   524288000 cpu:         1.9
 (Enter /opt/g09/l103.exe)

 GradGradGradGradGradGradGradGradGradGradGradGradGradGradGradGradGradGrad
 Berny optimization.
 Initialization pass.
                           ----------------------------
                           !    Initial Parameters    !
                           ! (Angstroms and Degrees)  !
 --------------------------                            --------------------------
 ! Name  Definition              Value          Derivative Info.                !
 --------------------------------------------------------------------------------
 ! R1    R(1,2)                  1.3626         calculate D2E/DX2 analytically  !
 ! R2    R(1,3)                  1.1022         calculate D2E/DX2 analytically  !
 ! R3    R(1,4)                  1.1023         calculate D2E/DX2 analytically  !
 ! R4    R(1,5)                  1.1116         calculate D2E/DX2 analytically  !
 ! A1    A(2,1,3)              113.3691         calculate D2E/DX2 analytically  !
 ! A2    A(2,1,4)              113.3688         calculate D2E/DX2 analytically  !
 ! A3    A(2,1,5)              105.2528         calculate D2E/DX2 analytically  !
 ! A4    A(3,1,4)              111.6871         calculate D2E/DX2 analytically  !
 ! A5    A(3,1,5)              106.2017         calculate D2E/DX2 analytically  !
 ! A6    A(4,1,5)              106.2015         calculate D2E/DX2 analytically  !
 ! D1    D(2,1,4,3)           -129.5574         calculate D2E/DX2 analytically  !
 ! D2    D(2,1,5,3)            120.4887         calculate D2E/DX2 analytically  !
 ! D3    D(2,1,5,4)           -120.4884         calculate D2E/DX2 analytically  !
 ! D4    D(3,1,5,4)            119.0229         calculate D2E/DX2 analytically  !
 --------------------------------------------------------------------------------
 Trust Radius=3.00D-01 FncErr=1.00D-07 GrdErr=1.00D-06
 Number of steps in this run=     24 maximum allowed number of steps=    100.
 GradGradGradGradGradGradGradGradGradGradGradGradGradGradGradGradGradGrad

 Leave Link  103 at Sat Apr 25 20:08:15 2015, MaxMem=   524288000 cpu:         0.1
 (Enter /opt/g09/l202.exe)
                          Input orientation:                          
 ---------------------------------------------------------------------
 Center     Atomic      Atomic             Coordinates (Angstroms)
 Number     Number       Type             X           Y           Z
 ---------------------------------------------------------------------
      1          6           0        0.497330    0.906980    0.967950
      2          8           0        1.798610    0.518020    0.858560
      3          1           0        0.344230    1.722220    1.693820
      4          1           0        0.025080    1.131520   -0.002370
      5          1           0       -0.038740    0.023060    1.376640
 ---------------------------------------------------------------------
                    Distance matrix (angstroms):
                    1          2          3          4          5
     1  C    0.000000
     2  O    1.362566   0.000000
     3  H    1.102245   2.064698   0.000000
     4  H    1.102252   2.064701   1.824238   0.000000
     5  H    1.111626   1.972117   1.770428   1.770431   0.000000
 Symmetry turned off by external request.
 Stoichiometry    CH3O(2)
 Framework group  C1[X(CH3O)]
 Deg. of freedom     9
 Full point group                 C1      NOp   1
 Rotational constants (GHZ):    156.8869288     28.0656846     27.8605411
 Leave Link  202 at Sat Apr 25 20:08:15 2015, MaxMem=   524288000 cpu:         0.0
 (Enter /opt/g09/l301.exe)
 Standard basis: 6-311+G(d,p) (5D, 7F)
 Ernie: Thresh=  0.10000D-02 Tol=  0.10000D-05 Strict=F.
 AO basis set in the form of general basis input (Overlap normalization):
      1 0
 S   6 1.00       0.000000000000
      0.4563240000D+04  0.1966650249D-02
      0.6820240000D+03  0.1523060193D-01
      0.1549730000D+03  0.7612690966D-01
      0.4445530000D+02  0.2608010331D+00
      0.1302900000D+02  0.6164620782D+00
      0.1827730000D+01  0.2210060280D+00
 SP   3 1.00       0.000000000000
      0.2096420000D+02  0.1146600807D+00  0.4024869267D-01
      0.4803310000D+01  0.9199996477D+00  0.2375939567D+00
      0.1459330000D+01 -0.3030682134D-02  0.8158538515D+00
 SP   1 1.00       0.000000000000
      0.4834560000D+00  0.1000000000D+01  0.1000000000D+01
 SP   1 1.00       0.000000000000
      0.1455850000D+00  0.1000000000D+01  0.1000000000D+01
 SP   1 1.00       0.000000000000
      0.4380000000D-01  0.1000000000D+01  0.1000000000D+01
 D   1 1.00       0.000000000000
      0.6260000000D+00  0.1000000000D+01
 ****
      2 0
 S   6 1.00       0.000000000000
      0.8588500000D+04  0.1895150083D-02
      0.1297230000D+04  0.1438590063D-01
      0.2992960000D+03  0.7073200310D-01
      0.8737710000D+02  0.2400010105D+00
      0.2567890000D+02  0.5947970261D+00
      0.3740040000D+01  0.2808020123D+00
 SP   3 1.00       0.000000000000
      0.4211750000D+02  0.1138890124D+00  0.3651139738D-01
      0.9628370000D+01  0.9208111006D+00  0.2371529830D+00
      0.2853320000D+01 -0.3274470358D-02  0.8197019412D+00
 SP   1 1.00       0.000000000000
      0.9056610000D+00  0.1000000000D+01  0.1000000000D+01
 SP   1 1.00       0.000000000000
      0.2556110000D+00  0.1000000000D+01  0.1000000000D+01
 SP   1 1.00       0.000000000000
      0.8450000000D-01  0.1000000000D+01  0.1000000000D+01
 D   1 1.00       0.000000000000
      0.1292000000D+01  0.1000000000D+01
 ****
      3 0
 S   3 1.00       0.000000000000
      0.3386500000D+02  0.2549381454D-01
      0.5094790000D+01  0.1903731086D+00
      0.1158790000D+01  0.8521614860D+00
 S   1 1.00       0.000000000000
      0.3258400000D+00  0.1000000000D+01
 S   1 1.00       0.000000000000
      0.1027410000D+00  0.1000000000D+01
 P   1 1.00       0.000000000000
      0.7500000000D+00  0.1000000000D+01
 ****
      4 0
 S   3 1.00       0.000000000000
      0.3386500000D+02  0.2549381454D-01
      0.5094790000D+01  0.1903731086D+00
      0.1158790000D+01  0.8521614860D+00
 S   1 1.00       0.000000000000
      0.3258400000D+00  0.1000000000D+01
 S   1 1.00       0.000000000000
      0.1027410000D+00  0.1000000000D+01
 P   1 1.00       0.000000000000
      0.7500000000D+00  0.1000000000D+01
 ****
      5 0
 S   3 1.00       0.000000000000
      0.3386500000D+02  0.2549381454D-01
      0.5094790000D+01  0.1903731086D+00
      0.1158790000D+01  0.8521614860D+00
 S   1 1.00       0.000000000000
      0.3258400000D+00  0.1000000000D+01
 S   1 1.00       0.000000000000
      0.1027410000D+00  0.1000000000D+01
 P   1 1.00       0.000000000000
      0.7500000000D+00  0.1000000000D+01
 ****

    62 basis functions,    96 primitive gaussians,    64 cartesian basis functions
     9 alpha electrons        8 beta electrons
       nuclear repulsion energy        34.3942434136 Hartrees.
 IExCor= 1614 DFT=T Ex+Corr=B971 ExCW=0 ScaHFX=  0.210000
 ScaDFX=  1.000000  1.000000  1.000000  1.000000 ScalE2=  1.000000  1.000000
 IRadAn=      5 IRanWt=     -1 IRanGd=            0 ICorTp=0 IEmpDi=  4
 NAtoms=    5 NActive=    5 NUniq=    5 SFac= 1.00D+00 NAtFMM=   60 NAOKFM=F Big=F
 Integral buffers will be    131072 words long.
 Raffenetti 2 integral format.
 Two-electron integral symmetry is turned off.
 Leave Link  301 at Sat Apr 25 20:08:15 2015, MaxMem=   524288000 cpu:         0.4
 (Enter /opt/g09/l302.exe)
 NPDir=0 NMtPBC=     1 NCelOv=     1 NCel=       1 NClECP=     1 NCelD=      1
         NCelK=      1 NCelE2=     1 NClLst=     1 CellRange=     0.0.
 One-electron integrals computed using PRISM.
 NBasis=    62 RedAO= T EigKep=  4.46D-03  NBF=    62
 NBsUse=    62 1.00D-06 EigRej= -1.00D+00 NBFU=    62
 Precomputing XC quadrature grid using
 IXCGrd= 4 IRadAn=           5 IRanWt=          -1 IRanGd=           0 AccXCQ= 0.00D+00.
 Generated NRdTot=       0 NPtTot=           0 NUsed=           0 NTot=          32
 NSgBfM=    64    64    64    64    64 MxSgAt=     5 MxSgA2=     5.
 Leave Link  302 at Sat Apr 25 20:08:15 2015, MaxMem=   524288000 cpu:         1.3
 (Enter /opt/g09/l303.exe)
 DipDrv:  MaxL=1.
 Leave Link  303 at Sat Apr 25 20:08:15 2015, MaxMem=   524288000 cpu:         0.3
 (Enter /opt/g09/l401.exe)
 ExpMin= 4.38D-02 ExpMax= 8.59D+03 ExpMxC= 1.30D+03 IAcc=3 IRadAn=         5 AccDes= 0.00D+00
 Harris functional with IExCor= 1614 and IRadAn=       5 diagonalized for initial guess.
 HarFok:  IExCor= 1614 AccDes= 0.00D+00 IRadAn=         5 IDoV= 1 UseB2=F ITyADJ=14
 ICtDFT=  3500011 ScaDFX=  1.000000  1.000000  1.000000  1.000000
 FoFCou: FMM=F IPFlag=           0 FMFlag=      100000 FMFlg1=           0
         NFxFlg=           0 DoJE=T BraDBF=F KetDBF=T FulRan=T
         wScrn=  0.000000 ICntrl=     500 IOpCl=  0 I1Cent=   200000004 NGrid=           0
         NMat0=    1 NMatS0=      1 NMatT0=    0 NMatD0=    1 NMtDS0=    0 NMtDT0=    0
 Symmetry not used in FoFCou.
 Harris En= -112.057746281151    
 JPrj=0 DoOrth=F DoCkMO=T.
 Mixing orbitals, IMix= 1 IMixAn=  0 NRI=1 NE=    9 Coef=  7.07106781D-01  7.07106781D-01
 Mixing orbitals, IMix= 1 IMixAn=  0 NRI=1 NE=    8 Coef= -7.07106781D-01  7.07106781D-01
 Initial guess <Sx>= 0.0000 <Sy>= 0.0000 <Sz>= 0.5000 <S**2>= 1.0000 S= 0.6180
 Leave Link  401 at Sat Apr 25 20:08:15 2015, MaxMem=   524288000 cpu:         2.0
 (Enter /opt/g09/l502.exe)
 UHF open shell SCF:
 Using DIIS extrapolation, IDIIS=  1040.
 Two-electron integral symmetry not used.
 Keep R1 and R2 ints in memory in canonical form, NReq=4735878.
 IVT=       31744 IEndB=       31744 NGot=   524288000 MDV=   520440095
 LenX=   520440095 LenY=   520435558
 Requested convergence on RMS density matrix=1.00D-08 within 128 cycles.
 Requested convergence on MAX density matrix=1.00D-06.
 Requested convergence on             energy=1.00D-06.
 No special actions if energy rises.
 FoFCou: FMM=F IPFlag=           0 FMFlag=           0 FMFlg1=           0
         NFxFlg=           0 DoJE=F BraDBF=F KetDBF=F FulRan=T
         wScrn=  0.000000 ICntrl=     600 IOpCl=  0 I1Cent=           0 NGrid=           0
         NMat0=    1 NMatS0=   1953 NMatT0=    0 NMatD0=    1 NMtDS0=    0 NMtDT0=    0
 Symmetry not used in FoFCou.

 Cycle   1  Pass 1  IDiag  1:
 E= -114.781515093910    
 DIIS: error= 9.71D-02 at cycle   1 NSaved=   1.
 NSaved= 1 IEnMin= 1 EnMin= -114.781515093910     IErMin= 1 ErrMin= 9.71D-02
 ErrMax= 9.71D-02  0.00D+00 EMaxC= 1.00D-01 BMatC= 1.42D+00 BMatP= 1.42D+00
 IDIUse=3 WtCom= 2.88D-02 WtEn= 9.71D-01
 Coeff-Com:  0.100D+01
 Coeff-En:   0.100D+01
 Coeff:      0.100D+01
 Gap=     0.040 Goal=   None    Shift=    0.000
 Gap=     0.113 Goal=   None    Shift=    0.000
 GapD=    0.040 DampG=0.250 DampE=0.500 DampFc=0.2500 IDamp=-1.
 Damping current iteration by 2.50D-01
 RMSDP=4.08D-02 MaxDP=2.48D+00              OVMax= 5.56D-01

 Cycle   2  Pass 1  IDiag  1:
 E= -114.858842268799     Delta-E=       -0.077327174888 Rises=F Damp=T
 DIIS: error= 6.77D-02 at cycle   2 NSaved=   2.
 NSaved= 2 IEnMin= 2 EnMin= -114.858842268799     IErMin= 2 ErrMin= 6.77D-02
 ErrMax= 6.77D-02  0.00D+00 EMaxC= 1.00D-01 BMatC= 4.43D-01 BMatP= 1.42D+00
 IDIUse=3 WtCom= 3.23D-01 WtEn= 6.77D-01
 Coeff-Com: -0.587D+00 0.159D+01
 Coeff-En:   0.000D+00 0.100D+01
 Coeff:     -0.190D+00 0.119D+01
 Gap=     0.381 Goal=   None    Shift=    0.000
 Gap=     0.108 Goal=   None    Shift=    0.000
 RMSDP=2.99D-02 MaxDP=1.86D+00 DE=-7.73D-02 OVMax= 5.06D-01

 Cycle   3  Pass 1  IDiag  1:
 E= -115.036183447511     Delta-E=       -0.177341178713 Rises=F Damp=F
 DIIS: error= 1.37D-02 at cycle   3 NSaved=   3.
 NSaved= 3 IEnMin= 3 EnMin= -115.036183447511     IErMin= 3 ErrMin= 1.37D-02
 ErrMax= 1.37D-02  0.00D+00 EMaxC= 1.00D-01 BMatC= 3.63D-02 BMatP= 4.43D-01
 IDIUse=3 WtCom= 8.63D-01 WtEn= 1.37D-01
 Coeff-Com:  0.183D+00-0.161D+00 0.979D+00
 Coeff-En:   0.000D+00 0.000D+00 0.100D+01
 Coeff:      0.158D+00-0.139D+00 0.982D+00
 Gap=     0.283 Goal=   None    Shift=    0.000
 Gap=     0.118 Goal=   None    Shift=    0.000
 RMSDP=1.93D-03 MaxDP=2.64D-02 DE=-1.77D-01 OVMax= 8.20D-02

 Cycle   4  Pass 1  IDiag  1:
 E= -115.044064274946     Delta-E=       -0.007880827435 Rises=F Damp=F
 DIIS: error= 1.05D-02 at cycle   4 NSaved=   4.
 NSaved= 4 IEnMin= 4 EnMin= -115.044064274946     IErMin= 4 ErrMin= 1.05D-02
 ErrMax= 1.05D-02  0.00D+00 EMaxC= 1.00D-01 BMatC= 1.42D-02 BMatP= 3.63D-02
 IDIUse=3 WtCom= 8.95D-01 WtEn= 1.05D-01
 Coeff-Com:  0.518D-01-0.628D-01 0.442D+00 0.569D+00
 Coeff-En:   0.000D+00 0.000D+00 0.931D-01 0.907D+00
 Coeff:      0.464D-01-0.562D-01 0.406D+00 0.604D+00
 Gap=     0.304 Goal=   None    Shift=    0.000
 Gap=     0.119 Goal=   None    Shift=    0.000
 RMSDP=7.36D-04 MaxDP=1.57D-02 DE=-7.88D-03 OVMax= 2.00D-02

 Cycle   5  Pass 1  IDiag  1:
 E= -115.047430368926     Delta-E=       -0.003366093979 Rises=F Damp=F
 DIIS: error= 2.12D-03 at cycle   5 NSaved=   5.
 NSaved= 5 IEnMin= 5 EnMin= -115.047430368926     IErMin= 5 ErrMin= 2.12D-03
 ErrMax= 2.12D-03  0.00D+00 EMaxC= 1.00D-01 BMatC= 6.86D-04 BMatP= 1.42D-02
 IDIUse=3 WtCom= 9.79D-01 WtEn= 2.12D-02
 Coeff-Com: -0.324D-01 0.454D-01-0.425D-01 0.128D+00 0.902D+00
 Coeff-En:   0.000D+00 0.000D+00 0.000D+00 0.000D+00 0.100D+01
 Coeff:     -0.317D-01 0.444D-01-0.416D-01 0.125D+00 0.904D+00
 Gap=     0.306 Goal=   None    Shift=    0.000
 Gap=     0.120 Goal=   None    Shift=    0.000
 RMSDP=2.59D-04 MaxDP=3.71D-03 DE=-3.37D-03 OVMax= 2.21D-02

 Cycle   6  Pass 1  IDiag  1:
 E= -115.047775023497     Delta-E=       -0.000344654571 Rises=F Damp=F
 DIIS: error= 1.11D-03 at cycle   6 NSaved=   6.
 NSaved= 6 IEnMin= 6 EnMin= -115.047775023497     IErMin= 6 ErrMin= 1.11D-03
 ErrMax= 1.11D-03  0.00D+00 EMaxC= 1.00D-01 BMatC= 6.05D-05 BMatP= 6.86D-04
 IDIUse=3 WtCom= 9.89D-01 WtEn= 1.11D-02
 Coeff-Com: -0.316D-02 0.422D-02-0.285D-01-0.568D-01-0.675D-01 0.115D+01
 Coeff-En:   0.000D+00 0.000D+00 0.000D+00 0.000D+00 0.000D+00 0.100D+01
 Coeff:     -0.312D-02 0.417D-02-0.282D-01-0.562D-01-0.667D-01 0.115D+01
 Gap=     0.308 Goal=   None    Shift=    0.000
 Gap=     0.121 Goal=   None    Shift=    0.000
 RMSDP=2.57D-04 MaxDP=3.83D-03 DE=-3.45D-04 OVMax= 2.84D-02

 Cycle   7  Pass 1  IDiag  1:
 E= -115.047967818414     Delta-E=       -0.000192794917 Rises=F Damp=F
 DIIS: error= 1.08D-03 at cycle   7 NSaved=   7.
 NSaved= 7 IEnMin= 7 EnMin= -115.047967818414     IErMin= 7 ErrMin= 1.08D-03
 ErrMax= 1.08D-03  0.00D+00 EMaxC= 1.00D-01 BMatC= 4.06D-05 BMatP= 6.05D-05
 IDIUse=3 WtCom= 9.89D-01 WtEn= 1.08D-02
 Coeff-Com:  0.485D-02-0.653D-02 0.451D-03-0.259D-01-0.113D+00 0.351D+00
 Coeff-Com:  0.789D+00
 Coeff-En:   0.000D+00 0.000D+00 0.000D+00 0.000D+00 0.000D+00 0.000D+00
 Coeff-En:   0.100D+01
 Coeff:      0.479D-02-0.646D-02 0.446D-03-0.256D-01-0.111D+00 0.347D+00
 Coeff:      0.791D+00
 Gap=     0.308 Goal=   None    Shift=    0.000
 Gap=     0.122 Goal=   None    Shift=    0.000
 RMSDP=1.78D-04 MaxDP=2.60D-03 DE=-1.93D-04 OVMax= 2.04D-02

 Cycle   8  Pass 1  IDiag  1:
 E= -115.048097946811     Delta-E=       -0.000130128397 Rises=F Damp=F
 DIIS: error= 1.08D-03 at cycle   8 NSaved=   8.
 NSaved= 8 IEnMin= 8 EnMin= -115.048097946811     IErMin= 8 ErrMin= 1.08D-03
 ErrMax= 1.08D-03  0.00D+00 EMaxC= 1.00D-01 BMatC= 3.64D-05 BMatP= 4.06D-05
 IDIUse=3 WtCom= 9.89D-01 WtEn= 1.08D-02
 Coeff-Com:  0.339D-02-0.432D-02 0.377D-02-0.991D-02-0.549D-01 0.134D+00
 Coeff-Com:  0.394D-01 0.889D+00
 Coeff-En:   0.000D+00 0.000D+00 0.000D+00 0.000D+00 0.000D+00 0.000D+00
 Coeff-En:   0.000D+00 0.100D+01
 Coeff:      0.335D-02-0.427D-02 0.373D-02-0.980D-02-0.543D-01 0.132D+00
 Coeff:      0.389D-01 0.890D+00
 Gap=     0.308 Goal=   None    Shift=    0.000
 Gap=     0.122 Goal=   None    Shift=    0.000
 RMSDP=1.73D-04 MaxDP=2.62D-03 DE=-1.30D-04 OVMax= 1.99D-02

 Cycle   9  Pass 1  IDiag  1:
 E= -115.048222770220     Delta-E=       -0.000124823410 Rises=F Damp=F
 DIIS: error= 1.07D-03 at cycle   9 NSaved=   9.
 NSaved= 9 IEnMin= 9 EnMin= -115.048222770220     IErMin= 9 ErrMin= 1.07D-03
 ErrMax= 1.07D-03  0.00D+00 EMaxC= 1.00D-01 BMatC= 3.58D-05 BMatP= 3.64D-05
 IDIUse=3 WtCom= 9.89D-01 WtEn= 1.07D-02
 Coeff-Com:  0.168D-02-0.200D-02-0.332D-03-0.188D-01-0.771D-01 0.281D+00
 Coeff-Com:  0.299D+00-0.616D+01 0.668D+01
 Coeff-En:   0.000D+00 0.000D+00 0.000D+00 0.000D+00 0.000D+00 0.000D+00
 Coeff-En:   0.000D+00 0.000D+00 0.100D+01
 Coeff:      0.166D-02-0.198D-02-0.328D-03-0.186D-01-0.763D-01 0.278D+00
 Coeff:      0.296D+00-0.610D+01 0.662D+01
 Gap=     0.309 Goal=   None    Shift=    0.000
 Gap=     0.123 Goal=   None    Shift=    0.000
 RMSDP=1.03D-03 MaxDP=1.72D-02 DE=-1.25D-04 OVMax= 1.18D-01

 Cycle  10  Pass 1  IDiag  1:
 E= -115.048937652048     Delta-E=       -0.000714881828 Rises=F Damp=F
 DIIS: error= 9.97D-04 at cycle  10 NSaved=  10.
 NSaved=10 IEnMin=10 EnMin= -115.048937652048     IErMin=10 ErrMin= 9.97D-04
 ErrMax= 9.97D-04  0.00D+00 EMaxC= 1.00D-01 BMatC= 3.40D-05 BMatP= 3.58D-05
 IDIUse=3 WtCom= 9.90D-01 WtEn= 9.97D-03
 Coeff-Com:  0.366D-02-0.464D-02 0.237D-02-0.119D-01-0.678D-01 0.233D+00
 Coeff-Com:  0.693D+00-0.185D+01 0.132D+01 0.680D+00
 Coeff-En:   0.000D+00 0.000D+00 0.000D+00 0.000D+00 0.000D+00 0.000D+00
 Coeff-En:   0.000D+00 0.000D+00 0.000D+00 0.100D+01
 Coeff:      0.362D-02-0.459D-02 0.234D-02-0.118D-01-0.672D-01 0.230D+00
 Coeff:      0.686D+00-0.183D+01 0.131D+01 0.684D+00
 Gap=     0.309 Goal=   None    Shift=    0.000
 Gap=     0.122 Goal=   None    Shift=    0.000
 RMSDP=1.37D-04 MaxDP=2.32D-03 DE=-7.15D-04 OVMax= 1.56D-02

 Cycle  11  Pass 1  IDiag  1:
 E= -115.048847429992     Delta-E=        0.000090222056 Rises=F Damp=F
 DIIS: error= 1.01D-03 at cycle  11 NSaved=  11.
 NSaved=11 IEnMin=10 EnMin= -115.048937652048     IErMin=10 ErrMin= 9.97D-04
 ErrMax= 1.01D-03  0.00D+00 EMaxC= 1.00D-01 BMatC= 3.22D-05 BMatP= 3.40D-05
 IDIUse=3 WtCom= 9.90D-01 WtEn= 9.97D-03
 Rare condition: small coef for last iteration:  0.000D+00
 Coeff-Com:  0.423D-02-0.583D-02-0.177D-02-0.319D-01-0.993D-01 0.388D+00
 Coeff-Com:  0.546D+00-0.389D+01-0.258D+01-0.433D+00 0.710D+01
 Coeff-En:   0.000D+00 0.000D+00 0.000D+00 0.000D+00 0.000D+00 0.000D+00
 Coeff-En:   0.000D+00 0.000D+00 0.000D+00 0.000D+00 0.100D+01
 Coeff:      0.423D-02-0.583D-02-0.177D-02-0.319D-01-0.993D-01 0.388D+00
 Coeff:      0.546D+00-0.389D+01-0.258D+01-0.433D+00 0.710D+01
 Gap=     0.311 Goal=   None    Shift=    0.000
 Gap=     0.141 Goal=   None    Shift=    0.000
 RMSDP=3.54D-03 MaxDP=7.22D-02 DE= 9.02D-05 OVMax= 3.96D-01

 Cycle  12  Pass 1  IDiag  1:
 E= -115.049599797074     Delta-E=       -0.000752367082 Rises=F Damp=F
 DIIS: error= 8.95D-03 at cycle  12 NSaved=  12.
 NSaved=12 IEnMin=12 EnMin= -115.049599797074     IErMin=10 ErrMin= 9.97D-04
 ErrMax= 8.95D-03  0.00D+00 EMaxC= 1.00D-01 BMatC= 3.04D-03 BMatP= 3.22D-05
 IDIUse=3 WtCom= 9.90D-01 WtEn= 9.97D-03
 Coeff-Com:  0.435D-03-0.616D-03-0.185D-02-0.107D-01-0.132D-01 0.626D-01
 Coeff-Com: -0.401D+00-0.398D+01 0.372D+00-0.177D+01 0.666D+01 0.829D-01
 Coeff-En:   0.000D+00 0.000D+00 0.000D+00 0.000D+00 0.000D+00 0.000D+00
 Coeff-En:   0.000D+00 0.000D+00 0.000D+00 0.000D+00 0.000D+00 0.100D+01
 Coeff:      0.430D-03-0.609D-03-0.183D-02-0.106D-01-0.131D-01 0.620D-01
 Coeff:     -0.397D+00-0.394D+01 0.368D+00-0.175D+01 0.660D+01 0.920D-01
 Gap=     0.297 Goal=   None    Shift=    0.000
 Gap=     0.185 Goal=   None    Shift=    0.000
 RMSDP=3.73D-04 MaxDP=7.33D-03 DE=-7.52D-04 OVMax= 3.90D-02

 Cycle  13  Pass 1  IDiag  1:
 E= -115.049986190632     Delta-E=       -0.000386393557 Rises=F Damp=F
 DIIS: error= 6.16D-03 at cycle  13 NSaved=  13.
 NSaved=13 IEnMin=13 EnMin= -115.049986190632     IErMin=10 ErrMin= 9.97D-04
 ErrMax= 6.16D-03  0.00D+00 EMaxC= 1.00D-01 BMatC= 1.58D-03 BMatP= 3.22D-05
 IDIUse=3 WtCom= 9.90D-01 WtEn= 9.97D-03
 Coeff-Com: -0.385D-03 0.614D-03 0.837D-03-0.466D-02 0.210D-02-0.376D-01
 Coeff-Com: -0.652D+00-0.244D+01 0.289D+00-0.316D+01 0.664D+01-0.475D+00
 Coeff-Com:  0.829D+00
 Coeff-En:   0.000D+00 0.000D+00 0.000D+00 0.000D+00 0.000D+00 0.000D+00
 Coeff-En:   0.000D+00 0.000D+00 0.000D+00 0.000D+00 0.000D+00 0.000D+00
 Coeff-En:   0.100D+01
 Coeff:     -0.381D-03 0.608D-03 0.829D-03-0.461D-02 0.207D-02-0.372D-01
 Coeff:     -0.646D+00-0.241D+01 0.286D+00-0.313D+01 0.658D+01-0.471D+00
 Coeff:      0.831D+00
 Gap=     0.302 Goal=   None    Shift=    0.000
 Gap=     0.167 Goal=   None    Shift=    0.000
 RMSDP=2.31D-04 MaxDP=4.27D-03 DE=-3.86D-04 OVMax= 2.27D-02

 Cycle  14  Pass 1  IDiag  1:
 E= -115.050206771066     Delta-E=       -0.000220580435 Rises=F Damp=F
 DIIS: error= 4.04D-03 at cycle  14 NSaved=  14.
 NSaved=14 IEnMin=14 EnMin= -115.050206771066     IErMin=10 ErrMin= 9.97D-04
 ErrMax= 4.04D-03  0.00D+00 EMaxC= 1.00D-01 BMatC= 7.53D-04 BMatP= 3.22D-05
 IDIUse=3 WtCom= 9.90D-01 WtEn= 9.97D-03
 Coeff-Com: -0.191D-02 0.316D-02 0.984D-02 0.803D-02-0.319D-02-0.242D+00
 Coeff-Com: -0.906D+00 0.149D+01-0.608D+00-0.473D+01 0.419D+01 0.260D+00
 Coeff-Com: -0.394D+01 0.546D+01
 Coeff-En:   0.000D+00 0.000D+00 0.000D+00 0.000D+00 0.000D+00 0.000D+00
 Coeff-En:   0.000D+00 0.000D+00 0.000D+00 0.000D+00 0.000D+00 0.000D+00
 Coeff-En:   0.000D+00 0.100D+01
 Coeff:     -0.189D-02 0.313D-02 0.975D-02 0.795D-02-0.316D-02-0.239D+00
 Coeff:     -0.897D+00 0.148D+01-0.602D+00-0.469D+01 0.415D+01 0.258D+00
 Coeff:     -0.390D+01 0.542D+01
 Gap=     0.307 Goal=   None    Shift=    0.000
 Gap=     0.147 Goal=   None    Shift=    0.000
 RMSDP=1.15D-03 MaxDP=2.19D-02 DE=-2.21D-04 OVMax= 1.31D-01

 Cycle  15  Pass 1  IDiag  1:
 E= -115.050655897446     Delta-E=       -0.000449126379 Rises=F Damp=F
 DIIS: error= 2.88D-03 at cycle  15 NSaved=  15.
 NSaved=15 IEnMin=15 EnMin= -115.050655897446     IErMin=10 ErrMin= 9.97D-04
 ErrMax= 2.88D-03  0.00D+00 EMaxC= 1.00D-01 BMatC= 2.91D-04 BMatP= 3.22D-05
 IDIUse=3 WtCom= 9.90D-01 WtEn= 9.97D-03
 Coeff-Com:  0.106D-04-0.944D-04-0.371D-02-0.101D-01-0.286D-01 0.188D+00
 Coeff-Com:  0.214D+00-0.337D+01 0.856D+00 0.188D+01 0.297D+00 0.438D+00
 Coeff-Com: -0.241D+01 0.170D+01 0.125D+01
 Coeff-En:   0.000D+00 0.000D+00 0.000D+00 0.000D+00 0.000D+00 0.000D+00
 Coeff-En:   0.000D+00 0.000D+00 0.000D+00 0.000D+00 0.000D+00 0.000D+00
 Coeff-En:   0.000D+00 0.000D+00 0.100D+01
 Coeff:      0.105D-04-0.935D-04-0.367D-02-0.100D-01-0.283D-01 0.186D+00
 Coeff:      0.212D+00-0.334D+01 0.847D+00 0.186D+01 0.294D+00 0.433D+00
 Coeff:     -0.238D+01 0.168D+01 0.125D+01
 Gap=     0.297 Goal=   None    Shift=    0.000
 Gap=     0.189 Goal=   None    Shift=    0.000
 RMSDP=8.40D-04 MaxDP=1.54D-02 DE=-4.49D-04 OVMax= 9.08D-02

 Cycle  16  Pass 1  IDiag  1:
 E= -115.050171985229     Delta-E=        0.000483912216 Rises=F Damp=F
 DIIS: error= 7.75D-03 at cycle  16 NSaved=  16.
 NSaved=16 IEnMin=15 EnMin= -115.050655897446     IErMin=10 ErrMin= 9.97D-04
 ErrMax= 7.75D-03  0.00D+00 EMaxC= 1.00D-01 BMatC= 1.93D-03 BMatP= 3.22D-05
 IDIUse=3 WtCom= 9.90D-01 WtEn= 9.97D-03
 Rare condition: small coef for last iteration:  0.000D+00
 Coeff-Com: -0.165D-03 0.215D-03-0.337D-02-0.787D-02-0.190D-01 0.160D+00
 Coeff-Com:  0.115D+00-0.271D+01 0.869D+00 0.168D+01-0.817D-01 0.753D+00
 Coeff-Com: -0.255D+01 0.137D+01 0.165D+01-0.220D+00
 Coeff-En:   0.000D+00 0.000D+00 0.000D+00 0.000D+00 0.000D+00 0.000D+00
 Coeff-En:   0.000D+00 0.000D+00 0.000D+00 0.000D+00 0.000D+00 0.000D+00
 Coeff-En:   0.000D+00 0.000D+00 0.000D+00 0.100D+01
 Coeff:     -0.165D-03 0.215D-03-0.337D-02-0.787D-02-0.190D-01 0.160D+00
 Coeff:      0.115D+00-0.271D+01 0.869D+00 0.168D+01-0.817D-01 0.753D+00
 Coeff:     -0.255D+01 0.137D+01 0.165D+01-0.220D+00
 Gap=     0.299 Goal=   None    Shift=    0.000
 Gap=     0.181 Goal=   None    Shift=    0.000
 RMSDP=7.58D-05 MaxDP=1.16D-03 DE= 4.84D-04 OVMax= 3.33D-03

 Cycle  17  Pass 1  IDiag  1:
 E= -115.050379959588     Delta-E=       -0.000207974359 Rises=F Damp=F
 DIIS: error= 6.40D-03 at cycle  17 NSaved=  17.
 NSaved=17 IEnMin=15 EnMin= -115.050655897446     IErMin=10 ErrMin= 9.97D-04
 ErrMax= 6.40D-03  0.00D+00 EMaxC= 1.00D-01 BMatC= 1.32D-03 BMatP= 3.22D-05
 IDIUse=3 WtCom= 9.90D-01 WtEn= 9.97D-03
 Coeff-Com:  0.462D-04-0.145D-03-0.355D-02-0.361D-02-0.932D-02 0.112D+00
 Coeff-Com:  0.126D+00-0.231D+01 0.642D+00 0.123D+01 0.459D+00 0.392D+00
 Coeff-Com: -0.368D+00-0.598D+00 0.939D+00-0.308D+01 0.348D+01
 Coeff-En:   0.000D+00 0.000D+00 0.000D+00 0.000D+00 0.000D+00 0.000D+00
 Coeff-En:   0.000D+00 0.000D+00 0.000D+00 0.000D+00 0.000D+00 0.000D+00
 Coeff-En:   0.000D+00 0.000D+00 0.000D+00 0.000D+00 0.100D+01
 Coeff:      0.457D-04-0.144D-03-0.352D-02-0.358D-02-0.923D-02 0.111D+00
 Coeff:      0.125D+00-0.228D+01 0.636D+00 0.121D+01 0.455D+00 0.388D+00
 Coeff:     -0.364D+00-0.592D+00 0.929D+00-0.305D+01 0.345D+01
 Gap=     0.303 Goal=   None    Shift=    0.000
 Gap=     0.163 Goal=   None    Shift=    0.000
 RMSDP=1.31D-04 MaxDP=2.21D-03 DE=-2.08D-04 OVMax= 7.04D-03

 Cycle  18  Pass 1  IDiag  1:
 E= -115.050638012785     Delta-E=       -0.000258053197 Rises=F Damp=F
 DIIS: error= 4.21D-03 at cycle  18 NSaved=  18.
 NSaved=18 IEnMin=15 EnMin= -115.050655897446     IErMin=10 ErrMin= 9.97D-04
 ErrMax= 4.21D-03  0.00D+00 EMaxC= 1.00D-01 BMatC= 5.73D-04 BMatP= 3.22D-05
 IDIUse=3 WtCom= 9.90D-01 WtEn= 9.97D-03
 Coeff-Com:  0.188D-03-0.229D-03-0.358D-03-0.495D-02-0.498D-02 0.524D-01
 Coeff-Com:  0.623D-02-0.911D+00 0.656D+00 0.381D+00-0.443D-01 0.636D+00
 Coeff-Com: -0.533D+00-0.327D+00 0.295D+00 0.815D+00-0.374D+01 0.372D+01
 Coeff-En:   0.000D+00 0.000D+00 0.000D+00 0.000D+00 0.000D+00 0.000D+00
 Coeff-En:   0.000D+00 0.000D+00 0.000D+00 0.000D+00 0.000D+00 0.000D+00
 Coeff-En:   0.000D+00 0.000D+00 0.000D+00 0.000D+00 0.000D+00 0.100D+01
 Coeff:      0.186D-03-0.227D-03-0.355D-03-0.490D-02-0.493D-02 0.519D-01
 Coeff:      0.617D-02-0.902D+00 0.649D+00 0.378D+00-0.439D-01 0.630D+00
 Coeff:     -0.527D+00-0.324D+00 0.292D+00 0.807D+00-0.370D+01 0.370D+01
 Gap=     0.310 Goal=   None    Shift=    0.000
 Gap=     0.133 Goal=   None    Shift=    0.000
 RMSDP=2.33D-04 MaxDP=4.12D-03 DE=-2.58D-04 OVMax= 1.44D-02

 Cycle  19  Pass 1  IDiag  1:
 E= -115.050837937774     Delta-E=       -0.000199924989 Rises=F Damp=F
 DIIS: error= 6.02D-04 at cycle  19 NSaved=  19.
 NSaved=19 IEnMin=19 EnMin= -115.050837937774     IErMin=19 ErrMin= 6.02D-04
 ErrMax= 6.02D-04  0.00D+00 EMaxC= 1.00D-01 BMatC= 1.17D-05 BMatP= 3.22D-05
 IDIUse=3 WtCom= 9.94D-01 WtEn= 6.02D-03
 Coeff-Com:  0.665D-04-0.724D-04-0.725D-04-0.149D-02-0.568D-03 0.167D-01
 Coeff-Com: -0.354D-02-0.278D+00 0.340D+00 0.128D+00-0.202D+00 0.248D+00
 Coeff-Com: -0.424D+00 0.141D+00 0.131D+00 0.641D+00-0.126D+01 0.452D+00
 Coeff-Com:  0.108D+01
 Coeff-En:   0.000D+00 0.000D+00 0.000D+00 0.000D+00 0.000D+00 0.000D+00
 Coeff-En:   0.000D+00 0.000D+00 0.000D+00 0.000D+00 0.000D+00 0.000D+00
 Coeff-En:   0.000D+00 0.000D+00 0.000D+00 0.000D+00 0.000D+00 0.000D+00
 Coeff-En:   0.100D+01
 Coeff:      0.661D-04-0.720D-04-0.721D-04-0.148D-02-0.565D-03 0.166D-01
 Coeff:     -0.352D-02-0.277D+00 0.338D+00 0.128D+00-0.201D+00 0.246D+00
 Coeff:     -0.421D+00 0.140D+00 0.131D+00 0.637D+00-0.126D+01 0.449D+00
 Coeff:      0.108D+01
 Gap=     0.311 Goal=   None    Shift=    0.000
 Gap=     0.128 Goal=   None    Shift=    0.000
 RMSDP=4.38D-05 MaxDP=8.33D-04 DE=-2.00D-04 OVMax= 3.67D-03

 Cycle  20  Pass 1  IDiag  1:
 E= -115.050842275762     Delta-E=       -0.000004337988 Rises=F Damp=F
 DIIS: error= 6.50D-05 at cycle  20 NSaved=  20.
 NSaved=20 IEnMin=20 EnMin= -115.050842275762     IErMin=20 ErrMin= 6.50D-05
 ErrMax= 6.50D-05  0.00D+00 EMaxC= 1.00D-01 BMatC= 1.39D-07 BMatP= 1.17D-05
 IDIUse=1 WtCom= 1.00D+00 WtEn= 0.00D+00
 Coeff-Com: -0.411D-05 0.149D-05-0.376D-04 0.296D-03 0.410D-03-0.199D-02
 Coeff-Com: -0.541D-03 0.224D-01-0.172D-01-0.320D-01 0.234D-01-0.263D-01
 Coeff-Com:  0.300D-01 0.995D-02-0.223D-01-0.616D-01 0.177D+00-0.148D+00
 Coeff-Com: -0.436D-01 0.109D+01
 Coeff:     -0.411D-05 0.149D-05-0.376D-04 0.296D-03 0.410D-03-0.199D-02
 Coeff:     -0.541D-03 0.224D-01-0.172D-01-0.320D-01 0.234D-01-0.263D-01
 Coeff:      0.300D-01 0.995D-02-0.223D-01-0.616D-01 0.177D+00-0.148D+00
 Coeff:     -0.436D-01 0.109D+01
 Gap=     0.311 Goal=   None    Shift=    0.000
 Gap=     0.127 Goal=   None    Shift=    0.000
 RMSDP=7.34D-06 MaxDP=1.39D-04 DE=-4.34D-06 OVMax= 6.88D-04

 Cycle  21  Pass 1  IDiag  1:
 E= -115.050842328260     Delta-E=       -0.000000052498 Rises=F Damp=F
 DIIS: error= 1.12D-05 at cycle  21 NSaved=  20.
 NSaved=20 IEnMin=20 EnMin= -115.050842328260     IErMin=20 ErrMin= 1.12D-05
 ErrMax= 1.12D-05  0.00D+00 EMaxC= 1.00D-01 BMatC= 4.30D-09 BMatP= 1.39D-07
 IDIUse=1 WtCom= 1.00D+00 WtEn= 0.00D+00
 Coeff-Com: -0.216D-06 0.859D-05-0.440D-05-0.516D-04-0.203D-03 0.905D-03
 Coeff-Com: -0.497D-05-0.462D-02 0.186D-02 0.254D-02-0.482D-02 0.771D-02
 Coeff-Com: -0.295D-02-0.298D-02-0.131D-01 0.183D-01 0.900D-02-0.369D-01
 Coeff-Com: -0.534D-01 0.108D+01
 Coeff:     -0.216D-06 0.859D-05-0.440D-05-0.516D-04-0.203D-03 0.905D-03
 Coeff:     -0.497D-05-0.462D-02 0.186D-02 0.254D-02-0.482D-02 0.771D-02
 Coeff:     -0.295D-02-0.298D-02-0.131D-01 0.183D-01 0.900D-02-0.369D-01
 Coeff:     -0.534D-01 0.108D+01
 Gap=     0.311 Goal=   None    Shift=    0.000
 Gap=     0.128 Goal=   None    Shift=    0.000
 RMSDP=1.43D-06 MaxDP=2.08D-05 DE=-5.25D-08 OVMax= 1.11D-04

 Cycle  22  Pass 1  IDiag  1:
 E= -115.050842329224     Delta-E=       -0.000000000965 Rises=F Damp=F
 DIIS: error= 7.44D-06 at cycle  22 NSaved=  20.
 NSaved=20 IEnMin=20 EnMin= -115.050842329224     IErMin=20 ErrMin= 7.44D-06
 ErrMax= 7.44D-06  0.00D+00 EMaxC= 1.00D-01 BMatC= 1.82D-09 BMatP= 4.30D-09
 IDIUse=1 WtCom= 1.00D+00 WtEn= 0.00D+00
 Coeff-Com: -0.475D-06-0.272D-05-0.798D-05 0.352D-04 0.152D-05 0.317D-03
 Coeff-Com: -0.103D-03 0.264D-03-0.315D-03 0.782D-03-0.108D-03-0.120D-02
 Coeff-Com:  0.113D-02 0.274D-02-0.372D-02-0.350D-02 0.687D-02-0.224D-01
 Coeff-Com: -0.129D+00 0.115D+01
 Coeff:     -0.475D-06-0.272D-05-0.798D-05 0.352D-04 0.152D-05 0.317D-03
 Coeff:     -0.103D-03 0.264D-03-0.315D-03 0.782D-03-0.108D-03-0.120D-02
 Coeff:      0.113D-02 0.274D-02-0.372D-02-0.350D-02 0.687D-02-0.224D-01
 Coeff:     -0.129D+00 0.115D+01
 Gap=     0.311 Goal=   None    Shift=    0.000
 Gap=     0.128 Goal=   None    Shift=    0.000
 RMSDP=5.54D-07 MaxDP=8.85D-06 DE=-9.65D-10 OVMax= 2.77D-05

 Cycle  23  Pass 1  IDiag  1:
 E= -115.050842329861     Delta-E=       -0.000000000637 Rises=F Damp=F
 DIIS: error= 1.47D-06 at cycle  23 NSaved=  20.
 NSaved=20 IEnMin=20 EnMin= -115.050842329861     IErMin=20 ErrMin= 1.47D-06
 ErrMax= 1.47D-06  0.00D+00 EMaxC= 1.00D-01 BMatC= 7.06D-11 BMatP= 1.82D-09
 IDIUse=1 WtCom= 1.00D+00 WtEn= 0.00D+00
 Coeff-Com:  0.501D-07 0.801D-05 0.253D-05-0.719D-04-0.323D-03 0.311D-03
 Coeff-Com:  0.172D-03-0.793D-04 0.182D-03-0.328D-03 0.640D-04 0.201D-03
 Coeff-Com: -0.368D-04-0.576D-03 0.116D-02-0.516D-04-0.724D-02-0.563D-02
 Coeff-Com:  0.600D-01 0.952D+00
 Coeff:      0.501D-07 0.801D-05 0.253D-05-0.719D-04-0.323D-03 0.311D-03
 Coeff:      0.172D-03-0.793D-04 0.182D-03-0.328D-03 0.640D-04 0.201D-03
 Coeff:     -0.368D-04-0.576D-03 0.116D-02-0.516D-04-0.724D-02-0.563D-02
 Coeff:      0.600D-01 0.952D+00
 Gap=     0.311 Goal=   None    Shift=    0.000
 Gap=     0.128 Goal=   None    Shift=    0.000
 RMSDP=1.22D-07 MaxDP=2.03D-06 DE=-6.37D-10 OVMax= 6.71D-06

 Cycle  24  Pass 1  IDiag  1:
 E= -115.050842329885     Delta-E=       -0.000000000024 Rises=F Damp=F
 DIIS: error= 4.44D-07 at cycle  24 NSaved=  20.
 NSaved=20 IEnMin=20 EnMin= -115.050842329885     IErMin=20 ErrMin= 4.44D-07
 ErrMax= 4.44D-07  0.00D+00 EMaxC= 1.00D-01 BMatC= 6.49D-12 BMatP= 7.06D-11
 IDIUse=1 WtCom= 1.00D+00 WtEn= 0.00D+00
 Coeff-Com: -0.116D-05 0.739D-06 0.465D-05 0.425D-04-0.512D-04 0.676D-05
 Coeff-Com: -0.114D-04-0.595D-05-0.430D-04 0.701D-04-0.403D-04-0.512D-04
 Coeff-Com:  0.106D-03 0.284D-04 0.564D-04 0.171D-02 0.336D-02-0.829D-01
 Coeff-Com:  0.118D+00 0.959D+00
 Coeff:     -0.116D-05 0.739D-06 0.465D-05 0.425D-04-0.512D-04 0.676D-05
 Coeff:     -0.114D-04-0.595D-05-0.430D-04 0.701D-04-0.403D-04-0.512D-04
 Coeff:      0.106D-03 0.284D-04 0.564D-04 0.171D-02 0.336D-02-0.829D-01
 Coeff:      0.118D+00 0.959D+00
 Gap=     0.311 Goal=   None    Shift=    0.000
 Gap=     0.128 Goal=   None    Shift=    0.000
 RMSDP=2.55D-08 MaxDP=4.07D-07 DE=-2.42D-11 OVMax= 1.26D-06

 Cycle  25  Pass 1  IDiag  1:
 E= -115.050842329887     Delta-E=       -0.000000000002 Rises=F Damp=F
 DIIS: error= 3.22D-08 at cycle  25 NSaved=  20.
 NSaved=20 IEnMin=20 EnMin= -115.050842329887     IErMin=20 ErrMin= 3.22D-08
 ErrMax= 3.22D-08  0.00D+00 EMaxC= 1.00D-01 BMatC= 3.39D-14 BMatP= 6.49D-12
 IDIUse=1 WtCom= 1.00D+00 WtEn= 0.00D+00
 Large coefficients: NSaved= 20 BigCof=    0.00 CofMax=   10.00 Det=-1.55D-15
 Inversion failed.  Reducing to 19 matrices.
 Large coefficients: NSaved= 19 BigCof=    0.00 CofMax=   10.00 Det=-1.55D-15
 Inversion failed.  Reducing to 18 matrices.
 Large coefficients: NSaved= 18 BigCof=    0.00 CofMax=   10.00 Det=-1.57D-15
 Inversion failed.  Reducing to 17 matrices.
 Large coefficients: NSaved= 17 BigCof=    0.00 CofMax=   10.00 Det=-1.62D-15
 Inversion failed.  Reducing to 16 matrices.
 Large coefficients: NSaved= 16 BigCof=    0.00 CofMax=   10.00 Det=-1.63D-15
 Inversion failed.  Reducing to 15 matrices.
 Coeff-Com: -0.131D-05-0.468D-05 0.111D-05 0.543D-05 0.886D-06-0.844D-06
 Coeff-Com:  0.361D-04-0.724D-04 0.418D-04-0.102D-03 0.287D-03 0.679D-02
 Coeff-Com: -0.377D-01-0.156D+00 0.119D+01
 Coeff:     -0.131D-05-0.468D-05 0.111D-05 0.543D-05 0.886D-06-0.844D-06
 Coeff:      0.361D-04-0.724D-04 0.418D-04-0.102D-03 0.287D-03 0.679D-02
 Coeff:     -0.377D-01-0.156D+00 0.119D+01
 Gap=     0.311 Goal=   None    Shift=    0.000
 Gap=     0.128 Goal=   None    Shift=    0.000
 RMSDP=1.63D-09 MaxDP=1.87D-08 DE=-1.88D-12 OVMax= 8.22D-08

 SCF Done:  E(UB971) =  -115.050842330     A.U. after   25 cycles
            NFock= 25  Conv=0.16D-08     -V/T= 2.0030
 <Sx>= 0.0000 <Sy>= 0.0000 <Sz>= 0.5000 <S**2>= 0.7537 S= 0.5019
 <L.S>= 0.000000000000E+00
 KE= 1.147030929034D+02 PE=-3.390516585756D+02 EE= 7.490347992866D+01
 Annihilation of the first spin contaminant:
 S**2 before annihilation     0.7537,   after     0.7500
 Leave Link  502 at Sat Apr 25 20:08:21 2015, MaxMem=   524288000 cpu:        44.5
 (Enter /opt/g09/l801.exe)
 DoSCS=F DFT=T ScalE2(SS,OS)=  1.000000  1.000000
 Range of M.O.s used for correlation:     1    62
 NBasis=    62 NAE=     9 NBE=     8 NFC=     0 NFV=     0
 NROrb=     62 NOA=     9 NOB=     8 NVA=    53 NVB=    54
 Leave Link  801 at Sat Apr 25 20:08:21 2015, MaxMem=   524288000 cpu:         0.3
 (Enter /opt/g09/l1101.exe)
 Using compressed storage, NAtomX=     5.
 Will process      6 centers per pass.
 Leave Link 1101 at Sat Apr 25 20:08:21 2015, MaxMem=   524288000 cpu:         1.2
 (Enter /opt/g09/l1102.exe)
 Symmetrizing basis deriv contribution to polar:
 IMax=3 JMax=2 DiffMx= 0.00D+00
 Leave Link 1102 at Sat Apr 25 20:08:21 2015, MaxMem=   524288000 cpu:         0.3
 (Enter /opt/g09/l1110.exe)
 Forming Gx(P) for the SCF density, NAtomX=     5.
 Integral derivatives from FoFJK, PRISM(SPDF).
 Do as many integral derivatives as possible in FoFJK.
 G2DrvN: MDV=     524287856.
 G2DrvN: will do     6 centers at a time, making    1 passes.
 Calling FoFCou, ICntrl=  3107 FMM=F I1Cent=   0 AccDes= 0.00D+00.
 FoFJK:  IHMeth= 1 ICntrl=    3107 DoSepK=F KAlg= 0 I1Cent=   0 FoldK=F
 IRaf=         0 NMat=   1 IRICut=       1 DoRegI=T DoRafI=F ISym2E= 0.
 FoFCou: FMM=F IPFlag=           0 FMFlag=      100000 FMFlg1=           0
         NFxFlg=           0 DoJE=F BraDBF=F KetDBF=F FulRan=T
         wScrn=  0.000000 ICntrl=    3107 IOpCl=  1 I1Cent=           0 NGrid=           0
         NMat0=    1 NMatS0=      1 NMatT0=    0 NMatD0=    1 NMtDS0=    0 NMtDT0=    0
 Symmetry not used in FoFCou.
 End of G2Drv F.D. properties file   721 does not exist.
 End of G2Drv F.D. properties file   722 does not exist.
 End of G2Drv F.D. properties file   788 does not exist.
 Leave Link 1110 at Sat Apr 25 20:08:24 2015, MaxMem=   524288000 cpu:        23.5
 (Enter /opt/g09/l1002.exe)
 Minotr:  UHF open shell wavefunction.
          IDoAtm=11111
          Direct CPHF calculation.
          Differentiating once with respect to electric field.
                with respect to dipole field.
          Differentiating once with respect to nuclear coordinates.
          Requested convergence is 1.0D-08 RMS, and 1.0D-07 maximum.
          Secondary convergence is 1.0D-12 RMS, and 1.0D-12 maximum.
          NewPWx=T KeepS1=F KeepF1=F KeepIn=T MapXYZ=F SortEE=F KeepMc=T.
          MDV=     524287822 using IRadAn=       1.
 Generate precomputed XC quadrature information.
 Keep R1 and R2 ints in memory in canonical form, NReq=4703200.
 FoFCou: FMM=F IPFlag=           0 FMFlag=           0 FMFlg1=           0
         NFxFlg=           0 DoJE=F BraDBF=F KetDBF=F FulRan=T
         wScrn=  0.000000 ICntrl=     600 IOpCl=  0 I1Cent=           0 NGrid=           0
         NMat0=    1 NMatS0=   1953 NMatT0=    0 NMatD0=    1 NMtDS0=    0 NMtDT0=    0
 Symmetry not used in FoFCou.
          Solving linear equations simultaneously, MaxMat=       0.
          There are    18 degrees of freedom in the 1st order CPHF.  IDoFFX=6 NUNeed=     3.
     15 vectors produced by pass  0 Test12= 5.05D-15 5.56D-09 XBig12= 2.81D+01 3.49D+00.
 AX will form    15 AO Fock derivatives at one time.
     15 vectors produced by pass  1 Test12= 5.05D-15 5.56D-09 XBig12= 5.84D+00 6.72D-01.
     15 vectors produced by pass  2 Test12= 5.05D-15 5.56D-09 XBig12= 1.05D-01 1.08D-01.
     15 vectors produced by pass  3 Test12= 5.05D-15 5.56D-09 XBig12= 4.79D-04 4.93D-03.
     15 vectors produced by pass  4 Test12= 5.05D-15 5.56D-09 XBig12= 4.00D-06 5.11D-04.
     15 vectors produced by pass  5 Test12= 5.05D-15 5.56D-09 XBig12= 1.93D-08 4.00D-05.
      7 vectors produced by pass  6 Test12= 5.05D-15 5.56D-09 XBig12= 6.66D-11 2.16D-06.
      2 vectors produced by pass  7 Test12= 5.05D-15 5.56D-09 XBig12= 1.28D-13 5.44D-08.
 InvSVY:  IOpt=1 It=  1 EMax= 1.54D-15
 Solved reduced A of dimension    99 with    15 vectors.
 FullF1:  Do perturbations    1 to     3.
 Isotropic polarizability for W=    0.000000       18.11 Bohr**3.
 End of Minotr F.D. properties file   721 does not exist.
 End of Minotr F.D. properties file   722 does not exist.
 End of Minotr F.D. properties file   788 does not exist.
 Leave Link 1002 at Sat Apr 25 20:08:29 2015, MaxMem=   524288000 cpu:        37.3
 (Enter /opt/g09/l701.exe)
 Compute integral second derivatives.
 ... and contract with generalized density number  0.
 Leave Link  701 at Sat Apr 25 20:08:29 2015, MaxMem=   524288000 cpu:         2.0
 (Enter /opt/g09/l702.exe)
 L702 exits ... SP integral derivatives will be done elsewhere.
 Leave Link  702 at Sat Apr 25 20:08:29 2015, MaxMem=   524288000 cpu:         0.3
 (Enter /opt/g09/l703.exe)
 Compute integral second derivatives, UseDBF=F ICtDFT=           0.
 Integral derivatives from FoFJK, PRISM(SPDF).
 Calling FoFJK, ICntrl=    100127 FMM=F ISym2X=0 I1Cent= 0 IOpClX= 1 NMat=1 NMatS=1 NMatT=0.
 FoFJK:  IHMeth= 1 ICntrl=  100127 DoSepK=F KAlg= 0 I1Cent=   0 FoldK=F
 IRaf=         0 NMat=   1 IRICut=       1 DoRegI=T DoRafI=F ISym2E= 0.
 FoFCou: FMM=F IPFlag=           0 FMFlag=      100000 FMFlg1=         800
         NFxFlg=           0 DoJE=F BraDBF=F KetDBF=F FulRan=T
         wScrn=  0.000000 ICntrl=  100127 IOpCl=  1 I1Cent=           0 NGrid=           0
         NMat0=    1 NMatS0=      1 NMatT0=    0 NMatD0=    1 NMtDS0=    0 NMtDT0=    0
 Symmetry not used in FoFCou.
 Leave Link  703 at Sat Apr 25 20:08:36 2015, MaxMem=   524288000 cpu:        48.4
 (Enter /opt/g09/l716.exe)
 Dipole        =-8.52209912D-01 1.64219946D-01 1.03159582D-01
 Polarizability= 2.06036491D+01-1.27830913D+00 1.59525884D+01
                -2.21932312D-02 9.92743828D-01 1.77720016D+01
 -------------------------------------------------------------------
 Center     Atomic                   Forces (Hartrees/Bohr)
 Number     Number              X              Y              Z
 -------------------------------------------------------------------
      1        6          -0.000001958    0.000005529   -0.000004658
      2        8           0.000000982   -0.000000551    0.000000220
      3        1           0.000000053   -0.000001243   -0.000000750
      4        1           0.000002103   -0.000001522    0.000004430
      5        1          -0.000001180   -0.000002212    0.000000757
 -------------------------------------------------------------------
 Cartesian Forces:  Max     0.000005529 RMS     0.000002487
 Force constants in Cartesian coordinates: 
                1             2             3             4             5 
      1  0.417986D+00
      2 -0.426563D-01  0.479183D+00
      3  0.167234D-01 -0.974340D-02  0.428378D+00
      4 -0.230316D+00  0.927310D-01  0.661968D-02  0.330557D+00
      5  0.672845D-01 -0.647449D-01  0.164588D-02 -0.964612D-01  0.620535D-01
      6  0.154647D-01 -0.313927D-02 -0.254722D-01 -0.226142D-01  0.764695D-02
      7 -0.402354D-01  0.212404D-01  0.176939D-01 -0.239666D-01  0.299557D-01
      8  0.149610D-01 -0.181950D+00 -0.132298D+00  0.118639D-01 -0.201104D-02
      9  0.222650D-02 -0.107384D+00 -0.135390D+00  0.163853D-01 -0.723275D-02
     10 -0.708995D-01  0.186657D-01 -0.875205D-01 -0.380408D-01  0.142891D-01
     11  0.315203D-01 -0.510685D-01  0.624536D-01  0.201576D-02 -0.993414D-03
     12 -0.743349D-01  0.387760D-01 -0.235593D+00 -0.850604D-02  0.190814D-02
     13 -0.765350D-01 -0.899808D-01  0.464834D-01 -0.382335D-01 -0.150682D-01
     14 -0.711095D-01 -0.181420D+00  0.779423D-01 -0.101495D-01  0.569593D-02
     15  0.399203D-01  0.814907D-01 -0.319234D-01  0.811529D-02 -0.396821D-02
                6             7             8             9            10 
      6  0.334776D-01
      7  0.223916D-01  0.584758D-01
      8  0.102727D-02 -0.255432D-01  0.191314D+00
      9 -0.353667D-02 -0.198736D-01  0.135662D+00  0.158575D+00
     10 -0.250783D-01  0.352504D-02 -0.272193D-02  0.278042D-02  0.983532D-01
     11 -0.638178D-03 -0.125720D-01  0.101500D-01 -0.268213D-01 -0.266900D-01
     12  0.951850D-02 -0.712135D-02  0.719965D-02 -0.183335D-01  0.955770D-01
     13  0.983623D-02  0.220115D-02  0.144029D-02 -0.151854D-02  0.706209D-02
     14 -0.489678D-02 -0.130809D-01 -0.175035D-01  0.577607D-02 -0.354284D-02
     15 -0.139872D-01 -0.130905D-01 -0.115906D-01 -0.131491D-02  0.142414D-01
               11            12            13            14            15 
     11  0.504816D-01
     12 -0.489580D-01  0.259519D+00
     13  0.572602D-02 -0.561463D-02  0.105505D+00
     14 -0.856970D-02  0.107418D-02  0.978827D-01  0.201797D+00
     15  0.139639D-01 -0.151116D-01 -0.491865D-01 -0.798957D-01  0.623371D-01
 FormGI is forming the generalized inverse of G from B-inverse, IUseBI=4.
 Force constants in internal coordinates: 
                1             2             3             4             5 
      1  0.363175D+00
      2  0.252120D-01  0.315590D+00
      3  0.252139D-01  0.364459D-02  0.315574D+00
      4  0.282813D-01  0.313908D-02  0.313952D-02  0.299776D+00
      5  0.811107D-02 -0.663175D-03 -0.721235D-03 -0.268136D-02  0.230792D-01
      6  0.139864D-01 -0.118554D-03 -0.466176D-04 -0.639073D-02 -0.122944D-01
      7  0.130603D-01 -0.371197D-02 -0.372044D-02  0.835337D-02 -0.113979D-01
      8 -0.303388D-03  0.386974D-02  0.387388D-02 -0.602151D-02 -0.101978D-01
      9 -0.180589D-01  0.954517D-02 -0.914115D-02  0.377504D-02 -0.165473D-01
     10 -0.207375D-01 -0.940802D-02  0.926583D-02  0.545519D-02  0.274516D-01
     11 -0.232585D-01 -0.241081D-02 -0.239624D-02  0.146729D-01 -0.124200D-01
     12  0.702286D-02  0.204329D-02 -0.713750D-02  0.291503D-02  0.127969D-01
     13 -0.124726D-01  0.657032D-02 -0.261180D-02  0.531078D-03  0.642649D-02
     14 -0.194954D-01  0.452703D-02  0.452570D-02 -0.238396D-02 -0.637042D-02
                6             7             8             9            10 
      6  0.384277D-01
      7 -0.211959D-01  0.775151D-01
      8 -0.423366D-02  0.182727D-01  0.316563D-01
      9  0.266741D-01 -0.350671D-01 -0.168285D-01  0.614695D-01
     10 -0.308233D-01 -0.268520D-01 -0.219846D-01 -0.179871D-01  0.750117D-01
     11 -0.126128D-01  0.181647D-01 -0.102111D-01  0.147776D-01  0.812556D-02
     12 -0.116823D-01  0.838059D-02 -0.108349D-01 -0.651336D-02  0.943041D-02
     13 -0.186087D-01 -0.111916D-02  0.649084D-02 -0.444782D-02  0.122374D-01
     14 -0.692643D-02 -0.949975D-02  0.173257D-01  0.206554D-02  0.280696D-02
               11            12            13            14 
     11  0.374210D-01
     12  0.196464D-02  0.157101D-01
     13  0.150016D-02  0.466392D-02  0.159879D-01
     14 -0.464478D-03 -0.110462D-01  0.113240D-01  0.223702D-01
 Leave Link  716 at Sat Apr 25 20:08:36 2015, MaxMem=   524288000 cpu:         0.3
 (Enter /opt/g09/l103.exe)

 GradGradGradGradGradGradGradGradGradGradGradGradGradGradGradGradGradGrad
 Berny optimization.
 Red2BG is reusing G-inverse.
 Internal  Forces:  Max     0.000005115 RMS     0.000001621
 Search for a local minimum.
 Step number   1 out of a maximum of   24
 All quantities printed in internal units (Hartrees-Bohrs-Radians)
 RMS Force = .16206D-05 SwitMx=.10000D-02 MixMth= 2
 Mixed Optimization -- En-DIIS/RFO-DIIS
 Second derivative matrix not updated -- analytic derivatives used.
 The second derivative matrix:
                          R1        R2        R3        R4        A1
           R1           0.36318
           R2           0.02521   0.31559
           R3           0.02521   0.00364   0.31557
           R4           0.02828   0.00314   0.00314   0.29978
           A1           0.00811  -0.00066  -0.00072  -0.00268   0.02308
           A2           0.01399  -0.00012  -0.00005  -0.00639  -0.01229
           A3           0.01306  -0.00371  -0.00372   0.00835  -0.01140
           A4          -0.00030   0.00387   0.00387  -0.00602  -0.01020
           A5          -0.01806   0.00955  -0.00914   0.00378  -0.01655
           A6          -0.02074  -0.00941   0.00927   0.00546   0.02745
           D1          -0.02326  -0.00241  -0.00240   0.01467  -0.01242
           D2           0.00702   0.00204  -0.00714   0.00292   0.01280
           D3          -0.01247   0.00657  -0.00261   0.00053   0.00643
           D4          -0.01950   0.00453   0.00453  -0.00238  -0.00637
                          A2        A3        A4        A5        A6
           A2           0.03843
           A3          -0.02120   0.07752
           A4          -0.00423   0.01827   0.03166
           A5           0.02667  -0.03507  -0.01683   0.06147
           A6          -0.03082  -0.02685  -0.02198  -0.01799   0.07501
           D1          -0.01261   0.01816  -0.01021   0.01478   0.00813
           D2          -0.01168   0.00838  -0.01083  -0.00651   0.00943
           D3          -0.01861  -0.00112   0.00649  -0.00445   0.01224
           D4          -0.00693  -0.00950   0.01733   0.00207   0.00281
                          D1        D2        D3        D4
           D1           0.03742
           D2           0.00196   0.01571
           D3           0.00150   0.00466   0.01599
           D4          -0.00046  -0.01105   0.01132   0.02237
 ITU=  0
     Eigenvalues ---    0.02086   0.04775   0.06399   0.12323   0.13009
     Eigenvalues ---    0.29017   0.30755   0.31373   0.39540
 RFO step:  Lambda= 0.00000000D+00 EMin= 2.08632500D-02
 Linear search not attempted -- first point.
 Iteration  1 RMS(Cart)=  0.00000397 RMS(Int)=  0.00000000
 Iteration  2 RMS(Cart)=  0.00000000 RMS(Int)=  0.00000000
 ITry= 1 IFail=0 DXMaxC= 9.07D-06 DCOld= 1.00D+10 DXMaxT= 3.00D-01 DXLimC= 3.00D+00 Rises=F
 Variable       Old X    -DE/DX   Delta X   Delta X   Delta X     New X
                                 (Linear)    (Quad)   (Total)
    R1        2.57488   0.00000   0.00000   0.00000   0.00000   2.57488
    R2        2.08294   0.00000   0.00000  -0.00001  -0.00001   2.08294
    R3        2.08295  -0.00001   0.00000  -0.00002  -0.00002   2.08294
    R4        2.10067   0.00000   0.00000   0.00001   0.00001   2.10068
    A1        1.97866   0.00000   0.00000   0.00000   0.00000   1.97866
    A2        1.97866   0.00000   0.00000   0.00000   0.00000   1.97866
    A3        1.83701   0.00000   0.00000  -0.00001  -0.00001   1.83700
    A4        1.94931   0.00000   0.00000   0.00001   0.00001   1.94932
    A5        1.85357   0.00000   0.00000   0.00000   0.00000   1.85357
    A6        1.85357   0.00000   0.00000   0.00000   0.00000   1.85356
    D1       -2.26120   0.00000   0.00000  -0.00001  -0.00001  -2.26121
    D2        2.10292   0.00000   0.00000   0.00000   0.00000   2.10292
    D3       -2.10292   0.00000   0.00000   0.00000   0.00000  -2.10292
    D4        2.07734   0.00000   0.00000   0.00001   0.00001   2.07735
         Item               Value     Threshold  Converged?
 Maximum Force            0.000005     0.000015     YES
 RMS     Force            0.000002     0.000010     YES
 Maximum Displacement     0.000009     0.000060     YES
 RMS     Displacement     0.000004     0.000040     YES
 Predicted change in Energy=-6.650343D-11
 Optimization completed.
    -- Stationary point found.
                           ----------------------------
                           !   Optimized Parameters   !
                           ! (Angstroms and Degrees)  !
 --------------------------                            --------------------------
 ! Name  Definition              Value          Derivative Info.                !
 --------------------------------------------------------------------------------
 ! R1    R(1,2)                  1.3626         -DE/DX =    0.0                 !
 ! R2    R(1,3)                  1.1022         -DE/DX =    0.0                 !
 ! R3    R(1,4)                  1.1023         -DE/DX =    0.0                 !
 ! R4    R(1,5)                  1.1116         -DE/DX =    0.0                 !
 ! A1    A(2,1,3)              113.3691         -DE/DX =    0.0                 !
 ! A2    A(2,1,4)              113.3688         -DE/DX =    0.0                 !
 ! A3    A(2,1,5)              105.2528         -DE/DX =    0.0                 !
 ! A4    A(3,1,4)              111.6871         -DE/DX =    0.0                 !
 ! A5    A(3,1,5)              106.2017         -DE/DX =    0.0                 !
 ! A6    A(4,1,5)              106.2015         -DE/DX =    0.0                 !
 ! D1    D(2,1,4,3)           -129.5574         -DE/DX =    0.0                 !
 ! D2    D(2,1,5,3)            120.4887         -DE/DX =    0.0                 !
 ! D3    D(2,1,5,4)           -120.4884         -DE/DX =    0.0                 !
 ! D4    D(3,1,5,4)            119.0229         -DE/DX =    0.0                 !
 --------------------------------------------------------------------------------
 Lowest energy point so far.  Saving SCF results.
 GradGradGradGradGradGradGradGradGradGradGradGradGradGradGradGradGradGrad

 Largest change from initial coordinates is atom    0       0.000 Angstoms.
 Leave Link  103 at Sat Apr 25 20:08:36 2015, MaxMem=   524288000 cpu:         0.0
 (Enter /opt/g09/l202.exe)
                          Input orientation:                          
 ---------------------------------------------------------------------
 Center     Atomic      Atomic             Coordinates (Angstroms)
 Number     Number       Type             X           Y           Z
 ---------------------------------------------------------------------
      1          6           0        0.497330    0.906980    0.967950
      2          8           0        1.798610    0.518020    0.858560
      3          1           0        0.344230    1.722220    1.693820
      4          1           0        0.025080    1.131520   -0.002370
      5          1           0       -0.038740    0.023060    1.376640
 ---------------------------------------------------------------------
                    Distance matrix (angstroms):
                    1          2          3          4          5
     1  C    0.000000
     2  O    1.362566   0.000000
     3  H    1.102245   2.064698   0.000000
     4  H    1.102252   2.064701   1.824238   0.000000
     5  H    1.111626   1.972117   1.770428   1.770431   0.000000
 Symmetry turned off by external request.
 Stoichiometry    CH3O(2)
 Framework group  C1[X(CH3O)]
 Deg. of freedom     9
 Full point group                 C1      NOp   1
 Rotational constants (GHZ):    156.8869288     28.0656846     27.8605411
 Leave Link  202 at Sat Apr 25 20:08:36 2015, MaxMem=   524288000 cpu:         0.0
 (Enter /opt/g09/l716.exe)
 Dipole        =-8.52209912D-01 1.64219946D-01 1.03159582D-01
 Polarizability= 2.06036491D+01-1.27830913D+00 1.59525884D+01
                -2.21932312D-02 9.92743828D-01 1.77720016D+01
 Full mass-weighted force constant matrix:
 Low frequencies ---   -2.2854    0.0005    0.0005    0.0009    4.3874   17.4404
 Low frequencies ---  681.2268  959.8689 1117.4856
 Diagonal vibrational polarizability:
        0.6590026       0.8589789       4.8543487
 Harmonic frequencies (cm**-1), IR intensities (KM/Mole), Raman scattering
 activities (A**4/AMU), depolarization ratios for plane and unpolarized
 incident light, reduced masses (AMU), force constants (mDyne/A),
 and normal coordinates:
                      1                      2                      3
                      A                      A                      A
 Frequencies --    681.2212               959.8689              1117.4856
 Red. masses --      1.3277                 1.4830                 4.4034
 Frc consts  --      0.3630                 0.8050                 3.2399
 IR Inten    --     89.8717                 0.6164                10.0480
  Atom  AN      X      Y      Z        X      Y      Z        X      Y      Z
     1   6     0.03   0.05   0.15     0.12   0.10  -0.06     0.36  -0.18   0.00
     2   8    -0.01  -0.02  -0.05    -0.10  -0.03   0.03    -0.30   0.14   0.01
     3   1    -0.40   0.28  -0.25    -0.29  -0.18   0.18     0.46  -0.10  -0.01
     4   1     0.32  -0.42  -0.14    -0.31  -0.21   0.07     0.44  -0.13  -0.08
     5   1    -0.11  -0.20  -0.56     0.75  -0.33  -0.03    -0.47   0.26   0.00
                      4                      5                      6
                      A                      A                      A
 Frequencies --   1352.7163              1361.3121              1508.4906
 Red. masses --      1.0277                 1.0924                 1.1113
 Frc consts  --      1.1079                 1.1927                 1.4899
 IR Inten    --     17.6570                25.5454                 6.2828
  Atom  AN      X      Y      Z        X      Y      Z        X      Y      Z
     1   6     0.00   0.00  -0.01     0.06   0.03  -0.02     0.07  -0.07   0.01
     2   8     0.01   0.01   0.03     0.04  -0.01   0.00     0.00   0.00   0.00
     3   1     0.56   0.17  -0.13    -0.40  -0.28   0.25    -0.45   0.29  -0.46
     4   1    -0.55  -0.15   0.19    -0.42  -0.32   0.12    -0.30   0.56   0.30
     5   1    -0.09  -0.17  -0.50    -0.52   0.35  -0.02    -0.02   0.00   0.00
                      7                      8                      9
                      A                      A                      A
 Frequencies --   2887.6840              2960.7549              3005.1050
 Red. masses --      1.0448                 1.0703                 1.1012
 Frc consts  --      5.1333                 5.5278                 5.8592
 IR Inten    --      0.1179                42.1449                30.6653
  Atom  AN      X      Y      Z        X      Y      Z        X      Y      Z
     1   6     0.04   0.04  -0.02    -0.01   0.07  -0.02     0.02   0.03   0.09
     2   8     0.01   0.00   0.00     0.00   0.00   0.00     0.00   0.00   0.00
     3   1    -0.02   0.22   0.17     0.08  -0.47  -0.45     0.09  -0.54  -0.45
     4   1    -0.10   0.07  -0.25     0.28  -0.11   0.59    -0.29   0.16  -0.62
     5   1    -0.44  -0.73   0.34    -0.18  -0.28   0.13     0.01   0.01   0.04

 -------------------
 - Thermochemistry -
 -------------------
 Temperature   298.150 Kelvin.  Pressure   1.00000 Atm.
 Atom     1 has atomic number  6 and mass  12.00000
 Atom     2 has atomic number  8 and mass  15.99491
 Atom     3 has atomic number  1 and mass   1.00783
 Atom     4 has atomic number  1 and mass   1.00783
 Atom     5 has atomic number  1 and mass   1.00783
 Molecular mass:    31.01839 amu.
 Principal axes and moments of inertia in atomic units:
                           1         2         3
     Eigenvalues --    11.50345  64.30419  64.77768
           X            0.95600   0.17494   0.23548
           Y           -0.28173   0.32379   0.90321
           Z           -0.08177   0.92981  -0.35883
 This molecule is an asymmetric top.
 Rotational symmetry number  1.
 Rotational temperatures (Kelvin)      7.52938     1.34694     1.33709
 Rotational constants (GHZ):         156.88693    28.06568    27.86054
 Zero-point vibrational energy      94712.2 (Joules/Mol)
                                   22.63675 (Kcal/Mol)
 Vibrational temperatures:    980.12  1381.04  1607.81  1946.25  1958.62
          (Kelvin)           2170.38  4154.73  4259.86  4323.67
 
 Zero-point correction=                           0.036074 (Hartree/Particle)
 Thermal correction to Energy=                    0.039116
 Thermal correction to Enthalpy=                  0.040060
 Thermal correction to Gibbs Free Energy=         0.013135
 Sum of electronic and zero-point Energies=           -115.014768
 Sum of electronic and thermal Energies=              -115.011727
 Sum of electronic and thermal Enthalpies=            -115.010782
 Sum of electronic and thermal Free Energies=         -115.037708
 
                     E (Thermal)             CV                S
                      KCal/Mol        Cal/Mol-Kelvin    Cal/Mol-Kelvin
 Total                   24.545              7.834             56.669
 Electronic               0.000              0.000              1.377
 Translational            0.889              2.981             36.229
 Rotational               0.889              2.981             18.511
 Vibrational             22.768              1.873              0.552
                       Q            Log10(Q)             Ln(Q)
 Total Bot       0.908824D-06         -6.041520        -13.911114
 Total V=0       0.355889D+11         10.551314         24.295299
 Vib (Bot)       0.270068D-16        -16.568527        -38.150444
 Vib (V=0)       0.105757D+01          0.024308          0.055970
 Electronic      0.200000D+01          0.301030          0.693147
 Translational   0.679022D+07          6.831884         15.730994
 Rotational      0.247795D+04          3.394093          7.815188
 
                     W:\Data\additional_hydrocarbons\nist\enthalpy_estimation\suc
 cess\fine\0_0b971_2143-68-2.g09
                                                             IR Spectrum
 
      32  2                                                          1    11         1                                               
      09  8                                                          5    33         1      9           6                            
      06  8                                                          0    65         1      6           8                            
      51  8                                                          8    13         7      0           1                            
 
      XX  X                                                          X    XX         X      X           X                            
      XX                                                                  XX         X                  X                            
      XX                                                                  XX                            X                            
      XX                                                                  XX                            X                            
      XX                                                                  X                             X                            
      XX                                                                  X                             X                            
      XX                                                                                                X                            
       X                                                                                                X                            
       X                                                                                                X                            
                                                                                                        X                            
                                                                                                        X                            
                                                                                                        X                            
                                                                                                        X                            
                                                                                                        X                            
                                                                                                        X                            
                                                                                                        X                            
                                                                                                        X                            
                                                                                                        X                            
                                                                                                        X                            
                                                                                                        X                            
 
 -------------------------------------------------------------------
 Center     Atomic                   Forces (Hartrees/Bohr)
 Number     Number              X              Y              Z
 -------------------------------------------------------------------
      1        6          -0.000001958    0.000005529   -0.000004658
      2        8           0.000000982   -0.000000551    0.000000220
      3        1           0.000000053   -0.000001243   -0.000000750
      4        1           0.000002103   -0.000001522    0.000004430
      5        1          -0.000001180   -0.000002212    0.000000757
 -------------------------------------------------------------------
 Cartesian Forces:  Max     0.000005529 RMS     0.000002487
 Force constants in Cartesian coordinates: 
                1             2             3             4             5 
      1  0.417986D+00
      2 -0.426563D-01  0.479183D+00
      3  0.167234D-01 -0.974340D-02  0.428378D+00
      4 -0.230316D+00  0.927310D-01  0.661968D-02  0.330557D+00
      5  0.672845D-01 -0.647449D-01  0.164588D-02 -0.964612D-01  0.620535D-01
      6  0.154647D-01 -0.313927D-02 -0.254722D-01 -0.226142D-01  0.764695D-02
      7 -0.402354D-01  0.212404D-01  0.176939D-01 -0.239666D-01  0.299557D-01
      8  0.149610D-01 -0.181950D+00 -0.132298D+00  0.118639D-01 -0.201104D-02
      9  0.222650D-02 -0.107384D+00 -0.135390D+00  0.163853D-01 -0.723275D-02
     10 -0.708995D-01  0.186657D-01 -0.875205D-01 -0.380408D-01  0.142891D-01
     11  0.315203D-01 -0.510685D-01  0.624536D-01  0.201576D-02 -0.993414D-03
     12 -0.743349D-01  0.387760D-01 -0.235593D+00 -0.850604D-02  0.190814D-02
     13 -0.765350D-01 -0.899808D-01  0.464834D-01 -0.382335D-01 -0.150682D-01
     14 -0.711095D-01 -0.181420D+00  0.779423D-01 -0.101495D-01  0.569593D-02
     15  0.399203D-01  0.814907D-01 -0.319234D-01  0.811529D-02 -0.396821D-02
                6             7             8             9            10 
      6  0.334776D-01
      7  0.223916D-01  0.584758D-01
      8  0.102727D-02 -0.255432D-01  0.191314D+00
      9 -0.353667D-02 -0.198736D-01  0.135662D+00  0.158575D+00
     10 -0.250783D-01  0.352504D-02 -0.272193D-02  0.278042D-02  0.983532D-01
     11 -0.638178D-03 -0.125720D-01  0.101500D-01 -0.268213D-01 -0.266900D-01
     12  0.951850D-02 -0.712135D-02  0.719965D-02 -0.183335D-01  0.955770D-01
     13  0.983623D-02  0.220115D-02  0.144029D-02 -0.151854D-02  0.706209D-02
     14 -0.489678D-02 -0.130809D-01 -0.175035D-01  0.577607D-02 -0.354284D-02
     15 -0.139872D-01 -0.130905D-01 -0.115906D-01 -0.131491D-02  0.142414D-01
               11            12            13            14            15 
     11  0.504816D-01
     12 -0.489580D-01  0.259519D+00
     13  0.572602D-02 -0.561463D-02  0.105505D+00
     14 -0.856970D-02  0.107418D-02  0.978827D-01  0.201797D+00
     15  0.139639D-01 -0.151116D-01 -0.491865D-01 -0.798957D-01  0.623371D-01
 Red2BG is reusing G-inverse.
 Force constants in internal coordinates: 
                1             2             3             4             5 
      1  0.363175D+00
      2  0.252120D-01  0.315590D+00
      3  0.252139D-01  0.364459D-02  0.315574D+00
      4  0.282813D-01  0.313908D-02  0.313952D-02  0.299776D+00
      5  0.811107D-02 -0.663175D-03 -0.721235D-03 -0.268136D-02  0.230792D-01
      6  0.139864D-01 -0.118554D-03 -0.466176D-04 -0.639073D-02 -0.122944D-01
      7  0.130603D-01 -0.371197D-02 -0.372044D-02  0.835337D-02 -0.113979D-01
      8 -0.303388D-03  0.386974D-02  0.387388D-02 -0.602151D-02 -0.101978D-01
      9 -0.180589D-01  0.954517D-02 -0.914115D-02  0.377504D-02 -0.165473D-01
     10 -0.207375D-01 -0.940802D-02  0.926583D-02  0.545519D-02  0.274516D-01
     11 -0.232585D-01 -0.241081D-02 -0.239624D-02  0.146729D-01 -0.124200D-01
     12  0.702286D-02  0.204329D-02 -0.713750D-02  0.291503D-02  0.127969D-01
     13 -0.124726D-01  0.657032D-02 -0.261180D-02  0.531078D-03  0.642649D-02
     14 -0.194954D-01  0.452703D-02  0.452570D-02 -0.238396D-02 -0.637042D-02
                6             7             8             9            10 
      6  0.384277D-01
      7 -0.211959D-01  0.775151D-01
      8 -0.423366D-02  0.182727D-01  0.316563D-01
      9  0.266741D-01 -0.350671D-01 -0.168285D-01  0.614695D-01
     10 -0.308233D-01 -0.268520D-01 -0.219846D-01 -0.179871D-01  0.750117D-01
     11 -0.126128D-01  0.181647D-01 -0.102111D-01  0.147776D-01  0.812556D-02
     12 -0.116823D-01  0.838059D-02 -0.108349D-01 -0.651336D-02  0.943041D-02
     13 -0.186087D-01 -0.111916D-02  0.649084D-02 -0.444782D-02  0.122374D-01
     14 -0.692643D-02 -0.949975D-02  0.173257D-01  0.206554D-02  0.280696D-02
               11            12            13            14 
     11  0.374210D-01
     12  0.196464D-02  0.157101D-01
     13  0.150016D-02  0.466392D-02  0.159879D-01
     14 -0.464478D-03 -0.110462D-01  0.113240D-01  0.223702D-01
 Leave Link  716 at Sat Apr 25 20:08:36 2015, MaxMem=   524288000 cpu:         0.3
 (Enter /opt/g09/l9999.exe)
 1\1\GINC-SISLEY\Freq\UB971\6-311+G(d,p)\C1H3O1(2)\PB556\25-Apr-2015\0\
 \#p uB971/6-311+G(d,p) Opt=(Tight, CalcAll) Freq GFInput Population=No
 ne Integral(Grid=UltraFine) Guess=MIX NoSymmetry\\W:\Data\additional_h
 ydrocarbons\nist\enthalpy_estimation\success\fine\0_0b971_2143-68-2.g0
 9\\0,2\C,0.49733,0.90698,0.96795\O,1.79861,0.51802,0.85856\H,0.34423,1
 .72222,1.69382\H,0.02508,1.13152,-0.00237\H,-0.03874,0.02306,1.37664\\
 Version=ES64L-G09RevD.01\HF=-115.0508423\S2=0.753747\S2-1=0.\S2A=0.750
 011\RMSD=1.628e-09\RMSF=2.487e-06\ZeroPoint=0.036074\Thermal=0.0391157
 \Dipole=-0.8522099,0.1642199,0.1031596\DipoleDeriv=0.0782453,-0.190655
 4,0.0324759,-0.2337014,0.3352776,-0.1080873,0.0473867,-0.1161097,-0.06
 97211,-0.2210751,0.1209815,-0.0253132,0.0038501,-0.3339771,0.0695126,0
 .0154547,0.0474539,-0.1517359,0.0341834,0.0423737,0.0588556,0.0901662,
 -0.0826912,-0.1780171,-0.0035795,-0.0903921,0.0556956,-0.0059328,0.024
 9793,-0.0965543,0.1260251,0.0886143,0.1187079,-0.0859123,0.0590803,-0.
 0755348,0.1145793,0.0023209,0.030536,0.01366,-0.0072236,0.0978838,0.02
 66504,0.0999676,0.2412962\Polar=20.6036491,-1.2783091,15.9525884,-0.02
 21932,0.9927438,17.7720016\PG=C01 [X(C1H3O1)]\NImag=0\\0.41798563,-0.0
 4265630,0.47918332,0.01672344,-0.00974340,0.42837806,-0.23031571,0.092
 73103,0.00661968,0.33055660,0.06728449,-0.06474494,0.00164588,-0.09646
 116,0.06205347,0.01546470,-0.00313927,-0.02547223,-0.02261419,0.007646
 95,0.03347765,-0.04023541,0.02124039,0.01769391,-0.02396661,0.02995572
 ,0.02239157,0.05847583,0.01496102,-0.18194977,-0.13229834,0.01186386,-
 0.00201104,0.00102727,-0.02554323,0.19131432,0.00222650,-0.10738405,-0
 .13538975,0.01638526,-0.00723275,-0.00353667,-0.01987364,0.13566205,0.
 15857483,-0.07089955,0.01866571,-0.08752045,-0.03804082,0.01428910,-0.
 02507831,0.00352504,-0.00272193,0.00278042,0.09835324,0.03152026,-0.05
 106854,0.06245361,0.00201576,-0.00099341,-0.00063818,-0.01257200,0.010
 15001,-0.02682132,-0.02669004,0.05048165,-0.07433495,0.03877601,-0.235
 59271,-0.00850604,0.00190814,0.00951850,-0.00712135,0.00719965,-0.0183
 3351,0.09557696,-0.04895799,0.25951932,-0.07653497,-0.08998083,0.04648
 343,-0.03823345,-0.01506816,0.00983623,0.00220115,0.00144029,-0.001518
 54,0.00706209,0.00572602,-0.00561463,0.10550518,-0.07110947,-0.1814200
 7,0.07794226,-0.01014949,0.00569593,-0.00489678,-0.01308087,-0.0175035
 3,0.00577607,-0.00354284,-0.00856970,0.00107418,0.09788268,0.20179737,
 0.03992031,0.08149070,-0.03192337,0.00811529,-0.00396821,-0.01398725,-
 0.01309050,-0.01159064,-0.00131491,0.01424138,0.01396388,-0.01511161,-
 0.04918648,-0.07989574,0.06233713\\0.00000196,-0.00000553,0.00000466,-
 0.00000098,0.00000055,-0.00000022,-0.00000005,0.00000124,0.00000075,-0
 .00000210,0.00000152,-0.00000443,0.00000118,0.00000221,-0.00000076\\\@


 MICHAEL FARADAY, ASKED BY A POLITICIAN WHAT GOOD
 HIS ELECTRICAL DISCOVERIES WERE, REPLIED 
 "AT PRESENT I DO NOT KNOW, BUT ONE DAY YOU WILL BE
 ABLE TO TAX THEM."
 Leave Link 9999 at Sat Apr 25 20:08:36 2015, MaxMem=   524288000 cpu:         0.3
 Job cpu time:       0 days  0 hours  2 minutes 45.5 seconds.
 File lengths (MBytes):  RWF=      7 Int=      0 D2E=      0 Chk=      1 Scr=      1
 Normal termination of Gaussian 09 at Sat Apr 25 20:08:36 2015.
 (Enter /opt/g09/l1.exe)
 Link1:  Proceeding to internal job step number  2.
 ----------------------------------------------------------------------
 #P Geom=AllCheck Guess=TCheck SCRF=Check GenChk UB971/6-311+G(d,p) Fre
 q
 ----------------------------------------------------------------------
 1/7=10,10=4,29=7,30=1,38=1,40=1/1,3;
 2/12=2,15=1,40=1/2;
 3/5=4,6=6,7=111,11=2,14=-4,16=1,24=10,25=1,30=1,70=2,71=2,74=-20,75=-5,116=2,140=1/1,2,3;
 4/5=101/1;
 5/5=2,98=1/2;
 8/6=4,10=90,11=11/1;
 11/6=1,8=1,9=11,15=111,16=1,31=1/1,2,10;
 10/6=1,31=1/2;
 7/8=1,10=1,25=1,30=1/1,2,3,16;
 1/7=10,10=4,30=1/3;
 99//99;
 Leave Link    1 at Sat Apr 25 20:08:36 2015, MaxMem=   524288000 cpu:         0.4
 (Enter /opt/g09/l101.exe)
 Structure from the checkpoint file:  "/scratch/pb556/g09_run/add_hco//Gau-9573.chk"
 ----------------------------------------------------------------------
 W:\Data\additional_hydrocarbons\nist\enthalpy_estimation\success\fine\
 0_0b971_2143-68-2.g09
 ----------------------------------------------------------------------
 Charge =  0 Multiplicity = 2
 Redundant internal coordinates found in file.
 C,0,0.49733,0.90698,0.96795
 O,0,1.79861,0.51802,0.85856
 H,0,0.34423,1.72222,1.69382
 H,0,0.02508,1.13152,-0.00237
 H,0,-0.03874,0.02306,1.37664
 Recover connectivity data from disk.
 NAtoms=      5 NQM=        5 NQMF=       0 NMMI=      0 NMMIF=      0
                NMic=       0 NMicF=      0.
                    Isotopes and Nuclear Properties:
 (Nuclear quadrupole moments (NQMom) in fm**2, nuclear magnetic moments (NMagM)
  in nuclear magnetons)

  Atom         1           2           3           4           5
 IAtWgt=          12          16           1           1           1
 AtmWgt=  12.0000000  15.9949146   1.0078250   1.0078250   1.0078250
 NucSpn=           0           0           1           1           1
 AtZEff=  -3.6000000  -5.6000000  -1.0000000  -1.0000000  -1.0000000
 NQMom=    0.0000000   0.0000000   0.0000000   0.0000000   0.0000000
 NMagM=    0.0000000   0.0000000   2.7928460   2.7928460   2.7928460
 AtZNuc=   6.0000000   8.0000000   1.0000000   1.0000000   1.0000000
 Leave Link  101 at Sat Apr 25 20:08:36 2015, MaxMem=   524288000 cpu:         1.8
 (Enter /opt/g09/l103.exe)

 GradGradGradGradGradGradGradGradGradGradGradGradGradGradGradGradGradGrad
 Berny optimization.
 Initialization pass.
                           ----------------------------
                           !    Initial Parameters    !
                           ! (Angstroms and Degrees)  !
 --------------------------                            --------------------------
 ! Name  Definition              Value          Derivative Info.                !
 --------------------------------------------------------------------------------
 ! R1    R(1,2)                  1.3626         calculate D2E/DX2 analytically  !
 ! R2    R(1,3)                  1.1022         calculate D2E/DX2 analytically  !
 ! R3    R(1,4)                  1.1023         calculate D2E/DX2 analytically  !
 ! R4    R(1,5)                  1.1116         calculate D2E/DX2 analytically  !
 ! A1    A(2,1,3)              113.3691         calculate D2E/DX2 analytically  !
[...]
 Molecular mass:    31.01839 amu.
 Principal axes and moments of inertia in atomic units:
                           1         2         3
     Eigenvalues --    11.50345  64.30419  64.77768
           X            0.95600   0.17494   0.23548
           Y           -0.28173   0.32379   0.90321
           Z           -0.08177   0.92981  -0.35883
 This molecule is an asymmetric top.
 Rotational symmetry number  1.
 Rotational temperatures (Kelvin)      7.52938     1.34694     1.33709
 Rotational constants (GHZ):         156.88693    28.06568    27.86054
 Zero-point vibrational energy      94712.1 (Joules/Mol)
                                   22.63675 (Kcal/Mol)
 Vibrational temperatures:    980.12  1381.04  1607.81  1946.25  1958.62
          (Kelvin)           2170.38  4154.73  4259.86  4323.67
 
 Zero-point correction=                           0.036074 (Hartree/Particle)
 Thermal correction to Energy=                    0.039116
 Thermal correction to Enthalpy=                  0.040060
 Thermal correction to Gibbs Free Energy=         0.013135
 Sum of electronic and zero-point Energies=           -115.014768
 Sum of electronic and thermal Energies=              -115.011727
 Sum of electronic and thermal Enthalpies=            -115.010782
 Sum of electronic and thermal Free Energies=         -115.037708
 
                     E (Thermal)             CV                S
                      KCal/Mol        Cal/Mol-Kelvin    Cal/Mol-Kelvin
 Total                   24.545              7.834             56.669
 Electronic               0.000              0.000              1.377
 Translational            0.889              2.981             36.229
 Rotational               0.889              2.981             18.511
 Vibrational             22.768              1.873              0.552
                       Q            Log10(Q)             Ln(Q)
 Total Bot       0.908835D-06         -6.041515        -13.911103
 Total V=0       0.355889D+11         10.551315         24.295300
 Vib (Bot)       0.270071D-16        -16.568522        -38.150432
 Vib (V=0)       0.105757D+01          0.024308          0.055971
 Electronic      0.200000D+01          0.301030          0.693147
 Translational   0.679022D+07          6.831884         15.730994
 Rotational      0.247795D+04          3.394093          7.815188
 
                     W:\Data\additional_hydrocarbons\nist\enthalpy_estimation\suc
 cess\fine\0_0b971_2143-68-2.g09
                                                             IR Spectrum
 
     3 2  2                                                          1    11         1                                               
     0 9  8                                                          5    33         1      9           6                            
     0 6  8                                                          0    65         1      6           8                            
     5 1  8                                                          8    13         7      0           1                            
 
     X X  X                                                          X    XX         X      X           X                            
     X X                                                                  XX         X                  X                            
     X X                                                                  XX                            X                            
     X X                                                                  XX                            X                            
     X X                                                                  X                             X                            
     X X                                                                  X                             X                            
     X X                                                                                                X                            
       X                                                                                                X                            
       X                                                                                                X                            
                                                                                                        X                            
                                                                                                        X                            
                                                                                                        X                            
                                                                                                        X                            
                                                                                                        X                            
                                                                                                        X                            
                                                                                                        X                            
                                                                                                        X                            
                                                                                                        X                            
                                                                                                        X                            
                                                                                                        X                            
 
 -------------------------------------------------------------------
 Center     Atomic                   Forces (Hartrees/Bohr)
 Number     Number              X              Y              Z
 -------------------------------------------------------------------
      1        6          -0.000001956    0.000005525   -0.000004658
      2        8           0.000000981   -0.000000550    0.000000220
      3        1           0.000000053   -0.000001243   -0.000000749
      4        1           0.000002102   -0.000001522    0.000004430
      5        1          -0.000001180   -0.000002210    0.000000757
 -------------------------------------------------------------------
 Cartesian Forces:  Max     0.000005525 RMS     0.000002486
 Force constants in Cartesian coordinates: 
                1             2             3             4             5 
      1  0.417986D+00
      2 -0.426563D-01  0.479183D+00
      3  0.167233D-01 -0.974362D-02  0.428377D+00
      4 -0.230316D+00  0.927310D-01  0.661972D-02  0.330557D+00
      5  0.672845D-01 -0.647449D-01  0.164595D-02 -0.964612D-01  0.620534D-01
      6  0.154647D-01 -0.313919D-02 -0.254720D-01 -0.226142D-01  0.764693D-02
      7 -0.402354D-01  0.212404D-01  0.176940D-01 -0.239666D-01  0.299557D-01
      8  0.149610D-01 -0.181950D+00 -0.132298D+00  0.118639D-01 -0.201103D-02
      9  0.222653D-02 -0.107384D+00 -0.135390D+00  0.163853D-01 -0.723277D-02
     10 -0.708996D-01  0.186657D-01 -0.875205D-01 -0.380408D-01  0.142891D-01
     11  0.315203D-01 -0.510685D-01  0.624538D-01  0.201575D-02 -0.993436D-03
     12 -0.743349D-01  0.387760D-01 -0.235593D+00 -0.850604D-02  0.190813D-02
     13 -0.765350D-01 -0.899808D-01  0.464835D-01 -0.382335D-01 -0.150682D-01
     14 -0.711095D-01 -0.181420D+00  0.779423D-01 -0.101495D-01  0.569592D-02
     15  0.399203D-01  0.814908D-01 -0.319232D-01  0.811528D-02 -0.396824D-02
                6             7             8             9            10 
      6  0.334776D-01
      7  0.223915D-01  0.584758D-01
      8  0.102731D-02 -0.255432D-01  0.191314D+00
      9 -0.353672D-02 -0.198737D-01  0.135662D+00  0.158575D+00
     10 -0.250783D-01  0.352505D-02 -0.272194D-02  0.278043D-02  0.983532D-01
     11 -0.638241D-03 -0.125720D-01  0.101500D-01 -0.268214D-01 -0.266900D-01
     12  0.951847D-02 -0.712136D-02  0.719967D-02 -0.183335D-01  0.955770D-01
     13  0.983621D-02  0.220114D-02  0.144029D-02 -0.151854D-02  0.706209D-02
     14 -0.489680D-02 -0.130809D-01 -0.175035D-01  0.577606D-02 -0.354284D-02
     15 -0.139873D-01 -0.130905D-01 -0.115906D-01 -0.131495D-02  0.142414D-01
               11            12            13            14            15 
     11  0.504816D-01
     12 -0.489580D-01  0.259519D+00
     13  0.572601D-02 -0.561464D-02  0.105505D+00
     14 -0.856972D-02  0.107418D-02  0.978827D-01  0.201797D+00
     15  0.139638D-01 -0.151116D-01 -0.491865D-01 -0.798958D-01  0.623371D-01
 FormGI is forming the generalized inverse of G from B-inverse, IUseBI=4.
 Force constants in internal coordinates: 
                1             2             3             4             5 
      1  0.363175D+00
      2  0.252120D-01  0.315590D+00
      3  0.252139D-01  0.364459D-02  0.315574D+00
      4  0.282813D-01  0.313908D-02  0.313952D-02  0.299776D+00
      5  0.811107D-02 -0.663174D-03 -0.721236D-03 -0.268136D-02  0.230792D-01
      6  0.139864D-01 -0.118555D-03 -0.466163D-04 -0.639073D-02 -0.122944D-01
      7  0.130603D-01 -0.371197D-02 -0.372044D-02  0.835337D-02 -0.113979D-01
      8 -0.303387D-03  0.386974D-02  0.387388D-02 -0.602151D-02 -0.101978D-01
      9 -0.180589D-01  0.954517D-02 -0.914116D-02  0.377504D-02 -0.165474D-01
     10 -0.207375D-01 -0.940802D-02  0.926584D-02  0.545519D-02  0.274516D-01
     11 -0.232585D-01 -0.241082D-02 -0.239624D-02  0.146729D-01 -0.124200D-01
     12  0.702286D-02  0.204329D-02 -0.713751D-02  0.291503D-02  0.127969D-01
     13 -0.124726D-01  0.657032D-02 -0.261180D-02  0.531078D-03  0.642646D-02
     14 -0.194954D-01  0.452703D-02  0.452570D-02 -0.238396D-02 -0.637043D-02
                6             7             8             9            10 
      6  0.384277D-01
      7 -0.211959D-01  0.775151D-01
      8 -0.423367D-02  0.182727D-01  0.316563D-01
      9  0.266741D-01 -0.350671D-01 -0.168285D-01  0.614694D-01
     10 -0.308233D-01 -0.268520D-01 -0.219847D-01 -0.179870D-01  0.750117D-01
     11 -0.126128D-01  0.181647D-01 -0.102111D-01  0.147776D-01  0.812555D-02
     12 -0.116823D-01  0.838059D-02 -0.108349D-01 -0.651343D-02  0.943047D-02
     13 -0.186087D-01 -0.111916D-02  0.649085D-02 -0.444788D-02  0.122374D-01
     14 -0.692643D-02 -0.949975D-02  0.173257D-01  0.206554D-02  0.280697D-02
               11            12            13            14 
     11  0.374210D-01
     12  0.196464D-02  0.157101D-01
     13  0.150017D-02  0.466385D-02  0.159878D-01
     14 -0.464478D-03 -0.110462D-01  0.113240D-01  0.223702D-01
 Leave Link  716 at Sat Apr 25 20:08:51 2015, MaxMem=   524288000 cpu:         0.3
 (Enter /opt/g09/l103.exe)

 GradGradGradGradGradGradGradGradGradGradGradGradGradGradGradGradGradGrad
 Berny optimization.
 Red2BG is reusing G-inverse.
 Internal  Forces:  Max     0.000005114 RMS     0.000001620
 Search for a local minimum.
 Step number   1 out of a maximum of    2
 All quantities printed in internal units (Hartrees-Bohrs-Radians)
 Second derivative matrix not updated -- analytic derivatives used.
 The second derivative matrix:
                          R1        R2        R3        R4        A1
           R1           0.36318
           R2           0.02521   0.31559
           R3           0.02521   0.00364   0.31557
           R4           0.02828   0.00314   0.00314   0.29978
           A1           0.00811  -0.00066  -0.00072  -0.00268   0.02308
           A2           0.01399  -0.00012  -0.00005  -0.00639  -0.01229
           A3           0.01306  -0.00371  -0.00372   0.00835  -0.01140
           A4          -0.00030   0.00387   0.00387  -0.00602  -0.01020
           A5          -0.01806   0.00955  -0.00914   0.00378  -0.01655
           A6          -0.02074  -0.00941   0.00927   0.00546   0.02745
           D1          -0.02326  -0.00241  -0.00240   0.01467  -0.01242
           D2           0.00702   0.00204  -0.00714   0.00292   0.01280
           D3          -0.01247   0.00657  -0.00261   0.00053   0.00643
           D4          -0.01950   0.00453   0.00453  -0.00238  -0.00637
                          A2        A3        A4        A5        A6
           A2           0.03843
           A3          -0.02120   0.07752
           A4          -0.00423   0.01827   0.03166
           A5           0.02667  -0.03507  -0.01683   0.06147
           A6          -0.03082  -0.02685  -0.02198  -0.01799   0.07501
           D1          -0.01261   0.01816  -0.01021   0.01478   0.00813
           D2          -0.01168   0.00838  -0.01083  -0.00651   0.00943
           D3          -0.01861  -0.00112   0.00649  -0.00445   0.01224
           D4          -0.00693  -0.00950   0.01733   0.00207   0.00281
                          D1        D2        D3        D4
           D1           0.03742
           D2           0.00196   0.01571
           D3           0.00150   0.00466   0.01599
           D4          -0.00046  -0.01105   0.01132   0.02237
 ITU=  0
     Eigenvalues ---    0.02086   0.04775   0.06399   0.12323   0.13009
     Eigenvalues ---    0.29017   0.30755   0.31373   0.39540
 Angle between quadratic step and forces=  30.22 degrees.
 Linear search not attempted -- first point.
 Iteration  1 RMS(Cart)=  0.00000397 RMS(Int)=  0.00000000
 Iteration  2 RMS(Cart)=  0.00000000 RMS(Int)=  0.00000000
 ITry= 1 IFail=0 DXMaxC= 9.07D-06 DCOld= 1.00D+10 DXMaxT= 3.00D-01 DXLimC= 3.00D+00 Rises=F
 Variable       Old X    -DE/DX   Delta X   Delta X   Delta X     New X
                                 (Linear)    (Quad)   (Total)
    R1        2.57488   0.00000   0.00000   0.00000   0.00000   2.57488
    R2        2.08294   0.00000   0.00000  -0.00001  -0.00001   2.08294
    R3        2.08295  -0.00001   0.00000  -0.00002  -0.00002   2.08294
    R4        2.10067   0.00000   0.00000   0.00001   0.00001   2.10068
    A1        1.97866   0.00000   0.00000   0.00000   0.00000   1.97866
    A2        1.97866   0.00000   0.00000   0.00000   0.00000   1.97866
    A3        1.83701   0.00000   0.00000  -0.00001  -0.00001   1.83700
    A4        1.94931   0.00000   0.00000   0.00001   0.00001   1.94932
    A5        1.85357   0.00000   0.00000   0.00000   0.00000   1.85357
    A6        1.85357   0.00000   0.00000   0.00000   0.00000   1.85356
    D1       -2.26120   0.00000   0.00000  -0.00001  -0.00001  -2.26121
    D2        2.10292   0.00000   0.00000   0.00000   0.00000   2.10292
    D3       -2.10292   0.00000   0.00000   0.00000   0.00000  -2.10292
    D4        2.07734   0.00000   0.00000   0.00001   0.00001   2.07735
         Item               Value     Threshold  Converged?
 Maximum Force            0.000005     0.000015     YES
 RMS     Force            0.000002     0.000010     YES
 Maximum Displacement     0.000009     0.000060     YES
 RMS     Displacement     0.000004     0.000040     YES
 Predicted change in Energy=-6.646123D-11
 Optimization completed.
    -- Stationary point found.
                           ----------------------------
                           !   Optimized Parameters   !
                           ! (Angstroms and Degrees)  !
 --------------------------                            --------------------------
 ! Name  Definition              Value          Derivative Info.                !
 --------------------------------------------------------------------------------
 ! R1    R(1,2)                  1.3626         -DE/DX =    0.0                 !
 ! R2    R(1,3)                  1.1022         -DE/DX =    0.0                 !
 ! R3    R(1,4)                  1.1023         -DE/DX =    0.0                 !
 ! R4    R(1,5)                  1.1116         -DE/DX =    0.0                 !
 ! A1    A(2,1,3)              113.3691         -DE/DX =    0.0                 !
 ! A2    A(2,1,4)              113.3688         -DE/DX =    0.0                 !
 ! A3    A(2,1,5)              105.2528         -DE/DX =    0.0                 !
 ! A4    A(3,1,4)              111.6871         -DE/DX =    0.0                 !
 ! A5    A(3,1,5)              106.2017         -DE/DX =    0.0                 !
 ! A6    A(4,1,5)              106.2015         -DE/DX =    0.0                 !
 ! D1    D(2,1,4,3)           -129.5574         -DE/DX =    0.0                 !
 ! D2    D(2,1,5,3)            120.4887         -DE/DX =    0.0                 !
 ! D3    D(2,1,5,4)           -120.4884         -DE/DX =    0.0                 !
 ! D4    D(3,1,5,4)            119.0229         -DE/DX =    0.0                 !
 --------------------------------------------------------------------------------
 GradGradGradGradGradGradGradGradGradGradGradGradGradGradGradGradGradGrad

 Leave Link  103 at Sat Apr 25 20:08:52 2015, MaxMem=   524288000 cpu:         0.0
 (Enter /opt/g09/l9999.exe)
 1\1\GINC-SISLEY\Freq\UB971\6-311+G(d,p)\C1H3O1(2)\PB556\25-Apr-2015\0\
 \#P Geom=AllCheck Guess=TCheck SCRF=Check GenChk UB971/6-311+G(d,p) Fr
 eq\\W:\Data\additional_hydrocarbons\nist\enthalpy_estimation\success\f
 ine\0_0b971_2143-68-2.g09\\0,2\C,0.49733,0.90698,0.96795\O,1.79861,0.5
 1802,0.85856\H,0.34423,1.72222,1.69382\H,0.02508,1.13152,-0.00237\H,-0
 .03874,0.02306,1.37664\\Version=ES64L-G09RevD.01\HF=-115.0508423\S2=0.
 753747\S2-1=0.\S2A=0.750011\RMSD=2.573e-10\RMSF=2.486e-06\ZeroPoint=0.
 036074\Thermal=0.0391157\Dipole=-0.8522099,0.1642199,0.1031596\DipoleD
 eriv=0.0782452,-0.1906555,0.0324755,-0.2337016,0.3352773,-0.1080882,0.
 0473863,-0.1161106,-0.0697236,-0.2210751,0.1209815,-0.025313,0.0038502
 ,-0.333977,0.069513,0.0154549,0.0474543,-0.151735,0.0341834,0.0423739,
 0.0588559,0.0901661,-0.0826914,-0.1780175,-0.0035794,-0.0903919,0.0556
 962,-0.0059328,0.0249792,-0.0965545,0.1260253,0.0886146,0.1187086,-0.0
 859123,0.0590804,-0.0755345,0.1145793,0.0023209,0.0305361,0.01366,-0.0
 072235,0.0978841,0.0266505,0.0999679,0.241297\Polar=20.6036501,-1.2783
 085,15.9525899,-0.0221913,0.9927476,17.7720124\PG=C01 [X(C1H3O1)]\NIma
 g=0\\0.41798560,-0.04265634,0.47918324,0.01672332,-0.00974362,0.428377
 42,-0.23031569,0.09273105,0.00661972,0.33055659,0.06728451,-0.06474491
 ,0.00164595,-0.09646117,0.06205345,0.01546474,-0.00313919,-0.02547200,
 -0.02261421,0.00764693,0.03347756,-0.04023540,0.02124042,0.01769399,-0
 .02396662,0.02995571,0.02239154,0.05847582,0.01496100,-0.18194980,-0.1
 3229844,0.01186387,-0.00201103,0.00102731,-0.02554322,0.19131431,0.002
 22653,-0.10738400,-0.13538961,0.01638525,-0.00723277,-0.00353672,-0.01
 987366,0.13566207,0.15857480,-0.07089955,0.01866570,-0.08752049,-0.038
 04082,0.01428911,-0.02507829,0.00352505,-0.00272194,0.00278043,0.09835
 324,0.03152030,-0.05106848,0.06245378,0.00201575,-0.00099344,-0.000638
 24,-0.01257203,0.01015004,-0.02682136,-0.02669003,0.05048160,-0.074334
 93,0.03877604,-0.23559264,-0.00850604,0.00190813,0.00951847,-0.0071213
 6,0.00719967,-0.01833352,0.09557697,-0.04895801,0.25951931,-0.07653496
 ,-0.08998082,0.04648346,-0.03823346,-0.01506816,0.00983621,0.00220114,
 0.00144029,-0.00151854,0.00706209,0.00572601,-0.00561464,0.10550518,-0
 .07110946,-0.18142005,0.07794232,-0.01014950,0.00569592,-0.00489680,-0
 .01308088,-0.01750352,0.00577606,-0.00354284,-0.00856972,0.00107418,0.
 09788268,0.20179736,0.03992035,0.08149077,-0.03192318,0.00811528,-0.00
 396824,-0.01398732,-0.01309052,-0.01159061,-0.00131495,0.01424139,0.01
 396383,-0.01511163,-0.04918650,-0.07989575,0.06233707\\0.00000196,-0.0
 0000553,0.00000466,-0.00000098,0.00000055,-0.00000022,-0.00000005,0.00
 000124,0.00000075,-0.00000210,0.00000152,-0.00000443,0.00000118,0.0000
 0221,-0.00000076\\\@


 IF YOU DON'T HAVE THE LAW - ARGUE THE FACTS.
 IF YOU DON'T HAVE THE FACTS - ARGUE THE LAW.
 IF YOU DON'T HAVE EITHER - POUND THE TABLE.
 Job cpu time:       0 days  0 hours  2 minutes  2.5 seconds.
 File lengths (MBytes):  RWF=      7 Int=      0 D2E=      0 Chk=      1 Scr=      1
 Normal termination of Gaussian 09 at Sat Apr 25 20:08:52 2015.
