 Entering Gaussian System, Link 0=g09
 Input=0_0freq-corr_b971_243-24-3.gau
 Output=0_0freq-corr_b971_243-24-3.log
 Initial command:
 /opt/g09/l1.exe "/scratch/pb556/g09_run/add_hco//Gau-13368.inp" -scrdir="/scratch/pb556/g09_run/add_hco//"
 Entering Link 1 = /opt/g09/l1.exe PID=     13377.
  
 Copyright (c) 1988,1990,1992,1993,1995,1998,2003,2009,2013,
            Gaussian, Inc.  All Rights Reserved.
  
 This is part of the Gaussian(R) 09 program.  It is based on
 the Gaussian(R) 03 system (copyright 2003, Gaussian, Inc.),
 the Gaussian(R) 98 system (copyright 1998, Gaussian, Inc.),
 the Gaussian(R) 94 system (copyright 1995, Gaussian, Inc.),
 the Gaussian 92(TM) system (copyright 1992, Gaussian, Inc.),
 the Gaussian 90(TM) system (copyright 1990, Gaussian, Inc.),
 the Gaussian 88(TM) system (copyright 1988, Gaussian, Inc.),
 the Gaussian 86(TM) system (copyright 1986, Carnegie Mellon
 University), and the Gaussian 82(TM) system (copyright 1983,
 Carnegie Mellon University). Gaussian is a federally registered
 trademark of Gaussian, Inc.
  
 This software contains proprietary and confidential information,
 including trade secrets, belonging to Gaussian, Inc.
  
 This software is provided under written license and may be
 used, copied, transmitted, or stored only in accord with that
 written license.
  
 The following legend is applicable only to US Government
 contracts under FAR:
  
                    RESTRICTED RIGHTS LEGEND
  
 Use, reproduction and disclosure by the US Government is
 subject to restrictions as set forth in subparagraphs (a)
 and (c) of the Commercial Computer Software - Restricted
 Rights clause in FAR 52.227-19.
  
 Gaussian, Inc.
 340 Quinnipiac St., Bldg. 40, Wallingford CT 06492
  
  
 ---------------------------------------------------------------
 Warning -- This program may not be used in any manner that
 competes with the business of Gaussian, Inc. or will provide
 assistance to any competitor of Gaussian, Inc.  The licensee
 of this program is prohibited from giving any competitor of
 Gaussian, Inc. access to this program.  By using this program,
 the user acknowledges that Gaussian, Inc. is engaged in the
 business of creating and licensing software in the field of
 computational chemistry and represents and warrants to the
 licensee that it is not a competitor of Gaussian, Inc. and that
 it will not use this program in any manner prohibited above.
 ---------------------------------------------------------------
  

 Cite this work as:
 Gaussian 09, Revision D.01,
 M. J. Frisch, G. W. Trucks, H. B. Schlegel, G. E. Scuseria, 
 M. A. Robb, J. R. Cheeseman, G. Scalmani, V. Barone, B. Mennucci, 
 G. A. Petersson, H. Nakatsuji, M. Caricato, X. Li, H. P. Hratchian, 
 A. F. Izmaylov, J. Bloino, G. Zheng, J. L. Sonnenberg, M. Hada, 
 M. Ehara, K. Toyota, R. Fukuda, J. Hasegawa, M. Ishida, T. Nakajima, 
 Y. Honda, O. Kitao, H. Nakai, T. Vreven, J. A. Montgomery, Jr., 
 J. E. Peralta, F. Ogliaro, M. Bearpark, J. J. Heyd, E. Brothers, 
 K. N. Kudin, V. N. Staroverov, T. Keith, R. Kobayashi, J. Normand, 
 K. Raghavachari, A. Rendell, J. C. Burant, S. S. Iyengar, J. Tomasi, 
 M. Cossi, N. Rega, J. M. Millam, M. Klene, J. E. Knox, J. B. Cross, 
 V. Bakken, C. Adamo, J. Jaramillo, R. Gomperts, R. E. Stratmann, 
 O. Yazyev, A. J. Austin, R. Cammi, C. Pomelli, J. W. Ochterski, 
 R. L. Martin, K. Morokuma, V. G. Zakrzewski, G. A. Voth, 
 P. Salvador, J. J. Dannenberg, S. Dapprich, A. D. Daniels, 
 O. Farkas, J. B. Foresman, J. V. Ortiz, J. Cioslowski, 
 and D. J. Fox, Gaussian, Inc., Wallingford CT, 2013.
 
 ******************************************
 Gaussian 09:  ES64L-G09RevD.01 24-Apr-2013
                27-Apr-2015 
 ******************************************
 %NProcShared=8
 Will use up to    8 processors via shared memory.
 %Mem=500MW
 ----------------------------------------------------------------------
 #p rB971/6-311+G(d,p) Opt=(Tight, CalcAll) Freq GFInput Population=Non
 e Integral(Grid=UltraFine) Guess=MIX NoSymmetry
 ----------------------------------------------------------------------
 1/7=10,10=4,14=-1,18=20,19=15,26=4,38=1/1,3;
 2/9=110,12=2,15=1,17=6,18=5,40=1/2;
 3/5=4,6=6,7=111,11=2,16=1,24=10,25=1,30=1,71=2,74=-20,75=-5,116=1,140=1/1,2,3;
 4/13=-1/1;
 5/5=2,38=5/2;
 8/6=4,10=90,11=11/1;
 11/6=1,8=1,9=11,15=111,16=1,31=1/1,2,10;
 10/6=1,31=1/2;
 7/10=1,25=1,30=1/1,2,3,16;
 1/7=10,10=4,14=-1,18=20,19=15,26=4/3(3);
 2/9=110,15=1/2;
 7/8=1,9=1,25=1,30=1,44=-1/16;
 99//99;
 2/9=110,15=1/2;
 3/5=4,6=6,7=111,11=2,16=1,25=1,30=1,71=2,74=-20,75=-5,116=1,140=1/1,2,3;
 4/5=5,16=3,69=1/1;
 5/5=2,38=5/2;
 8/6=4,10=90,11=11/1;
 11/6=1,8=1,9=11,15=111,16=1,31=1/1,2,10;
 10/6=1,31=1/2;
 7/10=1,25=1,30=1/1,2,3,16;
 1/7=10,10=4,14=-1,18=20,19=15,26=4/3(-8);
 2/9=110,15=1/2;
 7/8=1,9=1,25=1,30=1,44=-1/16;
 99//99;
 Leave Link    1 at Mon Apr 27 15:33:30 2015, MaxMem=   524288000 cpu:         0.7
 (Enter /opt/g09/l101.exe)
 ----------------------------------------------------------------------
 W:\Data\additional_hydrocarbons\nist\enthalpy_estimation\success\fine\
 corr_b971_243-24-3.g09
 ----------------------------------------------------------------------
 Symbolic Z-matrix:
 Charge =  0 Multiplicity = 1
 C                     4.12448   3.08463  -0.07264 
 C                     4.08831   1.61697  -0.09257 
 O                     5.30148   3.76391  -0.09776 
 C                     2.87248   3.61224  -0.02809 
 C                     5.2471    0.91691  -0.13701 
 C                     2.67212   1.26105  -0.05573 
 C                     6.49867   1.64579  -0.1636 
 C                     8.87791   3.14872  -0.2124 
 C                     8.93371   1.7471   -0.23419 
 C                     7.65201   3.80731  -0.16668 
 C                     1.9386    2.48485  -0.01657 
 C                     2.01867   0.03068  -0.05391 
 C                     0.54228   2.45017   0.02425 
 C                     6.47276   3.06042  -0.14251 
 C                     7.75605   1.01042  -0.20993 
 C                     0.61968   0.0093   -0.01281 
 C                    -0.10491   1.2087    0.02571 
 H                     2.60911   4.66067  -0.00535 
 H                     5.2686   -0.16972  -0.15332 
 H                     9.79476   3.72953  -0.23117 
 H                     9.89249   1.24048  -0.26982 
 H                     7.58695   4.89004  -0.14919 
 H                     2.57964  -0.89979  -0.08374 
 H                    -0.03559   3.36948   0.05446 
 H                     7.78786  -0.07571  -0.22647 
 H                     0.093    -0.9398   -0.01072 
 H                    -1.19024   1.17402   0.05735 
 
 NAtoms=     27 NQM=       27 NQMF=       0 NMMI=      0 NMMIF=      0
                NMic=       0 NMicF=      0.
                    Isotopes and Nuclear Properties:
 (Nuclear quadrupole moments (NQMom) in fm**2, nuclear magnetic moments (NMagM)
  in nuclear magnetons)

  Atom         1           2           3           4           5           6           7           8           9          10
 IAtWgt=          12          12          16          12          12          12          12          12          12          12
 AtmWgt=  12.0000000  12.0000000  15.9949146  12.0000000  12.0000000  12.0000000  12.0000000  12.0000000  12.0000000  12.0000000
 NucSpn=           0           0           0           0           0           0           0           0           0           0
 AtZEff=   0.0000000   0.0000000   0.0000000   0.0000000   0.0000000   0.0000000   0.0000000   0.0000000   0.0000000   0.0000000
 NQMom=    0.0000000   0.0000000   0.0000000   0.0000000   0.0000000   0.0000000   0.0000000   0.0000000   0.0000000   0.0000000
 NMagM=    0.0000000   0.0000000   0.0000000   0.0000000   0.0000000   0.0000000   0.0000000   0.0000000   0.0000000   0.0000000
 AtZNuc=   6.0000000   6.0000000   8.0000000   6.0000000   6.0000000   6.0000000   6.0000000   6.0000000   6.0000000   6.0000000

  Atom        11          12          13          14          15          16          17          18          19          20
 IAtWgt=          12          12          12          12          12          12          12           1           1           1
 AtmWgt=  12.0000000  12.0000000  12.0000000  12.0000000  12.0000000  12.0000000  12.0000000   1.0078250   1.0078250   1.0078250
 NucSpn=           0           0           0           0           0           0           0           1           1           1
 AtZEff=   0.0000000   0.0000000   0.0000000   0.0000000   0.0000000   0.0000000   0.0000000   0.0000000   0.0000000   0.0000000
 NQMom=    0.0000000   0.0000000   0.0000000   0.0000000   0.0000000   0.0000000   0.0000000   0.0000000   0.0000000   0.0000000
 NMagM=    0.0000000   0.0000000   0.0000000   0.0000000   0.0000000   0.0000000   0.0000000   2.7928460   2.7928460   2.7928460
 AtZNuc=   6.0000000   6.0000000   6.0000000   6.0000000   6.0000000   6.0000000   6.0000000   1.0000000   1.0000000   1.0000000

  Atom        21          22          23          24          25          26          27
 IAtWgt=           1           1           1           1           1           1           1
 AtmWgt=   1.0078250   1.0078250   1.0078250   1.0078250   1.0078250   1.0078250   1.0078250
 NucSpn=           1           1           1           1           1           1           1
 AtZEff=   0.0000000   0.0000000   0.0000000   0.0000000   0.0000000   0.0000000   0.0000000
 NQMom=    0.0000000   0.0000000   0.0000000   0.0000000   0.0000000   0.0000000   0.0000000
 NMagM=    2.7928460   2.7928460   2.7928460   2.7928460   2.7928460   2.7928460   2.7928460
 AtZNuc=   1.0000000   1.0000000   1.0000000   1.0000000   1.0000000   1.0000000   1.0000000
 Leave Link  101 at Mon Apr 27 15:33:30 2015, MaxMem=   524288000 cpu:         2.0
 (Enter /opt/g09/l103.exe)

 GradGradGradGradGradGradGradGradGradGradGradGradGradGradGradGradGradGrad
 Berny optimization.
 Initialization pass.
                           ----------------------------
                           !    Initial Parameters    !
                           ! (Angstroms and Degrees)  !
 --------------------------                            --------------------------
 ! Name  Definition              Value          Derivative Info.                !
 --------------------------------------------------------------------------------
 ! R1    R(1,2)                  1.4682         calculate D2E/DX2 analytically  !
 ! R2    R(1,3)                  1.3592         calculate D2E/DX2 analytically  !
 ! R3    R(1,4)                  1.3594         calculate D2E/DX2 analytically  !
 ! R4    R(2,5)                  1.3546         calculate D2E/DX2 analytically  !
 ! R5    R(2,6)                  1.4607         calculate D2E/DX2 analytically  !
 ! R6    R(3,14)                 1.367          calculate D2E/DX2 analytically  !
 ! R7    R(4,11)                 1.464          calculate D2E/DX2 analytically  !
 ! R8    R(4,18)                 1.0812         calculate D2E/DX2 analytically  !
 ! R9    R(5,7)                  1.4486         calculate D2E/DX2 analytically  !
 ! R10   R(5,19)                 1.087          calculate D2E/DX2 analytically  !
 ! R11   R(6,11)                 1.4273         calculate D2E/DX2 analytically  !
 ! R12   R(6,12)                 1.3931         calculate D2E/DX2 analytically  !
 ! R13   R(7,14)                 1.415          calculate D2E/DX2 analytically  !
 ! R14   R(7,15)                 1.4096         calculate D2E/DX2 analytically  !
 ! R15   R(8,9)                  1.4029         calculate D2E/DX2 analytically  !
 ! R16   R(8,10)                 1.3924         calculate D2E/DX2 analytically  !
 ! R17   R(8,20)                 1.0855         calculate D2E/DX2 analytically  !
 ! R18   R(9,15)                 1.3893         calculate D2E/DX2 analytically  !
 ! R19   R(9,21)                 1.085          calculate D2E/DX2 analytically  !
 ! R20   R(10,14)                1.3961         calculate D2E/DX2 analytically  !
 ! R21   R(10,22)                1.0848         calculate D2E/DX2 analytically  !
 ! R22   R(11,13)                1.3973         calculate D2E/DX2 analytically  !
 ! R23   R(12,16)                1.3998         calculate D2E/DX2 analytically  !
 ! R24   R(12,23)                1.0869         calculate D2E/DX2 analytically  !
 ! R25   R(13,17)                1.4            calculate D2E/DX2 analytically  !
 ! R26   R(13,24)                1.0863         calculate D2E/DX2 analytically  !
 ! R27   R(15,25)                1.0867         calculate D2E/DX2 analytically  !
 ! R28   R(16,17)                1.4018         calculate D2E/DX2 analytically  !
 ! R29   R(16,26)                1.0854         calculate D2E/DX2 analytically  !
 ! R30   R(17,27)                1.0863         calculate D2E/DX2 analytically  !
 ! A1    A(2,1,3)              121.3762         calculate D2E/DX2 analytically  !
 ! A2    A(2,1,4)              111.4527         calculate D2E/DX2 analytically  !
 ! A3    A(3,1,4)              127.1711         calculate D2E/DX2 analytically  !
 ! A4    A(1,2,5)              119.7344         calculate D2E/DX2 analytically  !
 ! A5    A(1,2,6)              105.4924         calculate D2E/DX2 analytically  !
 ! A6    A(5,2,6)              134.7732         calculate D2E/DX2 analytically  !
 ! A7    A(1,3,14)             119.037          calculate D2E/DX2 analytically  !
 ! A8    A(1,4,11)             106.7912         calculate D2E/DX2 analytically  !
 ! A9    A(1,4,18)             126.9691         calculate D2E/DX2 analytically  !
 ! A10   A(11,4,18)            126.2396         calculate D2E/DX2 analytically  !
 ! A11   A(2,5,7)              118.6644         calculate D2E/DX2 analytically  !
 ! A12   A(2,5,19)             122.2808         calculate D2E/DX2 analytically  !
 ! A13   A(7,5,19)             119.0548         calculate D2E/DX2 analytically  !
 ! A14   A(2,6,11)             106.8595         calculate D2E/DX2 analytically  !
 ! A15   A(2,6,12)             132.0664         calculate D2E/DX2 analytically  !
 ! A16   A(11,6,12)            121.0742         calculate D2E/DX2 analytically  !
 ! A17   A(5,7,14)             119.1392         calculate D2E/DX2 analytically  !
 ! A18   A(5,7,15)             122.9915         calculate D2E/DX2 analytically  !
 ! A19   A(14,7,15)            117.8694         calculate D2E/DX2 analytically  !
 ! A20   A(9,8,10)             120.5375         calculate D2E/DX2 analytically  !
 ! A21   A(9,8,20)             120.0471         calculate D2E/DX2 analytically  !
 ! A22   A(10,8,20)            119.4155         calculate D2E/DX2 analytically  !
 ! A23   A(8,9,15)             119.7212         calculate D2E/DX2 analytically  !
 ! A24   A(8,9,21)             120.1437         calculate D2E/DX2 analytically  !
 ! A25   A(15,9,21)            120.1351         calculate D2E/DX2 analytically  !
 ! A26   A(8,10,14)            119.4206         calculate D2E/DX2 analytically  !
 ! A27   A(8,10,22)            121.6967         calculate D2E/DX2 analytically  !
 ! A28   A(14,10,22)           118.8827         calculate D2E/DX2 analytically  !
 ! A29   A(4,11,6)             109.4042         calculate D2E/DX2 analytically  !
 ! A30   A(4,11,13)            131.0542         calculate D2E/DX2 analytically  !
 ! A31   A(6,11,13)            119.5416         calculate D2E/DX2 analytically  !
 ! A32   A(6,12,16)            118.8372         calculate D2E/DX2 analytically  !
 ! A33   A(6,12,23)            120.9265         calculate D2E/DX2 analytically  !
 ! A34   A(16,12,23)           120.2362         calculate D2E/DX2 analytically  !
 ! A35   A(11,13,17)           118.9447         calculate D2E/DX2 analytically  !
 ! A36   A(11,13,24)           120.7568         calculate D2E/DX2 analytically  !
 ! A37   A(17,13,24)           120.2985         calculate D2E/DX2 analytically  !
 ! A38   A(3,14,7)             122.0488         calculate D2E/DX2 analytically  !
 ! A39   A(3,14,10)            116.6783         calculate D2E/DX2 analytically  !
 ! A40   A(7,14,10)            121.2729         calculate D2E/DX2 analytically  !
 ! A41   A(7,15,9)             121.1785         calculate D2E/DX2 analytically  !
 ! A42   A(7,15,25)            118.4978         calculate D2E/DX2 analytically  !
 ! A43   A(9,15,25)            120.3236         calculate D2E/DX2 analytically  !
 ! A44   A(12,16,17)           120.2883         calculate D2E/DX2 analytically  !
 ! A45   A(12,16,26)           119.892          calculate D2E/DX2 analytically  !
 ! A46   A(17,16,26)           119.8197         calculate D2E/DX2 analytically  !
 ! A47   A(13,17,16)           121.3141         calculate D2E/DX2 analytically  !
 ! A48   A(13,17,27)           119.3519         calculate D2E/DX2 analytically  !
 ! A49   A(16,17,27)           119.3339         calculate D2E/DX2 analytically  !
 ! D1    D(3,1,2,5)             -0.0059         calculate D2E/DX2 analytically  !
 ! D2    D(3,1,2,6)            179.9995         calculate D2E/DX2 analytically  !
 ! D3    D(4,1,2,5)            179.9914         calculate D2E/DX2 analytically  !
 ! D4    D(4,1,2,6)             -0.0032         calculate D2E/DX2 analytically  !
 ! D5    D(2,1,3,14)             0.0006         calculate D2E/DX2 analytically  !
 ! D6    D(4,1,3,14)          -179.9962         calculate D2E/DX2 analytically  !
 ! D7    D(2,1,4,11)             0.0021         calculate D2E/DX2 analytically  !
 ! D8    D(2,1,4,18)          -179.9971         calculate D2E/DX2 analytically  !
 ! D9    D(3,1,4,11)           179.9992         calculate D2E/DX2 analytically  !
 ! D10   D(3,1,4,18)             0.0001         calculate D2E/DX2 analytically  !
 ! D11   D(1,2,5,7)              0.007          calculate D2E/DX2 analytically  !
 ! D12   D(1,2,5,19)          -179.9925         calculate D2E/DX2 analytically  !
 ! D13   D(6,2,5,7)            179.9997         calculate D2E/DX2 analytically  !
 ! D14   D(6,2,5,19)             0.0001         calculate D2E/DX2 analytically  !
 ! D15   D(1,2,6,11)             0.003          calculate D2E/DX2 analytically  !
 ! D16   D(1,2,6,12)          -179.9957         calculate D2E/DX2 analytically  !
 ! D17   D(5,2,6,11)          -179.9904         calculate D2E/DX2 analytically  !
 ! D18   D(5,2,6,12)             0.0109         calculate D2E/DX2 analytically  !
 ! D19   D(1,3,14,7)             0.0032         calculate D2E/DX2 analytically  !
 ! D20   D(1,3,14,10)         -179.9978         calculate D2E/DX2 analytically  !
 ! D21   D(1,4,11,6)            -0.0001         calculate D2E/DX2 analytically  !
 ! D22   D(1,4,11,13)          179.9984         calculate D2E/DX2 analytically  !
 ! D23   D(18,4,11,6)          179.999          calculate D2E/DX2 analytically  !
 ! D24   D(18,4,11,13)          -0.0024         calculate D2E/DX2 analytically  !
 ! D25   D(2,5,7,14)            -0.0033         calculate D2E/DX2 analytically  !
 ! D26   D(2,5,7,15)           179.9952         calculate D2E/DX2 analytically  !
 ! D27   D(19,5,7,14)          179.9962         calculate D2E/DX2 analytically  !
 ! D28   D(19,5,7,15)           -0.0053         calculate D2E/DX2 analytically  !
 ! D29   D(2,6,11,4)            -0.0019         calculate D2E/DX2 analytically  !
 ! D30   D(2,6,11,13)          179.9994         calculate D2E/DX2 analytically  !
 ! D31   D(12,6,11,4)          179.997          calculate D2E/DX2 analytically  !
 ! D32   D(12,6,11,13)          -0.0017         calculate D2E/DX2 analytically  !
 ! D33   D(2,6,12,16)          179.9997         calculate D2E/DX2 analytically  !
 ! D34   D(2,6,12,23)            0.001          calculate D2E/DX2 analytically  !
 ! D35   D(11,6,12,16)           0.0012         calculate D2E/DX2 analytically  !
 ! D36   D(11,6,12,23)        -179.9975         calculate D2E/DX2 analytically  !
 ! D37   D(5,7,14,3)            -0.002          calculate D2E/DX2 analytically  !
 ! D38   D(5,7,14,10)          179.9991         calculate D2E/DX2 analytically  !
 ! D39   D(15,7,14,3)          179.9994         calculate D2E/DX2 analytically  !
 ! D40   D(15,7,14,10)           0.0005         calculate D2E/DX2 analytically  !
 ! D41   D(5,7,15,9)          -179.9985         calculate D2E/DX2 analytically  !
 ! D42   D(5,7,15,25)            0.0012         calculate D2E/DX2 analytically  !
 ! D43   D(14,7,15,9)            0.0            calculate D2E/DX2 analytically  !
 ! D44   D(14,7,15,25)         179.9997         calculate D2E/DX2 analytically  !
 ! D45   D(10,8,9,15)           -0.0007         calculate D2E/DX2 analytically  !
 ! D46   D(10,8,9,21)         -179.9996         calculate D2E/DX2 analytically  !
 ! D47   D(20,8,9,15)          179.9992         calculate D2E/DX2 analytically  !
 ! D48   D(20,8,9,21)            0.0003         calculate D2E/DX2 analytically  !
 ! D49   D(9,8,10,14)            0.0012         calculate D2E/DX2 analytically  !
 ! D50   D(9,8,10,22)          179.9995         calculate D2E/DX2 analytically  !
 ! D51   D(20,8,10,14)        -179.9988         calculate D2E/DX2 analytically  !
 ! D52   D(20,8,10,22)          -0.0005         calculate D2E/DX2 analytically  !
 ! D53   D(8,9,15,7)             0.0001         calculate D2E/DX2 analytically  !
 ! D54   D(8,9,15,25)         -179.9996         calculate D2E/DX2 analytically  !
 ! D55   D(21,9,15,7)          179.999          calculate D2E/DX2 analytically  !
 ! D56   D(21,9,15,25)          -0.0007         calculate D2E/DX2 analytically  !
 ! D57   D(8,10,14,3)          179.9999         calculate D2E/DX2 analytically  !
 ! D58   D(8,10,14,7)           -0.0011         calculate D2E/DX2 analytically  !
 ! D59   D(22,10,14,3)           0.0016         calculate D2E/DX2 analytically  !
 ! D60   D(22,10,14,7)        -179.9994         calculate D2E/DX2 analytically  !
 ! D61   D(4,11,13,17)        -179.9975         calculate D2E/DX2 analytically  !
 ! D62   D(4,11,13,24)           0.0017         calculate D2E/DX2 analytically  !
 ! D63   D(6,11,13,17)           0.0009         calculate D2E/DX2 analytically  !
 ! D64   D(6,11,13,24)        -179.9999         calculate D2E/DX2 analytically  !
 ! D65   D(6,12,16,17)           0.0002         calculate D2E/DX2 analytically  !
 ! D66   D(6,12,16,26)        -179.999          calculate D2E/DX2 analytically  !
 ! D67   D(23,12,16,17)        179.9988         calculate D2E/DX2 analytically  !
 ! D68   D(23,12,16,26)         -0.0003         calculate D2E/DX2 analytically  !
 ! D69   D(11,13,17,16)          0.0004         calculate D2E/DX2 analytically  !
 ! D70   D(11,13,17,27)        179.9987         calculate D2E/DX2 analytically  !
 ! D71   D(24,13,17,16)       -179.9988         calculate D2E/DX2 analytically  !
 ! D72   D(24,13,17,27)         -0.0005         calculate D2E/DX2 analytically  !
 ! D73   D(12,16,17,13)         -0.001          calculate D2E/DX2 analytically  !
 ! D74   D(12,16,17,27)       -179.9993         calculate D2E/DX2 analytically  !
 ! D75   D(26,16,17,13)        179.9982         calculate D2E/DX2 analytically  !
 ! D76   D(26,16,17,27)         -0.0001         calculate D2E/DX2 analytically  !
 --------------------------------------------------------------------------------
 Trust Radius=3.00D-01 FncErr=1.00D-07 GrdErr=1.00D-06
 Number of steps in this run=    162 maximum allowed number of steps=    162.
 GradGradGradGradGradGradGradGradGradGradGradGradGradGradGradGradGradGrad

 Leave Link  103 at Mon Apr 27 15:33:31 2015, MaxMem=   524288000 cpu:         0.1
 (Enter /opt/g09/l202.exe)
                          Input orientation:                          
 ---------------------------------------------------------------------
 Center     Atomic      Atomic             Coordinates (Angstroms)
 Number     Number       Type             X           Y           Z
 ---------------------------------------------------------------------
      1          6           0        4.124480    3.084630   -0.072640
      2          6           0        4.088310    1.616970   -0.092570
      3          8           0        5.301480    3.763910   -0.097760
      4          6           0        2.872480    3.612240   -0.028090
      5          6           0        5.247100    0.916910   -0.137010
      6          6           0        2.672120    1.261050   -0.055730
      7          6           0        6.498670    1.645790   -0.163600
      8          6           0        8.877910    3.148720   -0.212400
      9          6           0        8.933710    1.747100   -0.234190
     10          6           0        7.652010    3.807310   -0.166680
     11          6           0        1.938600    2.484850   -0.016570
     12          6           0        2.018670    0.030680   -0.053910
     13          6           0        0.542280    2.450170    0.024250
     14          6           0        6.472760    3.060420   -0.142510
     15          6           0        7.756050    1.010420   -0.209930
     16          6           0        0.619680    0.009300   -0.012810
     17          6           0       -0.104910    1.208700    0.025710
     18          1           0        2.609110    4.660670   -0.005350
     19          1           0        5.268600   -0.169720   -0.153320
     20          1           0        9.794760    3.729530   -0.231170
     21          1           0        9.892490    1.240480   -0.269820
     22          1           0        7.586950    4.890040   -0.149190
     23          1           0        2.579640   -0.899790   -0.083740
     24          1           0       -0.035590    3.369480    0.054460
     25          1           0        7.787860   -0.075710   -0.226470
     26          1           0        0.093000   -0.939800   -0.010720
     27          1           0       -1.190240    1.174020    0.057350
 ---------------------------------------------------------------------
                    Distance matrix (angstroms):
                    1          2          3          4          5
     1  C    0.000000
     2  C    1.468241   0.000000
     3  O    1.359184   2.466001   0.000000
     4  C    1.359361   2.337414   2.434728   0.000000
     5  C    2.442013   1.354568   2.847790   3.593812   0.000000
     6  C    2.331326   1.460695   3.630373   2.359873   2.599146
     7  C    2.777645   2.411579   2.433933   4.127292   1.448586
     8  C    4.755916   5.029999   3.630765   6.026111   4.262563
     9  C    4.994375   4.849216   4.156829   6.345056   3.780179
    10  C    3.602024   4.183663   2.351941   4.785516   3.760171
    11  C    2.267367   2.319535   3.598826   1.463992   3.663211
    12  C    3.709636   2.607915   4.971496   3.682014   3.348891
    13  C    3.639242   3.644475   4.938703   2.604415   4.950982
    14  C    2.349444   2.787767   1.367040   3.644120   2.469192
    15  C    4.184435   3.719408   3.690420   5.536406   2.511751
    16  C    4.663138   3.823919   6.001963   4.249296   4.717223
    17  C    4.627799   4.214709   5.981087   3.826846   5.362428
    18  H    2.187413   3.385225   2.839291   1.081243   4.581710
    19  H    3.450553   2.142204   3.934160   4.478872   1.086965
    20  H    5.709037   6.086517   4.495392   6.926251   5.347982
    21  H    6.058854   5.819078   5.241629   7.413786   4.658539
    22  H    3.905645   4.791312   2.548369   4.886069   4.610944
    23  H    4.273436   2.934322   5.399880   4.521865   3.227782
    24  H    4.171747   4.483242   5.353790   2.919352   5.827399
    25  H    4.840637   4.070598   4.576170   6.148275   2.729241
    26  H    5.696727   4.744078   7.018599   5.333562   5.479787
    27  H    5.649210   5.299224   6.990995   4.738978   6.445404
                    6          7          8          9         10
     6  C    0.000000
     7  C    3.847356   0.000000
     8  C    6.488426   2.814598   0.000000
     9  C    6.282961   2.438169   1.402900   0.000000
    10  C    5.594198   2.449974   1.392358   2.427298   0.000000
    11  C    1.427330   4.638952   6.973743   7.037272   5.866386
    12  C    1.393130   4.763508   7.536343   7.127158   6.783080
    13  C    2.440619   6.013393   8.368196   8.424797   7.240618
    14  C    4.205963   1.415024   2.407785   2.790966   1.396087
    15  C    5.092439   1.409555   2.414726   1.389305   2.799159
    16  C    2.404419   6.104372   8.837090   8.496591   7.993886
    17  C    2.778717   6.620737   9.193010   9.058370   8.182884
    18  H    3.400577   4.923741   6.451877   6.967196   5.117137
    19  H    2.966199   2.193001   4.903331   4.136879   4.636549
    20  H    7.540303   3.900096   1.085498   2.161353   2.145131
    21  H    7.223573   3.419587   2.161955   1.084985   3.408666
    22  H    6.110144   3.421947   2.168587   3.420389   1.084824
    23  H    2.162999   4.673880   7.488337   6.884974   6.920448
    24  H    3.433557   6.761302   8.920226   9.119418   7.703233
    25  H    5.290262   2.151633   3.403727   2.153060   3.885856
    26  H    3.390815   6.909505   9.691817   9.242701   8.927374
    27  H    3.864995   7.706538  10.263520  10.144347   9.228748
                   11         12         13         14         15
    11  C    0.000000
    12  C    2.455760   0.000000
    13  C    1.397347   2.835449   0.000000
    14  C    4.572280   5.387587   5.964127   0.000000
    15  C    6.004503   5.822522   7.359769   2.419479   0.000000
    16  C    2.804980   1.399757   2.442378   6.601871   7.208944
    17  C    2.409622   2.429745   1.400037   6.835416   7.866990
    18  H    2.276818   4.667739   3.026379   4.184185   6.313253
    19  H    4.260791   3.257620   5.406797   3.447307   2.753787
    20  H    7.957043   8.612810   9.344003   3.389875   3.398580
    21  H    8.054623   7.969145   9.432723   3.875944   2.149626
    22  H    6.140552   7.391089   7.457240   2.142189   3.883779
    23  H    3.445465   1.086900   3.922337   5.553656   5.519062
    24  H    2.164496   3.921647   1.086268   6.518661   8.145227
    25  H    6.388612   5.772751   7.677328   3.401742   1.086722
    26  H    3.890309   2.156827   3.419791   7.531299   7.909828
    27  H    3.393137   3.408329   2.152041   7.894303   8.951777
                   16         17         18         19         20
    16  C    0.000000
    17  C    1.401811   0.000000
    18  H    5.058965   4.391237   0.000000
    19  H    4.654487   5.550379   5.516108   0.000000
    20  H    9.903024  10.218808   7.249247   5.974641   0.000000
    21  H    9.357717  10.001818   8.050793   4.835555   2.491268
    22  H    8.507824   8.529218   4.985197   5.565603   2.495582
    23  H    2.161694   3.415336   5.561091   2.787176   8.573815
    24  H    3.424137   2.162083   2.943669   6.379933   9.841087
    25  H    7.171867   8.000570   7.021513   2.522074   4.302037
    26  H    1.085443   2.157904   6.139715   5.234519  10.769187
    27  H    2.153440   1.086345   5.157104   6.600502  11.282026
                   21         22         23         24         25
    21  H    0.000000
    22  H    4.318490   0.000000
    23  H    7.621887   7.655036   0.000000
    24  H   10.158965   7.775390   5.008512   0.000000
    25  H    2.482681   4.970413   5.274944   8.553048   0.000000
    26  H   10.042448   9.495551   2.488034   4.311691   7.746229
    27  H   11.087757   9.533652   4.304949   2.480578   9.069105
                   26         27
    26  H    0.000000
    27  H    2.473777   0.000000
 Symmetry turned off by external request.
 Stoichiometry    C16H10O
 Framework group  C1[X(C16H10O)]
 Deg. of freedom    75
 Full point group                 C1      NOp   1
 Rotational constants (GHZ):      1.6403938      0.2686629      0.2308538
 Leave Link  202 at Mon Apr 27 15:33:31 2015, MaxMem=   524288000 cpu:         0.0
 (Enter /opt/g09/l301.exe)
 Standard basis: 6-311+G(d,p) (5D, 7F)
 Ernie: Thresh=  0.10000D-02 Tol=  0.10000D-05 Strict=F.
 AO basis set in the form of general basis input (Overlap normalization):
      1 0
 S   6 1.00       0.000000000000
      0.4563240000D+04  0.1966650249D-02
      0.6820240000D+03  0.1523060193D-01
      0.1549730000D+03  0.7612690966D-01
      0.4445530000D+02  0.2608010331D+00
      0.1302900000D+02  0.6164620782D+00
      0.1827730000D+01  0.2210060280D+00
 SP   3 1.00       0.000000000000
      0.2096420000D+02  0.1146600807D+00  0.4024869267D-01
      0.4803310000D+01  0.9199996477D+00  0.2375939567D+00
      0.1459330000D+01 -0.3030682134D-02  0.8158538515D+00
 SP   1 1.00       0.000000000000
      0.4834560000D+00  0.1000000000D+01  0.1000000000D+01
 SP   1 1.00       0.000000000000
      0.1455850000D+00  0.1000000000D+01  0.1000000000D+01
 SP   1 1.00       0.000000000000
      0.4380000000D-01  0.1000000000D+01  0.1000000000D+01
 D   1 1.00       0.000000000000
      0.6260000000D+00  0.1000000000D+01
 ****
      2 0
 S   6 1.00       0.000000000000
      0.4563240000D+04  0.1966650249D-02
      0.6820240000D+03  0.1523060193D-01
      0.1549730000D+03  0.7612690966D-01
      0.4445530000D+02  0.2608010331D+00
      0.1302900000D+02  0.6164620782D+00
      0.1827730000D+01  0.2210060280D+00
 SP   3 1.00       0.000000000000
      0.2096420000D+02  0.1146600807D+00  0.4024869267D-01
      0.4803310000D+01  0.9199996477D+00  0.2375939567D+00
      0.1459330000D+01 -0.3030682134D-02  0.8158538515D+00
 SP   1 1.00       0.000000000000
      0.4834560000D+00  0.1000000000D+01  0.1000000000D+01
 SP   1 1.00       0.000000000000
      0.1455850000D+00  0.1000000000D+01  0.1000000000D+01
 SP   1 1.00       0.000000000000
      0.4380000000D-01  0.1000000000D+01  0.1000000000D+01
 D   1 1.00       0.000000000000
      0.6260000000D+00  0.1000000000D+01
 ****
      3 0
 S   6 1.00       0.000000000000
      0.8588500000D+04  0.1895150083D-02
      0.1297230000D+04  0.1438590063D-01
      0.2992960000D+03  0.7073200310D-01
      0.8737710000D+02  0.2400010105D+00
      0.2567890000D+02  0.5947970261D+00
      0.3740040000D+01  0.2808020123D+00
 SP   3 1.00       0.000000000000
      0.4211750000D+02  0.1138890124D+00  0.3651139738D-01
      0.9628370000D+01  0.9208111006D+00  0.2371529830D+00
      0.2853320000D+01 -0.3274470358D-02  0.8197019412D+00
 SP   1 1.00       0.000000000000
      0.9056610000D+00  0.1000000000D+01  0.1000000000D+01
 SP   1 1.00       0.000000000000
      0.2556110000D+00  0.1000000000D+01  0.1000000000D+01
 SP   1 1.00       0.000000000000
      0.8450000000D-01  0.1000000000D+01  0.1000000000D+01
 D   1 1.00       0.000000000000
      0.1292000000D+01  0.1000000000D+01
 ****
      4 0
 S   6 1.00       0.000000000000
      0.4563240000D+04  0.1966650249D-02
      0.6820240000D+03  0.1523060193D-01
      0.1549730000D+03  0.7612690966D-01
      0.4445530000D+02  0.2608010331D+00
      0.1302900000D+02  0.6164620782D+00
      0.1827730000D+01  0.2210060280D+00
 SP   3 1.00       0.000000000000
      0.2096420000D+02  0.1146600807D+00  0.4024869267D-01
      0.4803310000D+01  0.9199996477D+00  0.2375939567D+00
      0.1459330000D+01 -0.3030682134D-02  0.8158538515D+00
 SP   1 1.00       0.000000000000
      0.4834560000D+00  0.1000000000D+01  0.1000000000D+01
 SP   1 1.00       0.000000000000
      0.1455850000D+00  0.1000000000D+01  0.1000000000D+01
 SP   1 1.00       0.000000000000
      0.4380000000D-01  0.1000000000D+01  0.1000000000D+01
 D   1 1.00       0.000000000000
      0.6260000000D+00  0.1000000000D+01
 ****
      5 0
 S   6 1.00       0.000000000000
      0.4563240000D+04  0.1966650249D-02
      0.6820240000D+03  0.1523060193D-01
      0.1549730000D+03  0.7612690966D-01
      0.4445530000D+02  0.2608010331D+00
      0.1302900000D+02  0.6164620782D+00
      0.1827730000D+01  0.2210060280D+00
 SP   3 1.00       0.000000000000
      0.2096420000D+02  0.1146600807D+00  0.4024869267D-01
      0.4803310000D+01  0.9199996477D+00  0.2375939567D+00
      0.1459330000D+01 -0.3030682134D-02  0.8158538515D+00
 SP   1 1.00       0.000000000000
      0.4834560000D+00  0.1000000000D+01  0.1000000000D+01
 SP   1 1.00       0.000000000000
      0.1455850000D+00  0.1000000000D+01  0.1000000000D+01
 SP   1 1.00       0.000000000000
      0.4380000000D-01  0.1000000000D+01  0.1000000000D+01
 D   1 1.00       0.000000000000
      0.6260000000D+00  0.1000000000D+01
 ****
      6 0
 S   6 1.00       0.000000000000
      0.4563240000D+04  0.1966650249D-02
      0.6820240000D+03  0.1523060193D-01
      0.1549730000D+03  0.7612690966D-01
      0.4445530000D+02  0.2608010331D+00
      0.1302900000D+02  0.6164620782D+00
      0.1827730000D+01  0.2210060280D+00
 SP   3 1.00       0.000000000000
      0.2096420000D+02  0.1146600807D+00  0.4024869267D-01
      0.4803310000D+01  0.9199996477D+00  0.2375939567D+00
      0.1459330000D+01 -0.3030682134D-02  0.8158538515D+00
 SP   1 1.00       0.000000000000
      0.4834560000D+00  0.1000000000D+01  0.1000000000D+01
 SP   1 1.00       0.000000000000
      0.1455850000D+00  0.1000000000D+01  0.1000000000D+01
 SP   1 1.00       0.000000000000
      0.4380000000D-01  0.1000000000D+01  0.1000000000D+01
 D   1 1.00       0.000000000000
      0.6260000000D+00  0.1000000000D+01
 ****
      7 0
 S   6 1.00       0.000000000000
      0.4563240000D+04  0.1966650249D-02
      0.6820240000D+03  0.1523060193D-01
      0.1549730000D+03  0.7612690966D-01
      0.4445530000D+02  0.2608010331D+00
      0.1302900000D+02  0.6164620782D+00
      0.1827730000D+01  0.2210060280D+00
 SP   3 1.00       0.000000000000
      0.2096420000D+02  0.1146600807D+00  0.4024869267D-01
      0.4803310000D+01  0.9199996477D+00  0.2375939567D+00
      0.1459330000D+01 -0.3030682134D-02  0.8158538515D+00
 SP   1 1.00       0.000000000000
      0.4834560000D+00  0.1000000000D+01  0.1000000000D+01
 SP   1 1.00       0.000000000000
      0.1455850000D+00  0.1000000000D+01  0.1000000000D+01
 SP   1 1.00       0.000000000000
      0.4380000000D-01  0.1000000000D+01  0.1000000000D+01
 D   1 1.00       0.000000000000
      0.6260000000D+00  0.1000000000D+01
 ****
      8 0
 S   6 1.00       0.000000000000
      0.4563240000D+04  0.1966650249D-02
      0.6820240000D+03  0.1523060193D-01
      0.1549730000D+03  0.7612690966D-01
      0.4445530000D+02  0.2608010331D+00
      0.1302900000D+02  0.6164620782D+00
      0.1827730000D+01  0.2210060280D+00
 SP   3 1.00       0.000000000000
      0.2096420000D+02  0.1146600807D+00  0.4024869267D-01
      0.4803310000D+01  0.9199996477D+00  0.2375939567D+00
      0.1459330000D+01 -0.3030682134D-02  0.8158538515D+00
 SP   1 1.00       0.000000000000
      0.4834560000D+00  0.1000000000D+01  0.1000000000D+01
 SP   1 1.00       0.000000000000
      0.1455850000D+00  0.1000000000D+01  0.1000000000D+01
 SP   1 1.00       0.000000000000
      0.4380000000D-01  0.1000000000D+01  0.1000000000D+01
 D   1 1.00       0.000000000000
      0.6260000000D+00  0.1000000000D+01
 ****
      9 0
 S   6 1.00       0.000000000000
      0.4563240000D+04  0.1966650249D-02
      0.6820240000D+03  0.1523060193D-01
      0.1549730000D+03  0.7612690966D-01
      0.4445530000D+02  0.2608010331D+00
      0.1302900000D+02  0.6164620782D+00
      0.1827730000D+01  0.2210060280D+00
 SP   3 1.00       0.000000000000
      0.2096420000D+02  0.1146600807D+00  0.4024869267D-01
      0.4803310000D+01  0.9199996477D+00  0.2375939567D+00
      0.1459330000D+01 -0.3030682134D-02  0.8158538515D+00
 SP   1 1.00       0.000000000000
      0.4834560000D+00  0.1000000000D+01  0.1000000000D+01
 SP   1 1.00       0.000000000000
      0.1455850000D+00  0.1000000000D+01  0.1000000000D+01
 SP   1 1.00       0.000000000000
      0.4380000000D-01  0.1000000000D+01  0.1000000000D+01
 D   1 1.00       0.000000000000
      0.6260000000D+00  0.1000000000D+01
 ****
     10 0
 S   6 1.00       0.000000000000
      0.4563240000D+04  0.1966650249D-02
      0.6820240000D+03  0.1523060193D-01
      0.1549730000D+03  0.7612690966D-01
      0.4445530000D+02  0.2608010331D+00
      0.1302900000D+02  0.6164620782D+00
      0.1827730000D+01  0.2210060280D+00
 SP   3 1.00       0.000000000000
      0.2096420000D+02  0.1146600807D+00  0.4024869267D-01
      0.4803310000D+01  0.9199996477D+00  0.2375939567D+00
      0.1459330000D+01 -0.3030682134D-02  0.8158538515D+00
 SP   1 1.00       0.000000000000
      0.4834560000D+00  0.1000000000D+01  0.1000000000D+01
 SP   1 1.00       0.000000000000
      0.1455850000D+00  0.1000000000D+01  0.1000000000D+01
 SP   1 1.00       0.000000000000
      0.4380000000D-01  0.1000000000D+01  0.1000000000D+01
 D   1 1.00       0.000000000000
      0.6260000000D+00  0.1000000000D+01
 ****
     11 0
 S   6 1.00       0.000000000000
      0.4563240000D+04  0.1966650249D-02
      0.6820240000D+03  0.1523060193D-01
      0.1549730000D+03  0.7612690966D-01
      0.4445530000D+02  0.2608010331D+00
      0.1302900000D+02  0.6164620782D+00
      0.1827730000D+01  0.2210060280D+00
 SP   3 1.00       0.000000000000
      0.2096420000D+02  0.1146600807D+00  0.4024869267D-01
      0.4803310000D+01  0.9199996477D+00  0.2375939567D+00
      0.1459330000D+01 -0.3030682134D-02  0.8158538515D+00
 SP   1 1.00       0.000000000000
      0.4834560000D+00  0.1000000000D+01  0.1000000000D+01
 SP   1 1.00       0.000000000000
      0.1455850000D+00  0.1000000000D+01  0.1000000000D+01
 SP   1 1.00       0.000000000000
      0.4380000000D-01  0.1000000000D+01  0.1000000000D+01
 D   1 1.00       0.000000000000
      0.6260000000D+00  0.1000000000D+01
 ****
     12 0
 S   6 1.00       0.000000000000
      0.4563240000D+04  0.1966650249D-02
      0.6820240000D+03  0.1523060193D-01
      0.1549730000D+03  0.7612690966D-01
      0.4445530000D+02  0.2608010331D+00
      0.1302900000D+02  0.6164620782D+00
      0.1827730000D+01  0.2210060280D+00
 SP   3 1.00       0.000000000000
      0.2096420000D+02  0.1146600807D+00  0.4024869267D-01
      0.4803310000D+01  0.9199996477D+00  0.2375939567D+00
      0.1459330000D+01 -0.3030682134D-02  0.8158538515D+00
 SP   1 1.00       0.000000000000
      0.4834560000D+00  0.1000000000D+01  0.1000000000D+01
 SP   1 1.00       0.000000000000
      0.1455850000D+00  0.1000000000D+01  0.1000000000D+01
 SP   1 1.00       0.000000000000
      0.4380000000D-01  0.1000000000D+01  0.1000000000D+01
 D   1 1.00       0.000000000000
      0.6260000000D+00  0.1000000000D+01
 ****
     13 0
 S   6 1.00       0.000000000000
      0.4563240000D+04  0.1966650249D-02
      0.6820240000D+03  0.1523060193D-01
      0.1549730000D+03  0.7612690966D-01
      0.4445530000D+02  0.2608010331D+00
      0.1302900000D+02  0.6164620782D+00
      0.1827730000D+01  0.2210060280D+00
 SP   3 1.00       0.000000000000
      0.2096420000D+02  0.1146600807D+00  0.4024869267D-01
      0.4803310000D+01  0.9199996477D+00  0.2375939567D+00
      0.1459330000D+01 -0.3030682134D-02  0.8158538515D+00
 SP   1 1.00       0.000000000000
      0.4834560000D+00  0.1000000000D+01  0.1000000000D+01
 SP   1 1.00       0.000000000000
      0.1455850000D+00  0.1000000000D+01  0.1000000000D+01
 SP   1 1.00       0.000000000000
      0.4380000000D-01  0.1000000000D+01  0.1000000000D+01
 D   1 1.00       0.000000000000
      0.6260000000D+00  0.1000000000D+01
 ****
     14 0
 S   6 1.00       0.000000000000
      0.4563240000D+04  0.1966650249D-02
      0.6820240000D+03  0.1523060193D-01
      0.1549730000D+03  0.7612690966D-01
      0.4445530000D+02  0.2608010331D+00
      0.1302900000D+02  0.6164620782D+00
      0.1827730000D+01  0.2210060280D+00
 SP   3 1.00       0.000000000000
      0.2096420000D+02  0.1146600807D+00  0.4024869267D-01
      0.4803310000D+01  0.9199996477D+00  0.2375939567D+00
      0.1459330000D+01 -0.3030682134D-02  0.8158538515D+00
 SP   1 1.00       0.000000000000
      0.4834560000D+00  0.1000000000D+01  0.1000000000D+01
 SP   1 1.00       0.000000000000
      0.1455850000D+00  0.1000000000D+01  0.1000000000D+01
 SP   1 1.00       0.000000000000
      0.4380000000D-01  0.1000000000D+01  0.1000000000D+01
 D   1 1.00       0.000000000000
      0.6260000000D+00  0.1000000000D+01
 ****
     15 0
 S   6 1.00       0.000000000000
      0.4563240000D+04  0.1966650249D-02
      0.6820240000D+03  0.1523060193D-01
      0.1549730000D+03  0.7612690966D-01
      0.4445530000D+02  0.2608010331D+00
      0.1302900000D+02  0.6164620782D+00
      0.1827730000D+01  0.2210060280D+00
 SP   3 1.00       0.000000000000
      0.2096420000D+02  0.1146600807D+00  0.4024869267D-01
      0.4803310000D+01  0.9199996477D+00  0.2375939567D+00
      0.1459330000D+01 -0.3030682134D-02  0.8158538515D+00
 SP   1 1.00       0.000000000000
      0.4834560000D+00  0.1000000000D+01  0.1000000000D+01
 SP   1 1.00       0.000000000000
      0.1455850000D+00  0.1000000000D+01  0.1000000000D+01
 SP   1 1.00       0.000000000000
      0.4380000000D-01  0.1000000000D+01  0.1000000000D+01
 D   1 1.00       0.000000000000
      0.6260000000D+00  0.1000000000D+01
 ****
     16 0
 S   6 1.00       0.000000000000
      0.4563240000D+04  0.1966650249D-02
      0.6820240000D+03  0.1523060193D-01
      0.1549730000D+03  0.7612690966D-01
      0.4445530000D+02  0.2608010331D+00
      0.1302900000D+02  0.6164620782D+00
      0.1827730000D+01  0.2210060280D+00
 SP   3 1.00       0.000000000000
      0.2096420000D+02  0.1146600807D+00  0.4024869267D-01
      0.4803310000D+01  0.9199996477D+00  0.2375939567D+00
      0.1459330000D+01 -0.3030682134D-02  0.8158538515D+00
 SP   1 1.00       0.000000000000
      0.4834560000D+00  0.1000000000D+01  0.1000000000D+01
 SP   1 1.00       0.000000000000
      0.1455850000D+00  0.1000000000D+01  0.1000000000D+01
 SP   1 1.00       0.000000000000
      0.4380000000D-01  0.1000000000D+01  0.1000000000D+01
 D   1 1.00       0.000000000000
      0.6260000000D+00  0.1000000000D+01
 ****
     17 0
 S   6 1.00       0.000000000000
      0.4563240000D+04  0.1966650249D-02
      0.6820240000D+03  0.1523060193D-01
      0.1549730000D+03  0.7612690966D-01
      0.4445530000D+02  0.2608010331D+00
      0.1302900000D+02  0.6164620782D+00
      0.1827730000D+01  0.2210060280D+00
 SP   3 1.00       0.000000000000
      0.2096420000D+02  0.1146600807D+00  0.4024869267D-01
      0.4803310000D+01  0.9199996477D+00  0.2375939567D+00
      0.1459330000D+01 -0.3030682134D-02  0.8158538515D+00
 SP   1 1.00       0.000000000000
      0.4834560000D+00  0.1000000000D+01  0.1000000000D+01
 SP   1 1.00       0.000000000000
      0.1455850000D+00  0.1000000000D+01  0.1000000000D+01
 SP   1 1.00       0.000000000000
      0.4380000000D-01  0.1000000000D+01  0.1000000000D+01
 D   1 1.00       0.000000000000
      0.6260000000D+00  0.1000000000D+01
 ****
     18 0
 S   3 1.00       0.000000000000
      0.3386500000D+02  0.2549381454D-01
      0.5094790000D+01  0.1903731086D+00
      0.1158790000D+01  0.8521614860D+00
 S   1 1.00       0.000000000000
      0.3258400000D+00  0.1000000000D+01
 S   1 1.00       0.000000000000
      0.1027410000D+00  0.1000000000D+01
 P   1 1.00       0.000000000000
      0.7500000000D+00  0.1000000000D+01
 ****
     19 0
 S   3 1.00       0.000000000000
      0.3386500000D+02  0.2549381454D-01
      0.5094790000D+01  0.1903731086D+00
      0.1158790000D+01  0.8521614860D+00
 S   1 1.00       0.000000000000
      0.3258400000D+00  0.1000000000D+01
 S   1 1.00       0.000000000000
      0.1027410000D+00  0.1000000000D+01
 P   1 1.00       0.000000000000
      0.7500000000D+00  0.1000000000D+01
 ****
     20 0
 S   3 1.00       0.000000000000
      0.3386500000D+02  0.2549381454D-01
      0.5094790000D+01  0.1903731086D+00
      0.1158790000D+01  0.8521614860D+00
 S   1 1.00       0.000000000000
      0.3258400000D+00  0.1000000000D+01
 S   1 1.00       0.000000000000
      0.1027410000D+00  0.1000000000D+01
 P   1 1.00       0.000000000000
      0.7500000000D+00  0.1000000000D+01
 ****
     21 0
 S   3 1.00       0.000000000000
      0.3386500000D+02  0.2549381454D-01
      0.5094790000D+01  0.1903731086D+00
      0.1158790000D+01  0.8521614860D+00
 S   1 1.00       0.000000000000
      0.3258400000D+00  0.1000000000D+01
 S   1 1.00       0.000000000000
      0.1027410000D+00  0.1000000000D+01
 P   1 1.00       0.000000000000
      0.7500000000D+00  0.1000000000D+01
 ****
     22 0
 S   3 1.00       0.000000000000
      0.3386500000D+02  0.2549381454D-01
      0.5094790000D+01  0.1903731086D+00
      0.1158790000D+01  0.8521614860D+00
 S   1 1.00       0.000000000000
      0.3258400000D+00  0.1000000000D+01
 S   1 1.00       0.000000000000
      0.1027410000D+00  0.1000000000D+01
 P   1 1.00       0.000000000000
      0.7500000000D+00  0.1000000000D+01
 ****
     23 0
 S   3 1.00       0.000000000000
      0.3386500000D+02  0.2549381454D-01
      0.5094790000D+01  0.1903731086D+00
      0.1158790000D+01  0.8521614860D+00
 S   1 1.00       0.000000000000
      0.3258400000D+00  0.1000000000D+01
 S   1 1.00       0.000000000000
      0.1027410000D+00  0.1000000000D+01
 P   1 1.00       0.000000000000
      0.7500000000D+00  0.1000000000D+01
 ****
     24 0
 S   3 1.00       0.000000000000
      0.3386500000D+02  0.2549381454D-01
      0.5094790000D+01  0.1903731086D+00
      0.1158790000D+01  0.8521614860D+00
 S   1 1.00       0.000000000000
      0.3258400000D+00  0.1000000000D+01
 S   1 1.00       0.000000000000
      0.1027410000D+00  0.1000000000D+01
 P   1 1.00       0.000000000000
      0.7500000000D+00  0.1000000000D+01
 ****
     25 0
 S   3 1.00       0.000000000000
      0.3386500000D+02  0.2549381454D-01
      0.5094790000D+01  0.1903731086D+00
      0.1158790000D+01  0.8521614860D+00
 S   1 1.00       0.000000000000
      0.3258400000D+00  0.1000000000D+01
 S   1 1.00       0.000000000000
      0.1027410000D+00  0.1000000000D+01
 P   1 1.00       0.000000000000
      0.7500000000D+00  0.1000000000D+01
 ****
     26 0
 S   3 1.00       0.000000000000
      0.3386500000D+02  0.2549381454D-01
      0.5094790000D+01  0.1903731086D+00
      0.1158790000D+01  0.8521614860D+00
 S   1 1.00       0.000000000000
      0.3258400000D+00  0.1000000000D+01
 S   1 1.00       0.000000000000
      0.1027410000D+00  0.1000000000D+01
 P   1 1.00       0.000000000000
      0.7500000000D+00  0.1000000000D+01
 ****
     27 0
 S   3 1.00       0.000000000000
      0.3386500000D+02  0.2549381454D-01
      0.5094790000D+01  0.1903731086D+00
      0.1158790000D+01  0.8521614860D+00
 S   1 1.00       0.000000000000
      0.3258400000D+00  0.1000000000D+01
 S   1 1.00       0.000000000000
      0.1027410000D+00  0.1000000000D+01
 P   1 1.00       0.000000000000
      0.7500000000D+00  0.1000000000D+01
 ****

   434 basis functions,   692 primitive gaussians,   451 cartesian basis functions
    57 alpha electrons       57 beta electrons
       nuclear repulsion energy      1046.8244882342 Hartrees.
 IExCor= 1614 DFT=T Ex+Corr=B971 ExCW=0 ScaHFX=  0.210000
 ScaDFX=  1.000000  1.000000  1.000000  1.000000 ScalE2=  1.000000  1.000000
 IRadAn=      5 IRanWt=     -1 IRanGd=            0 ICorTp=0 IEmpDi=  4
 NAtoms=   27 NActive=   27 NUniq=   27 SFac= 1.00D+00 NAtFMM=   60 NAOKFM=F Big=F
 Integral buffers will be    131072 words long.
 Raffenetti 2 integral format.
 Two-electron integral symmetry is turned off.
 Leave Link  301 at Mon Apr 27 15:33:31 2015, MaxMem=   524288000 cpu:         0.7
 (Enter /opt/g09/l302.exe)
 NPDir=0 NMtPBC=     1 NCelOv=     1 NCel=       1 NClECP=     1 NCelD=      1
         NCelK=      1 NCelE2=     1 NClLst=     1 CellRange=     0.0.
 One-electron integrals computed using PRISM.
 NBasis=   434 RedAO= T EigKep=  1.17D-06  NBF=   434
 NBsUse=   428 1.00D-06 EigRej=  7.52D-07 NBFU=   428
 Precomputing XC quadrature grid using
 IXCGrd= 4 IRadAn=           5 IRanWt=          -1 IRanGd=           0 AccXCQ= 0.00D+00.
 Generated NRdTot=       0 NPtTot=           0 NUsed=           0 NTot=          32
 NSgBfM=   448   448   448   448   448 MxSgAt=    27 MxSgA2=    27.
 Leave Link  302 at Mon Apr 27 15:33:32 2015, MaxMem=   524288000 cpu:         6.3
 (Enter /opt/g09/l303.exe)
 DipDrv:  MaxL=1.
 Leave Link  303 at Mon Apr 27 15:33:32 2015, MaxMem=   524288000 cpu:         0.6
 (Enter /opt/g09/l401.exe)
 ExpMin= 4.38D-02 ExpMax= 8.59D+03 ExpMxC= 1.30D+03 IAcc=3 IRadAn=         5 AccDes= 0.00D+00
 Harris functional with IExCor= 1614 and IRadAn=       5 diagonalized for initial guess.
 HarFok:  IExCor= 1614 AccDes= 0.00D+00 IRadAn=         5 IDoV= 1 UseB2=F ITyADJ=14
 ICtDFT=  3500011 ScaDFX=  1.000000  1.000000  1.000000  1.000000
 FoFCou: FMM=F IPFlag=           0 FMFlag=      100000 FMFlg1=           0
         NFxFlg=           0 DoJE=T BraDBF=F KetDBF=T FulRan=T
         wScrn=  0.000000 ICntrl=     500 IOpCl=  0 I1Cent=   200000004 NGrid=           0
         NMat0=    1 NMatS0=      1 NMatT0=    0 NMatD0=    1 NMtDS0=    0 NMtDT0=    0
 Symmetry not used in FoFCou.
 Harris En= -671.320608986683    
 JPrj=0 DoOrth=F DoCkMO=T.
 Mixing orbitals, IMix= 1 IMixAn=  0 NRI=1 NE=   57 Coef=  7.07106781D-01  7.07106781D-01
 Leave Link  401 at Mon Apr 27 15:33:37 2015, MaxMem=   524288000 cpu:        44.6
 (Enter /opt/g09/l502.exe)
 Closed shell SCF:
 Using DIIS extrapolation, IDIIS=  1040.
 Two-electron integral symmetry not used.
 IVT=      635121 IEndB=      635121 NGot=   524288000 MDV=   523873372
 LenX=   523873372 LenY=   523669520
 Requested convergence on RMS density matrix=1.00D-08 within 128 cycles.
 Requested convergence on MAX density matrix=1.00D-06.
 Requested convergence on             energy=1.00D-06.
 No special actions if energy rises.
 Fock matrices will be formed incrementally for  20 cycles.

 Cycle   1  Pass 1  IDiag  1:
 FoFJK:  IHMeth= 1 ICntrl=       0 DoSepK=F KAlg= 0 I1Cent=   0 FoldK=F
 IRaf= 810000000 NMat=   1 IRICut=       1 DoRegI=T DoRafI=F ISym2E= 0.
 FoFCou: FMM=F IPFlag=           0 FMFlag=      100000 FMFlg1=           0
         NFxFlg=           0 DoJE=F BraDBF=F KetDBF=F FulRan=T
         wScrn=  0.000000 ICntrl=       0 IOpCl=  0 I1Cent=           0 NGrid=           0
         NMat0=    1 NMatS0=      1 NMatT0=    0 NMatD0=    1 NMtDS0=    0 NMtDT0=    0
 Symmetry not used in FoFCou.
 E= -690.409281310193    
 DIIS: error= 5.65D-02 at cycle   1 NSaved=   1.
 NSaved= 1 IEnMin= 1 EnMin= -690.409281310193     IErMin= 1 ErrMin= 5.65D-02
 ErrMax= 5.65D-02  0.00D+00 EMaxC= 1.00D-01 BMatC= 1.51D+00 BMatP= 1.51D+00
 IDIUse=3 WtCom= 4.35D-01 WtEn= 5.65D-01
 Coeff-Com:  0.100D+01
 Coeff-En:   0.100D+01
 Coeff:      0.100D+01
 Gap=    -0.115 Goal=   None    Shift=    0.000
 GapD=   -0.115 DampG=0.250 DampE=0.500 DampFc=0.2500 IDamp=-1.
 Damping current iteration by 2.50D-01
 RMSDP=1.32D-02 MaxDP=1.07D+00              OVMax= 5.15D-01

 Cycle   2  Pass 1  IDiag  1:
 RMSU=  3.17D-03    CP:  9.80D-01
 E= -690.567734565867     Delta-E=       -0.158453255674 Rises=F Damp=T
 DIIS: error= 4.03D-02 at cycle   2 NSaved=   2.
 NSaved= 2 IEnMin= 2 EnMin= -690.567734565867     IErMin= 2 ErrMin= 4.03D-02
 ErrMax= 4.03D-02  0.00D+00 EMaxC= 1.00D-01 BMatC= 6.77D-01 BMatP= 1.51D+00
 IDIUse=3 WtCom= 5.97D-01 WtEn= 4.03D-01
 Coeff-Com: -0.101D+01 0.201D+01
 Coeff-En:   0.000D+00 0.100D+01
 Coeff:     -0.605D+00 0.160D+01
 Gap=     0.163 Goal=   None    Shift=    0.000
 RMSDP=8.66D-03 MaxDP=6.73D-01 DE=-1.58D-01 OVMax= 6.66D-01

 Cycle   3  Pass 1  IDiag  1:
 RMSU=  5.42D-03    CP:  8.41D-01  5.18D-01
 E= -690.762552411921     Delta-E=       -0.194817846054 Rises=F Damp=F
 DIIS: error= 2.31D-02 at cycle   3 NSaved=   3.
 NSaved= 3 IEnMin= 3 EnMin= -690.762552411921     IErMin= 3 ErrMin= 2.31D-02
 ErrMax= 2.31D-02  0.00D+00 EMaxC= 1.00D-01 BMatC= 1.27D-01 BMatP= 6.77D-01
 IDIUse=3 WtCom= 7.69D-01 WtEn= 2.31D-01
 Coeff-Com: -0.603D+00 0.881D+00 0.722D+00
 Coeff-En:   0.000D+00 0.000D+00 0.100D+01
 Coeff:     -0.464D+00 0.677D+00 0.786D+00
 Gap=     0.102 Goal=   None    Shift=    0.000
 RMSDP=5.77D-03 MaxDP=2.57D-01 DE=-1.95D-01 OVMax= 3.26D-01

 Cycle   4  Pass 1  IDiag  1:
 RMSU=  3.09D-03    CP:  8.62D-01  1.80D+00  5.39D-01
 E= -690.813862152612     Delta-E=       -0.051309740691 Rises=F Damp=F
 DIIS: error= 2.26D-02 at cycle   4 NSaved=   4.
 NSaved= 4 IEnMin= 4 EnMin= -690.813862152612     IErMin= 4 ErrMin= 2.26D-02
 ErrMax= 2.26D-02  0.00D+00 EMaxC= 1.00D-01 BMatC= 8.32D-02 BMatP= 1.27D-01
 IDIUse=3 WtCom= 7.74D-01 WtEn= 2.26D-01
 Coeff-Com: -0.222D+00 0.325D+00 0.511D+00 0.386D+00
 Coeff-En:   0.000D+00 0.000D+00 0.417D+00 0.583D+00
 Coeff:     -0.172D+00 0.251D+00 0.490D+00 0.430D+00
 Gap=     0.123 Goal=   None    Shift=    0.000
 RMSDP=3.21D-03 MaxDP=1.30D-01 DE=-5.13D-02 OVMax= 1.48D-01

 Cycle   5  Pass 1  IDiag  1:
 RMSU=  9.55D-04    CP:  8.45D-01  1.17D+00  7.59D-01  4.20D-01
 E= -690.905300307886     Delta-E=       -0.091438155275 Rises=F Damp=F
 DIIS: error= 5.35D-03 at cycle   5 NSaved=   5.
 NSaved= 5 IEnMin= 5 EnMin= -690.905300307886     IErMin= 5 ErrMin= 5.35D-03
 ErrMax= 5.35D-03  0.00D+00 EMaxC= 1.00D-01 BMatC= 3.40D-03 BMatP= 8.32D-02
 IDIUse=3 WtCom= 9.47D-01 WtEn= 5.35D-02
 Coeff-Com: -0.136D-01 0.252D-01 0.189D+00 0.245D+00 0.554D+00
 Coeff-En:   0.000D+00 0.000D+00 0.000D+00 0.000D+00 0.100D+01
 Coeff:     -0.129D-01 0.239D-01 0.179D+00 0.232D+00 0.578D+00
 Gap=     0.116 Goal=   None    Shift=    0.000
 RMSDP=6.39D-04 MaxDP=2.59D-02 DE=-9.14D-02 OVMax= 2.81D-02

 Cycle   6  Pass 1  IDiag  1:
 RMSU=  3.65D-04    CP:  8.45D-01  1.20D+00  7.36D-01  5.47D-01  6.80D-01
 E= -690.908252636257     Delta-E=       -0.002952328371 Rises=F Damp=F
 DIIS: error= 2.57D-03 at cycle   6 NSaved=   6.
 NSaved= 6 IEnMin= 6 EnMin= -690.908252636257     IErMin= 6 ErrMin= 2.57D-03
 ErrMax= 2.57D-03  0.00D+00 EMaxC= 1.00D-01 BMatC= 6.74D-04 BMatP= 3.40D-03
 IDIUse=3 WtCom= 9.74D-01 WtEn= 2.57D-02
 Coeff-Com:  0.360D-01-0.494D-01 0.322D-02 0.472D-01 0.369D+00 0.594D+00
 Coeff-En:   0.000D+00 0.000D+00 0.000D+00 0.000D+00 0.187D+00 0.813D+00
 Coeff:      0.351D-01-0.481D-01 0.314D-02 0.460D-01 0.364D+00 0.600D+00
 Gap=     0.119 Goal=   None    Shift=    0.000
 RMSDP=2.26D-04 MaxDP=9.90D-03 DE=-2.95D-03 OVMax= 1.50D-02

 Cycle   7  Pass 1  IDiag  1:
 RMSU=  1.48D-04    CP:  8.44D-01  1.19D+00  7.41D-01  5.37D-01  7.83D-01
                    CP:  6.88D-01
 E= -690.908932776281     Delta-E=       -0.000680140024 Rises=F Damp=F
 DIIS: error= 9.71D-04 at cycle   7 NSaved=   7.
 NSaved= 7 IEnMin= 7 EnMin= -690.908932776281     IErMin= 7 ErrMin= 9.71D-04
 ErrMax= 9.71D-04  0.00D+00 EMaxC= 1.00D-01 BMatC= 1.23D-04 BMatP= 6.74D-04
 IDIUse=3 WtCom= 9.90D-01 WtEn= 9.71D-03
 Coeff-Com:  0.121D-01-0.172D-01-0.112D-01-0.720D-02 0.133D+00 0.370D+00
 Coeff-Com:  0.521D+00
 Coeff-En:   0.000D+00 0.000D+00 0.000D+00 0.000D+00 0.000D+00 0.113D+00
 Coeff-En:   0.887D+00
 Coeff:      0.120D-01-0.170D-01-0.110D-01-0.713D-02 0.132D+00 0.367D+00
 Coeff:      0.524D+00
 Gap=     0.119 Goal=   None    Shift=    0.000
 RMSDP=8.43D-05 MaxDP=4.29D-03 DE=-6.80D-04 OVMax= 4.79D-03

 Cycle   8  Pass 1  IDiag  1:
 RMSU=  6.32D-05    CP:  8.44D-01  1.18D+00  7.43D-01  5.39D-01  7.94D-01
                    CP:  7.60D-01  7.11D-01
 E= -690.909063512092     Delta-E=       -0.000130735812 Rises=F Damp=F
 DIIS: error= 1.44D-04 at cycle   8 NSaved=   8.
 NSaved= 8 IEnMin= 8 EnMin= -690.909063512092     IErMin= 8 ErrMin= 1.44D-04
 ErrMax= 1.44D-04  0.00D+00 EMaxC= 1.00D-01 BMatC= 8.54D-06 BMatP= 1.23D-04
 IDIUse=3 WtCom= 9.99D-01 WtEn= 1.44D-03
 Coeff-Com:  0.147D-02-0.221D-02-0.437D-02-0.952D-02 0.356D-01 0.141D+00
 Coeff-Com:  0.287D+00 0.551D+00
 Coeff-En:   0.000D+00 0.000D+00 0.000D+00 0.000D+00 0.000D+00 0.000D+00
 Coeff-En:   0.000D+00 0.100D+01
 Coeff:      0.147D-02-0.220D-02-0.437D-02-0.951D-02 0.356D-01 0.141D+00
 Coeff:      0.286D+00 0.551D+00
 Gap=     0.119 Goal=   None    Shift=    0.000
 RMSDP=2.88D-05 MaxDP=1.29D-03 DE=-1.31D-04 OVMax= 1.25D-03

 Cycle   9  Pass 1  IDiag  1:
 RMSU=  1.84D-05    CP:  8.44D-01  1.18D+00  7.43D-01  5.36D-01  8.03D-01
                    CP:  7.68D-01  7.61D-01  7.76D-01
 E= -690.909072264523     Delta-E=       -0.000008752431 Rises=F Damp=F
 DIIS: error= 8.47D-05 at cycle   9 NSaved=   9.
 NSaved= 9 IEnMin= 9 EnMin= -690.909072264523     IErMin= 9 ErrMin= 8.47D-05
 ErrMax= 8.47D-05  0.00D+00 EMaxC= 1.00D-01 BMatC= 9.93D-07 BMatP= 8.54D-06
 IDIUse=1 WtCom= 1.00D+00 WtEn= 0.00D+00
 Coeff-Com:  0.169D-03-0.269D-03-0.145D-02-0.479D-02 0.674D-02 0.404D-01
 Coeff-Com:  0.104D+00 0.292D+00 0.563D+00
 Coeff:      0.169D-03-0.269D-03-0.145D-02-0.479D-02 0.674D-02 0.404D-01
 Coeff:      0.104D+00 0.292D+00 0.563D+00
 Gap=     0.119 Goal=   None    Shift=    0.000
 RMSDP=8.92D-06 MaxDP=3.73D-04 DE=-8.75D-06 OVMax= 8.48D-04

 Cycle  10  Pass 1  IDiag  1:
 RMSU=  5.86D-06    CP:  8.44D-01  1.18D+00  7.43D-01  5.36D-01  8.03D-01
                    CP:  7.75D-01  7.69D-01  8.15D-01  7.03D-01
 E= -690.909073250776     Delta-E=       -0.000000986253 Rises=F Damp=F
 DIIS: error= 4.15D-05 at cycle  10 NSaved=  10.
 NSaved=10 IEnMin=10 EnMin= -690.909073250776     IErMin=10 ErrMin= 4.15D-05
 ErrMax= 4.15D-05  0.00D+00 EMaxC= 1.00D-01 BMatC= 3.34D-07 BMatP= 9.93D-07
 IDIUse=1 WtCom= 1.00D+00 WtEn= 0.00D+00
 Coeff-Com:  0.389D-04-0.339D-04 0.101D-04-0.970D-03-0.609D-02-0.123D-01
 Coeff-Com: -0.779D-02 0.429D-01 0.391D+00 0.594D+00
 Coeff:      0.389D-04-0.339D-04 0.101D-04-0.970D-03-0.609D-02-0.123D-01
 Coeff:     -0.779D-02 0.429D-01 0.391D+00 0.594D+00
 Gap=     0.119 Goal=   None    Shift=    0.000
 RMSDP=5.26D-06 MaxDP=2.45D-04 DE=-9.86D-07 OVMax= 3.03D-04

 Cycle  11  Pass 1  IDiag  1:
 RMSU=  3.86D-06    CP:  8.44D-01  1.18D+00  7.43D-01  5.36D-01  8.03D-01
                    CP:  7.77D-01  7.80D-01  8.39D-01  8.22D-01  8.39D-01
 E= -690.909073623144     Delta-E=       -0.000000372367 Rises=F Damp=F
 DIIS: error= 1.19D-05 at cycle  11 NSaved=  11.
 NSaved=11 IEnMin=11 EnMin= -690.909073623144     IErMin=11 ErrMin= 1.19D-05
 ErrMax= 1.19D-05  0.00D+00 EMaxC= 1.00D-01 BMatC= 3.74D-08 BMatP= 3.34D-07
 IDIUse=1 WtCom= 1.00D+00 WtEn= 0.00D+00
 Coeff-Com: -0.161D-04 0.393D-04 0.309D-03 0.184D-04-0.487D-02-0.130D-01
 Coeff-Com: -0.181D-01-0.122D-01 0.176D+00 0.359D+00 0.513D+00
 Coeff:     -0.161D-04 0.393D-04 0.309D-03 0.184D-04-0.487D-02-0.130D-01
 Coeff:     -0.181D-01-0.122D-01 0.176D+00 0.359D+00 0.513D+00
 Gap=     0.119 Goal=   None    Shift=    0.000
 RMSDP=1.61D-06 MaxDP=7.67D-05 DE=-3.72D-07 OVMax= 1.04D-04

 Cycle  12  Pass 1  IDiag  1:
 RMSU=  1.09D-06    CP:  8.44D-01  1.18D+00  7.43D-01  5.36D-01  8.03D-01
                    CP:  7.78D-01  7.82D-01  8.45D-01  8.44D-01  8.28D-01
                    CP:  8.21D-01
 E= -690.909073665669     Delta-E=       -0.000000042525 Rises=F Damp=F
 DIIS: error= 2.01D-06 at cycle  12 NSaved=  12.
 NSaved=12 IEnMin=12 EnMin= -690.909073665669     IErMin=12 ErrMin= 2.01D-06
 ErrMax= 2.01D-06  0.00D+00 EMaxC= 1.00D-01 BMatC= 1.50D-09 BMatP= 3.74D-08
 IDIUse=1 WtCom= 1.00D+00 WtEn= 0.00D+00
 Coeff-Com:  0.376D-05 0.393D-06 0.121D-03 0.516D-04-0.146D-02-0.404D-02
 Coeff-Com: -0.652D-02-0.950D-02 0.384D-01 0.880D-01 0.184D+00 0.711D+00
 Coeff:      0.376D-05 0.393D-06 0.121D-03 0.516D-04-0.146D-02-0.404D-02
 Coeff:     -0.652D-02-0.950D-02 0.384D-01 0.880D-01 0.184D+00 0.711D+00
 Gap=     0.119 Goal=   None    Shift=    0.000
 RMSDP=5.58D-07 MaxDP=2.41D-05 DE=-4.25D-08 OVMax= 2.90D-05

 Cycle  13  Pass 1  IDiag  1:
 RMSU=  3.59D-07    CP:  8.44D-01  1.18D+00  7.43D-01  5.36D-01  8.03D-01
                    CP:  7.78D-01  7.82D-01  8.45D-01  8.51D-01  8.51D-01
                    CP:  8.56D-01  8.51D-01
 E= -690.909073667155     Delta-E=       -0.000000001485 Rises=F Damp=F
 DIIS: error= 1.21D-06 at cycle  13 NSaved=  13.
 NSaved=13 IEnMin=13 EnMin= -690.909073667155     IErMin=13 ErrMin= 1.21D-06
 ErrMax= 1.21D-06  0.00D+00 EMaxC= 1.00D-01 BMatC= 3.71D-10 BMatP= 1.50D-09
 IDIUse=1 WtCom= 1.00D+00 WtEn= 0.00D+00
 Coeff-Com:  0.129D-05-0.656D-06 0.325D-04 0.183D-04-0.143D-03-0.435D-03
 Coeff-Com: -0.112D-02-0.360D-02-0.704D-03-0.197D-03 0.280D-01 0.405D+00
 Coeff-Com:  0.573D+00
 Coeff:      0.129D-05-0.656D-06 0.325D-04 0.183D-04-0.143D-03-0.435D-03
 Coeff:     -0.112D-02-0.360D-02-0.704D-03-0.197D-03 0.280D-01 0.405D+00
 Coeff:      0.573D+00
 Gap=     0.119 Goal=   None    Shift=    0.000
 RMSDP=2.01D-07 MaxDP=1.89D-05 DE=-1.49D-09 OVMax= 8.97D-06

 Cycle  14  Pass 1  IDiag  1:
 RMSU=  1.43D-07    CP:  8.44D-01  1.18D+00  7.43D-01  5.36D-01  8.03D-01
                    CP:  7.78D-01  7.82D-01  8.45D-01  8.52D-01  8.57D-01
                    CP:  8.58D-01  8.50D-01  9.16D-01
 E= -690.909073667546     Delta-E=       -0.000000000391 Rises=F Damp=F
 DIIS: error= 3.31D-07 at cycle  14 NSaved=  14.
 NSaved=14 IEnMin=14 EnMin= -690.909073667546     IErMin=14 ErrMin= 3.31D-07
 ErrMax= 3.31D-07  0.00D+00 EMaxC= 1.00D-01 BMatC= 2.95D-11 BMatP= 3.71D-10
 IDIUse=1 WtCom= 1.00D+00 WtEn= 0.00D+00
 Coeff-Com: -0.170D-06-0.137D-06-0.179D-05-0.942D-06 0.157D-03 0.402D-03
 Coeff-Com:  0.418D-03-0.303D-03-0.499D-02-0.130D-01-0.161D-01 0.858D-01
 Coeff-Com:  0.267D+00 0.681D+00
 Coeff:     -0.170D-06-0.137D-06-0.179D-05-0.942D-06 0.157D-03 0.402D-03
 Coeff:      0.418D-03-0.303D-03-0.499D-02-0.130D-01-0.161D-01 0.858D-01
 Coeff:      0.267D+00 0.681D+00
 Gap=     0.119 Goal=   None    Shift=    0.000
 RMSDP=9.60D-08 MaxDP=5.59D-06 DE=-3.91D-10 OVMax= 2.94D-06

 Cycle  15  Pass 1  IDiag  1:
 RMSU=  5.40D-08    CP:  8.44D-01  1.18D+00  7.43D-01  5.36D-01  8.03D-01
                    CP:  7.78D-01  7.82D-01  8.45D-01  8.53D-01  8.56D-01
                    CP:  8.70D-01  8.83D-01  9.30D-01  9.20D-01
 E= -690.909073667637     Delta-E=       -0.000000000091 Rises=F Damp=F
 DIIS: error= 1.50D-07 at cycle  15 NSaved=  15.
 NSaved=15 IEnMin=15 EnMin= -690.909073667637     IErMin=15 ErrMin= 1.50D-07
 ErrMax= 1.50D-07  0.00D+00 EMaxC= 1.00D-01 BMatC= 3.46D-12 BMatP= 2.95D-11
 IDIUse=1 WtCom= 1.00D+00 WtEn= 0.00D+00
 Coeff-Com:  0.127D-06-0.391D-06-0.249D-05 0.224D-07 0.864D-04 0.213D-03
 Coeff-Com:  0.228D-03-0.402D-04-0.251D-02-0.668D-02-0.101D-01 0.229D-01
 Coeff-Com:  0.103D+00 0.358D+00 0.535D+00
 Coeff:      0.127D-06-0.391D-06-0.249D-05 0.224D-07 0.864D-04 0.213D-03
 Coeff:      0.228D-03-0.402D-04-0.251D-02-0.668D-02-0.101D-01 0.229D-01
 Coeff:      0.103D+00 0.358D+00 0.535D+00
 Gap=     0.119 Goal=   None    Shift=    0.000
 RMSDP=1.94D-08 MaxDP=1.04D-06 DE=-9.14D-11 OVMax= 6.95D-07

 Cycle  16  Pass 1  IDiag  1:
 RMSU=  1.32D-08    CP:  8.44D-01  1.18D+00  7.43D-01  5.36D-01  8.03D-01
                    CP:  7.78D-01  7.82D-01  8.45D-01  8.53D-01  8.55D-01
                    CP:  8.69D-01  8.88D-01  9.38D-01  9.39D-01  8.44D-01
 E= -690.909073667639     Delta-E=       -0.000000000002 Rises=F Damp=F
 DIIS: error= 3.47D-08 at cycle  16 NSaved=  16.
 NSaved=16 IEnMin=16 EnMin= -690.909073667639     IErMin=16 ErrMin= 3.47D-08
 ErrMax= 3.47D-08  0.00D+00 EMaxC= 1.00D-01 BMatC= 3.14D-13 BMatP= 3.46D-12
 IDIUse=1 WtCom= 1.00D+00 WtEn= 0.00D+00
 Coeff-Com:  0.144D-06-0.253D-06-0.117D-05-0.120D-06 0.206D-04 0.496D-04
 Coeff-Com:  0.556D-04 0.530D-04-0.449D-03-0.132D-02-0.295D-02-0.205D-02
 Coeff-Com:  0.784D-02 0.721D-01 0.252D+00 0.674D+00
 Coeff:      0.144D-06-0.253D-06-0.117D-05-0.120D-06 0.206D-04 0.496D-04
 Coeff:      0.556D-04 0.530D-04-0.449D-03-0.132D-02-0.295D-02-0.205D-02
 Coeff:      0.784D-02 0.721D-01 0.252D+00 0.674D+00
 Gap=     0.119 Goal=   None    Shift=    0.000
 RMSDP=7.08D-09 MaxDP=4.50D-07 DE=-2.05D-12 OVMax= 2.83D-07

 SCF Done:  E(RB971) =  -690.909073668     A.U. after   16 cycles
            NFock= 16  Conv=0.71D-08     -V/T= 2.0038
 KE= 6.882756758058D+02 PE=-3.699514863363D+03 EE= 1.273505625655D+03
 Leave Link  502 at Mon Apr 27 15:38:37 2015, MaxMem=   524288000 cpu:      2385.4
 (Enter /opt/g09/l801.exe)
 DoSCS=F DFT=T ScalE2(SS,OS)=  1.000000  1.000000
 Range of M.O.s used for correlation:     1   428
 NBasis=   434 NAE=    57 NBE=    57 NFC=     0 NFV=     0
 NROrb=    428 NOA=    57 NOB=    57 NVA=   371 NVB=   371

 **** Warning!!: The largest alpha MO coefficient is  0.14561098D+03

 Leave Link  801 at Mon Apr 27 15:38:38 2015, MaxMem=   524288000 cpu:         0.3
 (Enter /opt/g09/l1101.exe)
 Using compressed storage, NAtomX=    27.
 Will process     28 centers per pass.
 Leave Link 1101 at Mon Apr 27 15:38:39 2015, MaxMem=   524288000 cpu:         9.1
 (Enter /opt/g09/l1102.exe)
 Symmetrizing basis deriv contribution to polar:
 IMax=3 JMax=2 DiffMx= 0.00D+00
 Leave Link 1102 at Mon Apr 27 15:38:39 2015, MaxMem=   524288000 cpu:         0.5
 (Enter /opt/g09/l1110.exe)
 Forming Gx(P) for the SCF density, NAtomX=    27.
 Integral derivatives from FoFJK, PRISM(SPDF).
 Do as many integral derivatives as possible in FoFJK.
 G2DrvN: MDV=     524287680.
 G2DrvN: will do    28 centers at a time, making    1 passes.
 Calling FoFCou, ICntrl=  3107 FMM=F I1Cent=   0 AccDes= 0.00D+00.
 FoFJK:  IHMeth= 1 ICntrl=    3107 DoSepK=F KAlg= 0 I1Cent=   0 FoldK=F
 IRaf=         0 NMat=   1 IRICut=       1 DoRegI=T DoRafI=F ISym2E= 0.
 FoFCou: FMM=F IPFlag=           0 FMFlag=      100000 FMFlg1=           0
         NFxFlg=           0 DoJE=F BraDBF=F KetDBF=F FulRan=T
         wScrn=  0.000000 ICntrl=    3107 IOpCl=  0 I1Cent=           0 NGrid=           0
         NMat0=    1 NMatS0=      1 NMatT0=    0 NMatD0=    1 NMtDS0=    0 NMtDT0=    0
 Symmetry not used in FoFCou.
 End of G2Drv F.D. properties file   721 does not exist.
 End of G2Drv F.D. properties file   722 does not exist.
 End of G2Drv F.D. properties file   788 does not exist.
 Leave Link 1110 at Mon Apr 27 15:47:53 2015, MaxMem=   524288000 cpu:      4404.3
 (Enter /opt/g09/l1002.exe)
 Minotr:  Closed shell wavefunction.
          IDoAtm=111111111111111111111111111
          Direct CPHF calculation.
          Differentiating once with respect to electric field.
                with respect to dipole field.
          Differentiating once with respect to nuclear coordinates.
          Requested convergence is 1.0D-08 RMS, and 1.0D-07 maximum.
          Secondary convergence is 1.0D-12 RMS, and 1.0D-12 maximum.
          NewPWx=T KeepS1=F KeepF1=F KeepIn=T MapXYZ=F SortEE=F KeepMc=T.
          MDV=     524287298 using IRadAn=       1.
 Generate precomputed XC quadrature information.
          Solving linear equations simultaneously, MaxMat=       0.
 FoFJK:  IHMeth= 1 ICntrl=       0 DoSepK=F KAlg= 0 I1Cent=   0 FoldK=F
 IRaf= 810000000 NMat=  84 IRICut=     210 DoRegI=T DoRafI=T ISym2E= 0.
 FoFCou: FMM=F IPFlag=           0 FMFlag=      100000 FMFlg1=           0
         NFxFlg=           0 DoJE=F BraDBF=F KetDBF=F FulRan=T
         wScrn=  0.000000 ICntrl=       0 IOpCl=  0 I1Cent=           0 NGrid=           0
         NMat0=   84 NMatS0=     84 NMatT0=    0 NMatD0=   84 NMtDS0=    0 NMtDT0=    0
 Symmetry not used in FoFCou.
          There are    84 degrees of freedom in the 1st order CPHF.  IDoFFX=6 NUNeed=     3.
     81 vectors produced by pass  0 Test12= 2.52D-14 1.19D-09 XBig12= 7.33D+02 1.79D+01.
 AX will form    81 AO Fock derivatives at one time.
     81 vectors produced by pass  1 Test12= 2.52D-14 1.19D-09 XBig12= 8.56D+01 1.18D+00.
     81 vectors produced by pass  2 Test12= 2.52D-14 1.19D-09 XBig12= 1.58D+00 1.90D-01.
     81 vectors produced by pass  3 Test12= 2.52D-14 1.19D-09 XBig12= 6.61D-03 7.66D-03.
     81 vectors produced by pass  4 Test12= 2.52D-14 1.19D-09 XBig12= 1.71D-05 3.02D-04.
     81 vectors produced by pass  5 Test12= 2.52D-14 1.19D-09 XBig12= 3.45D-08 1.60D-05.
     38 vectors produced by pass  6 Test12= 2.52D-14 1.19D-09 XBig12= 5.43D-11 5.25D-07.
      3 vectors produced by pass  7 Test12= 2.52D-14 1.19D-09 XBig12= 8.22D-14 2.29D-08.
      3 vectors produced by pass  8 Test12= 2.52D-14 1.19D-09 XBig12= 1.27D-14 1.07D-08.
      2 vectors produced by pass  9 Test12= 2.52D-14 1.19D-09 XBig12= 3.27D-15 5.90D-09.
 InvSVY:  IOpt=1 It=  1 EMax= 5.33D-14
 Solved reduced A of dimension   532 with    84 vectors.
 FullF1:  Do perturbations    1 to     3.
 Isotropic polarizability for W=    0.000000      217.38 Bohr**3.
 End of Minotr F.D. properties file   721 does not exist.
 End of Minotr F.D. properties file   722 does not exist.
 End of Minotr F.D. properties file   788 does not exist.
 Leave Link 1002 at Mon Apr 27 16:12:30 2015, MaxMem=   524288000 cpu:     11742.2
 (Enter /opt/g09/l701.exe)
 Compute integral second derivatives.
 ... and contract with generalized density number  0.
 Leave Link  701 at Mon Apr 27 16:12:30 2015, MaxMem=   524288000 cpu:         3.7
 (Enter /opt/g09/l702.exe)
 L702 exits ... SP integral derivatives will be done elsewhere.
 Leave Link  702 at Mon Apr 27 16:12:30 2015, MaxMem=   524288000 cpu:         0.3
 (Enter /opt/g09/l703.exe)
 Compute integral second derivatives, UseDBF=F ICtDFT=           0.
 Integral derivatives from FoFJK, PRISM(SPDF).
 Calling FoFJK, ICntrl=    100127 FMM=F ISym2X=0 I1Cent= 0 IOpClX= 0 NMat=1 NMatS=1 NMatT=0.
 FoFJK:  IHMeth= 1 ICntrl=  100127 DoSepK=F KAlg= 0 I1Cent=   0 FoldK=F
 IRaf=         0 NMat=   1 IRICut=       1 DoRegI=T DoRafI=F ISym2E= 0.
 FoFCou: FMM=F IPFlag=           0 FMFlag=      100000 FMFlg1=         800
         NFxFlg=           0 DoJE=F BraDBF=F KetDBF=F FulRan=T
         wScrn=  0.000000 ICntrl=  100127 IOpCl=  0 I1Cent=           0 NGrid=           0
         NMat0=    1 NMatS0=      1 NMatT0=    0 NMatD0=    1 NMtDS0=    0 NMtDT0=    0
 Symmetry not used in FoFCou.
 Leave Link  703 at Mon Apr 27 16:30:19 2015, MaxMem=   524288000 cpu:      8498.6
 (Enter /opt/g09/l716.exe)
 Dipole        = 8.00677658D-01-3.16208854D-01-2.82191624D-02
 Polarizability= 3.72073273D+02 2.21872871D+01 1.86819627D+02
                -7.94332356D+00 6.85028953D-01 9.32537227D+01
 -------------------------------------------------------------------
 Center     Atomic                   Forces (Hartrees/Bohr)
 Number     Number              X              Y              Z
 -------------------------------------------------------------------
      1        6           0.000003895   -0.000002137    0.000000753
      2        6           0.000000847   -0.000001941   -0.000000417
      3        8           0.000002500    0.000005513    0.000001249
      4        6          -0.000000338    0.000006289   -0.000001266
      5        6           0.000004881   -0.000002204    0.000000123
      6        6          -0.000003272   -0.000004654   -0.000000209
      7        6          -0.000007383    0.000003939   -0.000000830
      8        6          -0.000000414   -0.000005597   -0.000000595
      9        6           0.000002355    0.000003890    0.000000362
     10        6           0.000005453    0.000007467    0.000001012
     11        6           0.000005202    0.000003847    0.000000601
     12        6          -0.000002191    0.000007350   -0.000000702
     13        6          -0.000008958   -0.000002291    0.000001205
     14        6          -0.000007057   -0.000011409   -0.000000624
     15        6           0.000000586   -0.000006966    0.000000126
     16        6          -0.000003490   -0.000005349    0.000000760
     17        6           0.000002987    0.000006056   -0.000000225
     18        1           0.000001092   -0.000001869    0.000000250
     19        1          -0.000001820    0.000002809    0.000000051
     20        1           0.000001599   -0.000001796   -0.000000082
     21        1          -0.000000796   -0.000003056   -0.000000260
     22        1           0.000000446   -0.000003517   -0.000000128
     23        1           0.000000955   -0.000002788   -0.000000141
     24        1           0.000002520    0.000001012   -0.000000222
     25        1          -0.000000047    0.000000351   -0.000000326
     26        1           0.000000705    0.000005115   -0.000000311
     27        1          -0.000000257    0.000001933   -0.000000151
 -------------------------------------------------------------------
 Cartesian Forces:  Max     0.000011409 RMS     0.000003463
 FormGI is forming the generalized inverse of G from B-inverse, IUseBI=4.
 Leave Link  716 at Mon Apr 27 16:30:19 2015, MaxMem=   524288000 cpu:         0.4
 (Enter /opt/g09/l103.exe)

 GradGradGradGradGradGradGradGradGradGradGradGradGradGradGradGradGradGrad
 Berny optimization.
 Red2BG is reusing G-inverse.
 Internal  Forces:  Max     0.000006465 RMS     0.000001374
 Search for a local minimum.
 Step number   1 out of a maximum of  162
 All quantities printed in internal units (Hartrees-Bohrs-Radians)
 RMS Force = .13740D-05 SwitMx=.10000D-02 MixMth= 2
 Mixed Optimization -- En-DIIS/RFO-DIIS
 Second derivative matrix not updated -- analytic derivatives used.
 ITU=  0
     Eigenvalues ---    0.00728   0.00854   0.01116   0.01304   0.01419
     Eigenvalues ---    0.01608   0.01646   0.01703   0.01738   0.01833
     Eigenvalues ---    0.01950   0.01998   0.02056   0.02159   0.02347
     Eigenvalues ---    0.02376   0.02422   0.02530   0.02679   0.02735
     Eigenvalues ---    0.02789   0.02878   0.03024   0.03084   0.09459
     Eigenvalues ---    0.10618   0.10725   0.10918   0.11062   0.11182
     Eigenvalues ---    0.12058   0.12107   0.12146   0.12156   0.15760
     Eigenvalues ---    0.16624   0.18010   0.18669   0.18790   0.19067
     Eigenvalues ---    0.19152   0.19344   0.20280   0.21734   0.21851
     Eigenvalues ---    0.23447   0.26625   0.26693   0.29836   0.31557
     Eigenvalues ---    0.32540   0.34354   0.35101   0.35332   0.35443
     Eigenvalues ---    0.35525   0.35553   0.35693   0.35761   0.35830
     Eigenvalues ---    0.35963   0.36409   0.36880   0.38155   0.40257
     Eigenvalues ---    0.40881   0.41723   0.43191   0.44103   0.45508
     Eigenvalues ---    0.46221   0.49171   0.49859   0.50951   0.53695
 RFO step:  Lambda= 0.00000000D+00 EMin= 7.27779364D-03
 Linear search not attempted -- first point.
 Iteration  1 RMS(Cart)=  0.00001538 RMS(Int)=  0.00000000
 Iteration  2 RMS(Cart)=  0.00000000 RMS(Int)=  0.00000000
 ITry= 1 IFail=0 DXMaxC= 8.19D-05 DCOld= 1.00D+10 DXMaxT= 3.00D-01 DXLimC= 3.00D+00 Rises=F
 Variable       Old X    -DE/DX   Delta X   Delta X   Delta X     New X
                                 (Linear)    (Quad)   (Total)
    R1        2.77457   0.00000   0.00000   0.00001   0.00001   2.77458
    R2        2.56849   0.00000   0.00000   0.00000   0.00000   2.56849
    R3        2.56882   0.00000   0.00000   0.00000   0.00000   2.56882
    R4        2.55976   0.00000   0.00000   0.00000   0.00000   2.55976
    R5        2.76031   0.00000   0.00000   0.00001   0.00001   2.76032
    R6        2.58333   0.00000   0.00000   0.00000   0.00000   2.58333
    R7        2.76654   0.00000   0.00000   0.00000   0.00000   2.76654
    R8        2.04325   0.00000   0.00000  -0.00001  -0.00001   2.04325
    R9        2.73743   0.00000   0.00000  -0.00001  -0.00001   2.73742
   R10        2.05407   0.00000   0.00000  -0.00001  -0.00001   2.05406
   R11        2.69726   0.00000   0.00000   0.00000   0.00000   2.69727
   R12        2.63263   0.00000   0.00000   0.00000   0.00000   2.63263
   R13        2.67401   0.00000   0.00000  -0.00001  -0.00001   2.67400
   R14        2.66367   0.00000   0.00000   0.00001   0.00001   2.66369
   R15        2.65110   0.00000   0.00000  -0.00001  -0.00001   2.65109
   R16        2.63118   0.00000   0.00000   0.00000   0.00000   2.63118
   R17        2.05129   0.00000   0.00000   0.00000   0.00000   2.05130
   R18        2.62541   0.00000   0.00000   0.00000   0.00000   2.62541
   R19        2.05032   0.00000   0.00000   0.00000   0.00000   2.05032
   R20        2.63822   0.00001   0.00000   0.00002   0.00002   2.63824
   R21        2.05002   0.00000   0.00000  -0.00001  -0.00001   2.05001
   R22        2.64060   0.00000   0.00000   0.00001   0.00001   2.64062
   R23        2.64516   0.00000   0.00000   0.00000   0.00000   2.64516
   R24        2.05394   0.00000   0.00000   0.00001   0.00001   2.05396
   R25        2.64569   0.00000   0.00000  -0.00001  -0.00001   2.64568
   R26        2.05275   0.00000   0.00000   0.00000   0.00000   2.05274
   R27        2.05361   0.00000   0.00000   0.00000   0.00000   2.05360
   R28        2.64904   0.00000   0.00000   0.00000   0.00000   2.64904
   R29        2.05119   0.00000   0.00000  -0.00001  -0.00001   2.05118
   R30        2.05289   0.00000   0.00000   0.00000   0.00000   2.05289
    A1        2.11841   0.00000   0.00000   0.00001   0.00001   2.11842
[...]
 6909,-0.02778816,-0.01046438,0.00062435,0.01424166,0.01111442,-0.00030
 917,-0.00003462,-0.00006427,0.00000161,0.00003467,0.00002013,-0.000000
 68,0.00003729,0.00002974,-0.00000155,0.00297827,-0.00085674,-0.0002096
 2,0.00143789,-0.00581364,-0.00021942,-0.00003673,0.00002767,0.00000154
 ,-0.00000483,-0.00004335,-0.00000064,-0.00000127,0.00000070,-0.0000003
 5,0.00006568,0.00003646,-0.00000200,0.13495019,0.14311456,-0.00001117,
 -0.00001658,-0.00016340,0.00000753,-0.00000146,0.00014224,0.00008173,0
 .00003452,0.00042603,0.00000274,0.00000775,-0.00019194,-0.00002907,0.0
 0001332,-0.00077752,0.00000032,0.00000004,0.00010122,-0.00001717,-0.00
 001150,-0.00120220,0.00472144,0.00225404,-0.03649208,-0.00043979,-0.00
 028921,0.00332577,0.00084844,0.00060580,0.00329192,-0.00000510,-0.0000
 0456,-0.00010402,0.00000122,0.00000028,-0.00000430,0.00000399,0.000001
 35,0.00006046,0.00031956,-0.00022840,0.00758490,0.00016252,-0.00019875
 ,0.00649259,-0.00000096,0.00000185,-0.00000351,0.00000028,-0.00000216,
 0.00001143,0.00000085,-0.00000037,0.00002749,0.00000287,0.00000088,0.0
 0004058,-0.00534949,-0.00229261,0.02515340,0.00009001,-0.00024039,-0.0
 0000924,-0.00045007,-0.00023044,0.00000258,0.00013217,0.00008144,-0.00
 002213,-0.00014379,0.00002460,0.00000402,-0.00047495,0.00109894,0.0000
 4476,0.00010342,0.00010262,-0.00000504,-0.00221475,-0.00400664,0.00022
 542,0.00273760,-0.00228613,-0.00005789,-0.27644518,0.11542414,0.008830
 91,0.00175856,-0.00032753,0.00013057,0.00004299,0.00009756,0.00000219,
 -0.00006016,0.00000306,0.00000230,-0.00007323,-0.00004637,0.00000170,0
 .00005922,-0.00084524,-0.00002839,-0.01831511,0.01483972,0.00081747,0.
 00004119,-0.00002949,-0.00000148,-0.00002475,0.00006881,0.00000146,-0.
 00001010,0.00000547,-0.00000054,-0.00000834,-0.00003591,0.00000101,0.0
 0061489,0.00038023,-0.00011838,0.29176006,-0.00011311,-0.00008427,0.00
 000360,-0.00026053,-0.00020095,0.00000849,0.00033431,0.00024255,0.0000
 0296,-0.00000862,0.00003702,0.00000106,-0.00052719,0.00062361,0.000017
 30,0.00005194,0.00010631,0.00000169,-0.00326337,-0.00130480,-0.0000277
 1,0.02899930,-0.00928454,-0.00101862,0.11570660,-0.11879362,-0.0046523
 3,-0.00107449,-0.00553370,-0.00013869,0.00001852,0.00001321,-0.0000013
 6,-0.00004136,-0.00002800,0.00000059,-0.00002951,-0.00000111,0.0000007
 6,-0.00110225,-0.00110326,0.00002385,-0.01653685,0.01129189,0.00062108
 ,0.00004274,-0.00002194,-0.00000166,0.00000301,0.00003907,0.00000059,-
 0.00000765,0.00000092,0.00000069,0.00000660,-0.00000968,-0.00000095,-0
 .00039173,0.00098403,0.00007690,-0.12368911,0.12274563,-0.00000752,0.0
 0000735,-0.00010386,0.00000206,0.00000753,-0.00025380,-0.00001858,0.00
 001041,-0.00065418,0.00000360,0.00000011,-0.00001963,0.00002119,-0.000
 03074,0.00050221,-0.00000583,0.00000019,-0.00011723,0.00023708,-0.0000
 0584,0.00734549,0.00039107,-0.00009298,0.00187780,0.00883395,-0.004643
 75,-0.03426268,0.00012005,-0.00016087,0.00632726,0.00000101,-0.0000037
 4,0.00006973,0.00000169,-0.00000071,0.00001613,0.00000196,0.00000128,0
 .00000645,-0.00003185,0.00001609,-0.00049148,0.00036749,-0.00030689,0.
 00209810,-0.00000047,0.00000049,0.00000549,0.00000052,-0.00000138,-0.0
 0000861,-0.00000073,0.00000030,-0.00003108,0.00000165,0.00000031,0.000
 04311,-0.00012965,0.00005413,-0.00356469,-0.00967558,0.00507808,0.0250
 6673,-0.00056418,-0.00031230,-0.00000629,0.00024127,0.00013273,-0.0000
 0639,0.00271010,0.00084513,-0.00016529,0.00014321,0.00007716,-0.000003
 08,0.00055128,-0.00137324,-0.00003424,0.00001828,0.00015067,0.00000329
 ,-0.00450827,-0.00190767,0.00027691,0.00396804,0.02806337,0.00035208,-
 0.00467975,0.00190977,0.00037863,-0.05817015,0.01476718,0.00093430,-0.
 00010159,-0.00011296,0.00000342,0.00000039,-0.00001591,-0.00000089,0.0
 0003564,0.00003300,-0.00000030,0.00530948,-0.02723241,-0.00042107,-0.0
 0127961,-0.00004924,0.00000459,0.00001319,0.00005125,0.00000086,-0.000
 02653,-0.00002117,-0.00000039,-0.00004135,0.00001630,0.00000115,-0.000
 38036,-0.00019104,0.00000300,0.00097549,-0.00049026,-0.00016097,0.0000
 3437,0.00139788,0.00002950,0.05563864,-0.00052324,-0.00023373,0.000021
 03,0.00006896,0.00028061,0.00000265,0.00144928,0.00120228,0.00002167,-
 0.00004393,0.00003148,0.00000171,0.00074530,-0.00066336,-0.00003253,0.
 00007705,0.00010502,-0.00000157,-0.00307217,0.00015313,0.00001024,-0.0
 0197375,-0.00856886,-0.00009687,0.00250081,0.00124583,-0.00015942,0.01
 269169,-0.33871141,-0.00475827,0.00000004,0.00002500,-0.00000065,-0.00
 003359,-0.00002741,0.00000092,-0.00003677,-0.00002722,0.00000057,0.004
 44560,-0.01396111,-0.00039433,-0.00027500,0.00071004,0.00003430,0.0000
 4393,0.00001434,-0.00000134,-0.00003148,0.00004387,0.00000198,-0.00002
 259,0.00001563,0.00000104,-0.00022464,-0.00010578,0.00000787,0.0001773
 6,0.00072202,0.00006605,-0.00017664,-0.00047920,-0.00000673,-0.0157717
 1,0.35830963,-0.00000934,0.00001477,-0.00062217,-0.00000747,0.00000078
 ,-0.00004211,-0.00015697,0.00003909,-0.00329076,-0.00000482,-0.0000018
 5,0.00000288,-0.00000383,0.00003007,0.00006315,0.00000224,-0.00000373,
 0.00005520,0.00026024,-0.00002383,0.00576414,-0.00007918,-0.00098604,0
 .00222036,0.00038686,-0.00014204,0.00717337,0.00090342,-0.00481924,-0.
 03385337,0.00000504,0.00000272,0.00006894,-0.00000114,0.00000040,-0.00
 002216,-0.00000130,-0.00000150,0.00000949,0.00003508,0.00054350,0.0043
 2954,0.00000165,0.00002768,-0.00109925,0.00000075,-0.00000156,0.000017
 26,-0.00000053,0.00000168,-0.00002926,0.00000060,-0.00000011,-0.000010
 12,0.00000245,0.00000685,-0.00018849,-0.00015107,0.00008542,-0.0042127
 3,0.00000682,-0.00005331,0.00034960,-0.00116673,0.00527308,0.02396484,
 0.00017777,0.00006678,-0.00000674,-0.00029400,0.00050904,-0.00009333,0
 .00009740,0.00006691,0.00000073,0.00052282,-0.00055514,-0.00001950,0.0
 0044357,-0.00020645,-0.00001309,0.01249310,-0.01255980,-0.00045764,-0.
 00017363,0.00003730,0.00000821,-0.00000674,0.00004159,0.00000080,-0.00
 001549,-0.00003722,-0.00000103,0.00003748,0.00002248,-0.00000083,-0.00
 088179,-0.00302945,0.00021258,-0.13067754,0.11908750,0.00448859,-0.000
 54081,-0.00074962,-0.00001832,-0.00005195,0.00006003,0.00000224,0.0000
 5548,0.00001023,-0.00000163,-0.00989895,0.02859201,0.00080377,-0.00564
 378,-0.00165309,0.00035279,-0.00018313,-0.00015824,-0.00000452,-0.0003
 9423,0.00002896,0.00001873,0.00000409,0.00000378,0.00000010,0.00000956
 ,0.00000053,-0.00000021,0.00000550,0.00000595,0.00000004,0.13453914,0.
 00060390,-0.00046825,-0.00002355,0.00052952,0.00146646,0.00005632,-0.0
 0046110,-0.00006476,0.00001139,0.00059101,-0.00100564,-0.00003363,-0.0
 0012391,-0.00049876,-0.00000490,0.01746817,-0.01862628,-0.00082370,-0.
 00044568,0.00023950,0.00001538,-0.00004205,0.00003835,0.00000179,-0.00
 007732,-0.00004933,0.00000205,-0.00001611,0.00007599,0.00000160,-0.003
 68304,-0.00175963,-0.00002665,0.12068790,-0.25924378,-0.00674728,-0.00
 099363,-0.00014559,0.00003870,0.00021284,-0.00007166,-0.00000726,0.000
 08750,-0.00007341,-0.00000361,-0.00242015,0.00355062,0.00007176,-0.000
 62656,0.00200141,-0.00005350,-0.00037245,-0.00025520,0.00001103,-0.000
 54410,0.00018975,0.00001482,-0.00000395,0.00000498,0.00000011,-0.00000
 341,-0.00000038,0.00000006,0.00001620,0.00000682,-0.00000044,-0.130669
 28,0.27396227,0.00000067,-0.00000727,-0.00008733,-0.00009295,0.0000605
 7,-0.00368325,-0.00000674,-0.00000419,0.00009047,-0.00000326,0.0000003
 4,0.00012687,-0.00001145,-0.00000223,0.00011039,-0.00003740,0.00005859
 ,0.00293706,0.00000151,0.00000102,0.00008609,-0.00000039,-0.00000070,0
 .00000059,-0.00000162,0.00000088,-0.00003311,-0.00000136,0.00000043,-0
 .00000131,0.00020281,-0.00004631,0.00775288,0.00451157,-0.00669773,-0.
 03638490,-0.00002188,0.00003142,-0.00080245,0.00000433,-0.00000273,-0.
 00000677,-0.00000044,-0.00000131,-0.00000141,0.00036283,-0.00084544,0.
 00350043,0.00036778,-0.00002368,0.00706149,-0.00000746,0.00000471,-0.0
 0025729,0.00001664,-0.00000172,0.00031594,-0.00000001,-0.00000012,0.00
 000562,-0.00000026,-0.00000005,0.00000232,0.00000018,-0.00000014,0.000
 00394,-0.00512724,0.00742585,0.02429908,-0.00037163,0.00007727,0.00000
 972,-0.00063245,0.00172023,0.00005017,0.00030186,-0.00008516,-0.000009
 69,0.00189704,0.00025315,-0.00014967,-0.00040889,-0.00043627,0.0000037
 4,-0.00469777,-0.00185160,0.00031702,-0.00006422,0.00011536,-0.0000013
 0,-0.00005007,0.00000703,0.00000117,-0.00000734,-0.00002411,0.00000030
 ,0.00005039,0.00000806,-0.00000119,-0.01081282,0.02856148,0.00081229,-
 0.00098656,-0.00089099,-0.00000672,-0.13675212,0.12460582,0.00479747,-
 0.00019549,0.00012302,0.00001160,-0.00002532,-0.00006623,-0.00000142,-
 0.00048951,-0.00316453,0.00017899,0.01120845,-0.01375622,-0.00046092,-
 0.00045359,-0.00066269,0.00000883,0.00002096,0.00000177,0.00000116,-0.
 00000204,-0.00000157,0.,-0.00001082,-0.00000370,0.00000069,-0.00000926
 ,-0.00000842,0.00000038,0.00008120,0.00013621,-0.00003665,0.14123882,0
 .00021371,0.00014782,-0.00000302,-0.00043977,-0.00003467,0.00000920,0.
 00010988,-0.00003981,-0.00000404,-0.00011902,0.00083940,0.00006280,-0.
 00000270,0.00005566,0.00000185,-0.00088932,0.00154193,-0.00005018,-0.0
 0002894,-0.00003201,0.00000277,0.00001047,0.00002659,0.00000027,-0.000
 00150,-0.00000251,-0.00000021,0.00003781,-0.00000985,-0.00000135,-0.00
 208159,0.00374096,0.00007504,-0.00058033,0.00019466,0.00003110,0.12391
 048,-0.25428954,-0.00680424,-0.00003684,0.00003749,-0.00000032,0.00000
 702,0.00002043,0.00000068,-0.00424136,-0.00278344,-0.00001513,0.017393
 67,-0.01816484,-0.00080539,0.00049642,-0.00000721,-0.00001749,-0.00001
 065,-0.00000015,-0.00000054,0.00000435,0.00000155,-0.00000008,0.000005
 66,-0.00000122,-0.00000039,0.00000047,0.00000357,-0.00000007,0.0000945
 3,-0.00003184,0.00001417,-0.13440367,0.26888285,0.00001163,0.00000082,
 -0.00007978,0.00001917,-0.00005443,0.00022740,-0.00000700,0.00000179,0
 .00001579,-0.00015594,0.00005190,-0.00328399,0.00000985,0.00001470,-0.
 00007151,0.00033049,-0.00002174,0.00690036,-0.00000342,-0.00000145,-0.
 00016590,0.00000125,0.00000034,-0.00001414,0.00000065,0.00000050,0.000
 01477,-0.00000081,-0.00000048,0.00000645,0.00037709,-0.00083205,0.0028
 6955,-0.00000266,0.00004013,-0.00078442,0.00478791,-0.00682382,-0.0346
 7158,0.00000942,-0.00000511,0.00013711,-0.00000043,0.00000285,-0.00004
 154,0.00016358,-0.00004694,0.00707575,-0.00001705,0.00011572,0.0022606
 7,0.00002559,0.00001707,0.00015290,0.00000097,-0.00000090,0.00005883,0
 .00000008,0.00000009,-0.00000160,0.00000082,-0.00000011,0.00001421,0.0
 0000051,0.00000019,0.00000764,-0.00003721,0.00001290,-0.00122268,-0.00
 538211,0.00747121,0.02416129,0.00102016,0.00056112,-0.00002285,0.00000
 062,-0.00040248,-0.00001140,-0.00109514,0.00184227,0.00006807,-0.00007
 595,-0.00011273,0.00000186,0.00171425,0.00162758,-0.00013119,-0.000124
 07,-0.00009475,0.00001015,0.00179433,0.02786157,0.00042774,-0.00445725
 ,-0.00259507,0.00030654,0.00579520,-0.02723791,-0.00045861,-0.00104709
 ,0.00016317,-0.00000134,-0.00003374,0.00001502,0.00000272,0.00004863,0
 .00007352,-0.00000117,0.00005100,0.00000888,-0.00000283,-0.00438726,0.
 00085228,0.00032396,-0.05809035,0.00859190,0.00080833,-0.00006450,-0.0
 0001976,0.00000101,0.00001840,-0.00005131,-0.00000130,0.00002432,-0.00
 001558,-0.00000166,-0.00030779,-0.00085723,0.00000293,0.00010895,-0.00
 140203,-0.00002142,0.00086607,0.00048760,-0.00014349,0.00011283,-0.000
 00702,-0.00002311,-0.00001277,-0.00002558,0.00000080,0.00000713,-0.000
 00383,-0.00000035,0.05812863,-0.00073606,-0.00000616,0.00002200,0.0004
 8674,0.00006291,-0.00001077,0.00040631,-0.00080187,-0.00002798,0.00023
 146,0.00004816,-0.00000676,-0.00189541,0.00088287,0.00011943,-0.000076
 48,0.00005318,-0.00000077,-0.00150908,-0.01147605,-0.00015826,-0.00344
 006,0.00035725,0.00000423,0.00381294,-0.01180747,-0.00033312,0.0000457
 1,0.00060539,0.00002428,-0.00005839,-0.00015643,-0.00000124,0.00002859
 ,-0.00003098,-0.00000090,0.00003585,0.00003971,0.00000021,0.00220162,0
 .00130946,-0.00013470,0.00878642,-0.33267330,-0.00453729,0.00000568,0.
 00005967,0.00000097,0.00000039,-0.00003026,-0.00000043,-0.00000810,0.0
 0000413,0.00000065,0.00090614,0.00034003,-0.00002574,0.00021875,-0.000
 70882,-0.00001762,-0.00020655,0.00076089,0.00007732,0.00001212,-0.0000
 8938,0.00000788,-0.00000119,0.00001909,-0.00000006,-0.00000007,-0.0000
 0217,0.00000001,-0.00925855,0.35323266,-0.00004140,-0.00001658,-0.0000
 1479,0.00000128,0.00001573,-0.00019579,0.00004721,-0.00007037,0.000303
 54,0.00000678,0.00000345,0.00004290,-0.00018103,0.00001435,-0.00350391
 ,0.00001040,-0.00000020,0.00026145,0.00000578,-0.00102796,0.00268160,0
 .00029412,-0.00002029,0.00715031,-0.00001199,0.00058539,0.00353922,-0.
 00000270,0.00002095,-0.00117073,0.00000172,-0.00000339,0.00005107,-0.0
 0000183,-0.00000224,-0.00002707,-0.00000245,0.00000098,-0.00004850,0.0
 0034365,-0.00009535,0.00613532,0.00080944,-0.00453184,-0.03502455,0.00
 000140,0.00000173,-0.00002051,-0.00000058,0.00000112,-0.00000118,-0.00
 000156,0.00000087,-0.00002459,0.00002843,0.00002789,0.00023349,0.00000
 191,0.00003037,0.00006741,-0.00015338,0.00005707,-0.00421194,-0.000022
 82,0.00000848,-0.00066291,0.00000110,0.00000066,0.00002531,-0.00000029
 ,0.00000012,-0.00000268,-0.00113367,0.00499912,0.02440161,-0.00063145,
 0.00013869,0.00002448,0.00039895,-0.00132455,-0.00000182,-0.00006194,-
 0.00019751,-0.00001490,0.00026289,-0.00014881,-0.00002532,-0.00008925,
 -0.00014243,0.00000096,-0.00576315,0.00134737,0.00037688,0.00004354,0.
 00011307,0.00000201,-0.00000328,-0.00004587,-0.00000031,0.00000867,0.0
 0002905,-0.00000002,-0.00004943,0.00000763,0.00000138,-0.00091730,0.00
 063662,0.00000690,-0.01039138,-0.02870677,-0.00004568,-0.00110464,0.00
 315748,0.00026839,0.00012003,-0.00003968,-0.00000231,-0.00004690,-0.00
 004651,0.00000114,-0.12292857,-0.11798737,0.00100497,0.01107428,0.0158
 6742,-0.00004677,-0.00003029,-0.00004519,0.00000109,-0.00001053,0.0000
 3265,-0.00000067,-0.00000393,-0.00000150,0.00000014,-0.00001033,-0.000
 00042,0.00000012,-0.00000021,-0.00000285,0.,0.00102505,0.00036358,-0.0
 0014072,0.00038356,0.00084005,0.00001242,0.00000158,0.00000594,0.00000
 025,0.12793765,0.00000985,0.00005776,-0.00000131,0.00012646,0.00014238
 ,-0.00001566,-0.00000916,-0.00004237,0.00000635,-0.00005675,0.00008216
 ,0.00001024,0.00002618,0.00001844,-0.00000066,0.00055968,0.00172094,-0
 .00008194,-0.00004595,-0.00000775,0.00000044,-0.00005542,0.00002792,0.
 00000192,-0.00002951,-0.00005712,0.00000014,0.00003227,0.00002038,-0.0
 0000058,0.00095908,0.00021126,-0.00001136,0.00255890,0.00289866,-0.000
 06093,0.00401582,-0.00265198,-0.00024827,-0.00006471,0.00002829,0.0000
 0144,0.00005076,-0.00002821,-0.00000210,-0.11815600,-0.27029283,0.0001
 1174,-0.01569071,-0.01825384,0.00017777,0.00002074,0.00000504,-0.00000
 094,0.00000943,-0.00000686,0.00000037,-0.00000476,-0.00000085,0.000000
 11,-0.00000826,0.00000028,0.00000034,0.00000092,-0.00000377,-0.0000000
 9,-0.00044296,0.00070732,0.00007871,-0.00074751,-0.00103322,0.00000172
 ,0.00000417,0.00000383,-0.00000017,0.12663807,0.28558067,0.00002267,-0
 .00000521,0.00012873,0.00001918,0.00002740,0.00097783,-0.00001221,0.00
 001201,-0.00047012,-0.00002401,0.00001298,-0.00052057,0.00000336,0.000
 00428,0.00001149,0.00036489,-0.00010599,0.00631063,-0.00000024,-0.0000
 0426,0.00005643,-0.00000043,0.00000161,0.00000848,-0.00000084,-0.00000
 156,-0.00000606,0.00000172,0.00000014,-0.00000627,0.00001130,-0.000001
 53,-0.00098831,0.00039911,0.00086473,0.00186557,0.00028073,-0.00022282
 ,0.00643663,-0.00000261,0.00000069,0.00006276,0.00000250,0.00000078,0.
 00001355,0.00100227,0.00010669,-0.03232764,-0.00049453,-0.00075702,0.0
 0188212,0.00000202,0.00000100,0.00002825,-0.00000111,-0.00000030,-0.00
 005154,0.00000009,0.00000001,0.00000149,0.00000001,0.00000010,-0.00000
 604,0.00000005,0.00000002,0.00000093,-0.00015215,0.00005504,-0.0039078
 9,-0.00001019,-0.00004522,0.00039727,0.00000022,-0.00000022,0.00000701
 ,-0.00127864,-0.00002542,0.02394128,0.00023461,-0.00026159,-0.00001029
 ,-0.00009119,-0.00000133,-0.00002139,-0.00041691,-0.00004991,0.0000040
 7,-0.00056666,0.00051144,0.00003420,0.00008825,0.00006078,0.00000004,0
 .00081394,0.00012608,-0.00005114,-0.00007125,0.00000401,0.00000197,-0.
 00003359,0.00002163,0.00000133,-0.00004644,-0.00003916,0.00000059,-0.0
 0001214,0.00002168,0.00000288,0.00095655,-0.00281398,0.00014161,0.0003
 5755,0.00321338,0.00023253,-0.01059469,0.00259540,0.00044654,0.0001101
 5,-0.00008490,-0.00000450,0.00005714,-0.00002381,-0.00000189,-0.011958
 92,-0.00386395,0.00039368,-0.33323700,-0.00871266,0.00867341,-0.000023
 09,-0.00004521,0.00000051,0.00001594,-0.00000194,0.00000168,-0.0000087
 4,-0.00000084,-0.00000018,-0.00000850,0.00000086,0.00000028,0.00000356
 ,-0.00000216,-0.00000008,-0.00071734,-0.00018849,0.00002070,0.00078050
 ,-0.00028500,-0.00014444,0.00000382,0.00000527,0.00000023,0.00078639,0
 .00029938,-0.00013318,0.35357804,0.00008650,-0.00047161,-0.00000953,0.
 00009313,0.00017115,0.00001128,-0.00044732,0.00013861,0.00001885,-0.00
 104973,0.00065911,0.00003555,-0.00001575,-0.00003499,-0.00000086,-0.00
 015168,-0.00118816,0.00000160,-0.00000447,0.00005347,0.00000099,0.0000
 3368,-0.00004296,-0.00000162,0.00000510,0.00004397,0.00000059,-0.00008
 674,0.00001192,0.00000168,-0.00256236,-0.00501481,-0.00009693,0.002662
 56,-0.00438038,-0.00023609,-0.02836042,0.00336745,0.00084109,0.0001849
 7,-0.00014048,-0.00000749,-0.00002483,-0.00000160,0.00000064,0.0274232
 1,0.00515103,-0.00078365,-0.00868359,-0.05840552,-0.00006318,-0.000008
 22,-0.00003218,-0.00000045,-0.00004406,0.00001970,0.00000055,-0.000003
 39,0.00000054,0.00000032,-0.00000013,0.00000125,0.00000001,0.00000374,
 0.00000198,-0.00000011,0.00143483,0.00003196,-0.00004302,0.00049335,0.
 00093958,0.00005509,-0.00000525,0.00000365,0.00000008,-0.00048816,0.00
 087348,0.00008205,0.00951502,0.05824383,-0.00000519,0.00000071,0.00001
 422,-0.00001992,0.00001416,-0.00081215,-0.00000158,0.00000713,-0.00025
 468,0.00001198,-0.00001074,0.00034332,-0.00000108,-0.00000312,0.000059
 28,-0.00005585,-0.00000713,-0.00097833,0.00000184,0.00000075,-0.000006
 86,0.00000151,-0.00000127,0.00000063,0.00000123,0.00000190,-0.00000755
 ,0.00000133,-0.00000155,0.00007474,0.00014541,-0.00008928,0.00709619,0
 .00022483,-0.00025218,0.00665997,0.00000569,-0.00007543,0.00324881,-0.
 00000062,0.00000049,-0.00000071,-0.00000192,0.00000062,0.00000456,0.00
 083929,0.00014153,0.00317246,0.00867353,-0.00006074,-0.03615044,0.0000
 0104,0.00000065,0.00001600,0.00000109,-0.00000071,0.00007315,-0.000000
 22,0.00000024,-0.00001454,0.00000027,-0.00000002,0.00000058,0.,0.00000
 006,0.00000204,0.00004377,0.00000504,0.00006994,-0.00013337,0.00007845
 ,-0.00396018,0.00000008,-0.00000023,0.00000891,-0.00014397,0.00005812,
 -0.00384602,-0.00958917,0.00019254,0.02518662\\-0.00000054,-0.00000015
 ,-0.00000009,0.00000010,-0.00000018,0.00000002,-0.00000065,0.00000039,
 -0.00000012,-0.00000065,-0.00000053,-0.00000016,0.00000034,0.00000031,
 0.00000009,0.00000025,-0.00000057,0.00000001,0.00000010,0.00000067,0.0
 0000006,-0.00000044,0.00000160,0.,0.00000006,0.00000167,0.00000011,-0.
 00000067,0.00000115,-0.00000008,-0.00000017,-0.00000097,-0.00000009,0.
 00000066,-0.00000089,0.00000009,-0.00000019,-0.00000141,-0.00000012,-0
 .00000032,0.00000075,-0.00000005,0.00000036,0.00000122,0.00000014,0.00
 000071,-0.00000139,0.00000007,0.00000026,-0.00000164,-0.00000004,-0.00
 000099,-0.00000067,-0.00000024,0.00000076,0.00000029,0.00000017,-0.000
 00067,0.00000193,-0.00000003,0.00000024,0.00000197,0.00000016,-0.00000
 108,0.00000115,-0.00000016,0.00000102,-0.00000067,0.00000018,-0.000000
 53,-0.00000162,-0.00000020,0.00000073,0.00000119,0.00000022,0.00000104
 ,-0.00000156,0.00000013,0.00000028,-0.00000203,-0.00000006\\\@


 MANHOOD BEGINS BY TRYING TO SHAVE FACE,
 AND ENDS BY TRYING TO SAVE FACE.
 Job cpu time:       0 days  6 hours 54 minutes  4.7 seconds.
 File lengths (MBytes):  RWF=    457 Int=      0 D2E=      0 Chk=     14 Scr=      1
 Normal termination of Gaussian 09 at Mon Apr 27 18:15:41 2015.
