 Entering Gaussian System, Link 0=g09
 Input=0_0freq-corr_b971_2465-56-7.gau
 Output=0_0freq-corr_b971_2465-56-7.log
 Initial command:
 /opt/g09/l1.exe "/scratch/pb556/g09_run/add_hco//Gau-18864.inp" -scrdir="/scratch/pb556/g09_run/add_hco//"
 Entering Link 1 = /opt/g09/l1.exe PID=     18873.
  
 Copyright (c) 1988,1990,1992,1993,1995,1998,2003,2009,2013,
            Gaussian, Inc.  All Rights Reserved.
  
 This is part of the Gaussian(R) 09 program.  It is based on
 the Gaussian(R) 03 system (copyright 2003, Gaussian, Inc.),
 the Gaussian(R) 98 system (copyright 1998, Gaussian, Inc.),
 the Gaussian(R) 94 system (copyright 1995, Gaussian, Inc.),
 the Gaussian 92(TM) system (copyright 1992, Gaussian, Inc.),
 the Gaussian 90(TM) system (copyright 1990, Gaussian, Inc.),
 the Gaussian 88(TM) system (copyright 1988, Gaussian, Inc.),
 the Gaussian 86(TM) system (copyright 1986, Carnegie Mellon
 University), and the Gaussian 82(TM) system (copyright 1983,
 Carnegie Mellon University). Gaussian is a federally registered
 trademark of Gaussian, Inc.
  
 This software contains proprietary and confidential information,
 including trade secrets, belonging to Gaussian, Inc.
  
 This software is provided under written license and may be
 used, copied, transmitted, or stored only in accord with that
 written license.
  
 The following legend is applicable only to US Government
 contracts under FAR:
  
                    RESTRICTED RIGHTS LEGEND
  
 Use, reproduction and disclosure by the US Government is
 subject to restrictions as set forth in subparagraphs (a)
 and (c) of the Commercial Computer Software - Restricted
 Rights clause in FAR 52.227-19.
  
 Gaussian, Inc.
 340 Quinnipiac St., Bldg. 40, Wallingford CT 06492
  
  
 ---------------------------------------------------------------
 Warning -- This program may not be used in any manner that
 competes with the business of Gaussian, Inc. or will provide
 assistance to any competitor of Gaussian, Inc.  The licensee
 of this program is prohibited from giving any competitor of
 Gaussian, Inc. access to this program.  By using this program,
 the user acknowledges that Gaussian, Inc. is engaged in the
 business of creating and licensing software in the field of
 computational chemistry and represents and warrants to the
 licensee that it is not a competitor of Gaussian, Inc. and that
 it will not use this program in any manner prohibited above.
 ---------------------------------------------------------------
  

 Cite this work as:
 Gaussian 09, Revision D.01,
 M. J. Frisch, G. W. Trucks, H. B. Schlegel, G. E. Scuseria, 
 M. A. Robb, J. R. Cheeseman, G. Scalmani, V. Barone, B. Mennucci, 
 G. A. Petersson, H. Nakatsuji, M. Caricato, X. Li, H. P. Hratchian, 
 A. F. Izmaylov, J. Bloino, G. Zheng, J. L. Sonnenberg, M. Hada, 
 M. Ehara, K. Toyota, R. Fukuda, J. Hasegawa, M. Ishida, T. Nakajima, 
 Y. Honda, O. Kitao, H. Nakai, T. Vreven, J. A. Montgomery, Jr., 
 J. E. Peralta, F. Ogliaro, M. Bearpark, J. J. Heyd, E. Brothers, 
 K. N. Kudin, V. N. Staroverov, T. Keith, R. Kobayashi, J. Normand, 
 K. Raghavachari, A. Rendell, J. C. Burant, S. S. Iyengar, J. Tomasi, 
 M. Cossi, N. Rega, J. M. Millam, M. Klene, J. E. Knox, J. B. Cross, 
 V. Bakken, C. Adamo, J. Jaramillo, R. Gomperts, R. E. Stratmann, 
 O. Yazyev, A. J. Austin, R. Cammi, C. Pomelli, J. W. Ochterski, 
 R. L. Martin, K. Morokuma, V. G. Zakrzewski, G. A. Voth, 
 P. Salvador, J. J. Dannenberg, S. Dapprich, A. D. Daniels, 
 O. Farkas, J. B. Foresman, J. V. Ortiz, J. Cioslowski, 
 and D. J. Fox, Gaussian, Inc., Wallingford CT, 2013.
 
 ******************************************
 Gaussian 09:  ES64L-G09RevD.01 24-Apr-2013
                27-Apr-2015 
 ******************************************
 %NProcShared=8
 Will use up to    8 processors via shared memory.
 %Mem=500MW
 ----------------------------------------------------------------------
 #p uB971/6-311+G(d,p) Opt=(Tight, CalcAll) Freq GFInput Population=Non
 e Integral(Grid=UltraFine) Guess=MIX NoSymmetry
 ----------------------------------------------------------------------
 1/7=10,10=4,14=-1,18=20,19=15,26=4,38=1/1,3;
 2/9=110,12=2,15=1,17=6,18=5,40=1/2;
 3/5=4,6=6,7=111,11=2,16=1,24=10,25=1,30=1,71=2,74=-20,75=-5,116=2,140=1/1,2,3;
 4/13=-1/1;
 5/5=2,38=5/2;
 8/6=4,10=90,11=11/1;
 11/6=1,8=1,9=11,15=111,16=1,31=1/1,2,10;
 10/6=1,31=1/2;
 7/10=1,25=1,30=1/1,2,3,16;
 1/7=10,10=4,14=-1,18=20,19=15,26=4/3(3);
 2/9=110,15=1/2;
 7/8=1,9=1,25=1,30=1,44=-1/16;
 99//99;
 2/9=110,15=1/2;
 3/5=4,6=6,7=111,11=2,16=1,25=1,30=1,71=2,74=-20,75=-5,116=2,140=1/1,2,3;
 4/5=5,16=3,69=1/1;
 5/5=2,38=5/2;
 8/6=4,10=90,11=11/1;
 11/6=1,8=1,9=11,15=111,16=1,31=1/1,2,10;
 10/6=1,31=1/2;
 7/10=1,25=1,30=1/1,2,3,16;
 1/7=10,10=4,14=-1,18=20,19=15,26=4/3(-8);
 2/9=110,15=1/2;
 7/8=1,9=1,25=1,30=1,44=-1/16;
 99//99;
 Leave Link    1 at Mon Apr 27 15:33:46 2015, MaxMem=   524288000 cpu:         0.5
 (Enter /opt/g09/l101.exe)
 ----------------------------------------------------------------------
 W:\Data\additional_hydrocarbons\nist\enthalpy_estimation\success\fine\
 corr_b971_2465-56-7.g09
 ----------------------------------------------------------------------
 Symbolic Z-matrix:
 Charge =  0 Multiplicity = 3
 H                     1.64022   0.50126  -0.05554 
 C                     0.64581   0.67657   0.33466 
 H                    -0.14852   0.05337   0.72517 
 
 NAtoms=      3 NQM=        3 NQMF=       0 NMMI=      0 NMMIF=      0
                NMic=       0 NMicF=      0.
                    Isotopes and Nuclear Properties:
 (Nuclear quadrupole moments (NQMom) in fm**2, nuclear magnetic moments (NMagM)
  in nuclear magnetons)

  Atom         1           2           3
 IAtWgt=           1          12           1
 AtmWgt=   1.0078250  12.0000000   1.0078250
 NucSpn=           1           0           1
 AtZEff=   0.0000000   0.0000000   0.0000000
 NQMom=    0.0000000   0.0000000   0.0000000
 NMagM=    2.7928460   0.0000000   2.7928460
 AtZNuc=   1.0000000   6.0000000   1.0000000
 Leave Link  101 at Mon Apr 27 15:33:46 2015, MaxMem=   524288000 cpu:         1.9
 (Enter /opt/g09/l103.exe)

 GradGradGradGradGradGradGradGradGradGradGradGradGradGradGradGradGradGrad
 Berny optimization.
 Initialization pass.
                           ----------------------------
                           !    Initial Parameters    !
                           ! (Angstroms and Degrees)  !
 --------------------------                            --------------------------
 ! Name  Definition              Value          Derivative Info.                !
 --------------------------------------------------------------------------------
 ! R1    R(1,2)                  1.0825         calculate D2E/DX2 analytically  !
 ! R2    R(2,3)                  1.0825         calculate D2E/DX2 analytically  !
 ! A1    A(1,2,3)              135.3049         calculate D2E/DX2 analytically  !
 --------------------------------------------------------------------------------
 Trust Radius=3.00D-01 FncErr=1.00D-07 GrdErr=1.00D-06
 Number of steps in this run=     20 maximum allowed number of steps=    100.
 GradGradGradGradGradGradGradGradGradGradGradGradGradGradGradGradGradGrad

 Leave Link  103 at Mon Apr 27 15:33:47 2015, MaxMem=   524288000 cpu:         0.1
 (Enter /opt/g09/l202.exe)
                          Input orientation:                          
 ---------------------------------------------------------------------
 Center     Atomic      Atomic             Coordinates (Angstroms)
 Number     Number       Type             X           Y           Z
 ---------------------------------------------------------------------
      1          1           0        1.640220    0.501260   -0.055540
      2          6           0        0.645810    0.676570    0.334660
      3          1           0       -0.148520    0.053370    0.725170
 ---------------------------------------------------------------------
                    Distance matrix (angstroms):
                    1          2          3
     1  H    0.000000
     2  C    1.082516   0.000000
     3  H    2.002425   1.082514   0.000000
 Symmetry turned off by external request.
 Stoichiometry    CH2(3)
 Framework group  CS[SG(CH2)]
 Deg. of freedom     3
 Full point group                 CS      NOp   2
 Rotational constants (GHZ):   1728.5756825    250.1207357    218.5037672
 Leave Link  202 at Mon Apr 27 15:33:47 2015, MaxMem=   524288000 cpu:         0.0
 (Enter /opt/g09/l301.exe)
 Standard basis: 6-311+G(d,p) (5D, 7F)
 Ernie: Thresh=  0.10000D-02 Tol=  0.10000D-05 Strict=F.
 AO basis set in the form of general basis input (Overlap normalization):
      1 0
 S   3 1.00       0.000000000000
      0.3386500000D+02  0.2549381454D-01
      0.5094790000D+01  0.1903731086D+00
      0.1158790000D+01  0.8521614860D+00
 S   1 1.00       0.000000000000
      0.3258400000D+00  0.1000000000D+01
 S   1 1.00       0.000000000000
      0.1027410000D+00  0.1000000000D+01
 P   1 1.00       0.000000000000
      0.7500000000D+00  0.1000000000D+01
 ****
      2 0
 S   6 1.00       0.000000000000
      0.4563240000D+04  0.1966650249D-02
      0.6820240000D+03  0.1523060193D-01
      0.1549730000D+03  0.7612690966D-01
      0.4445530000D+02  0.2608010331D+00
      0.1302900000D+02  0.6164620782D+00
      0.1827730000D+01  0.2210060280D+00
 SP   3 1.00       0.000000000000
      0.2096420000D+02  0.1146600807D+00  0.4024869267D-01
      0.4803310000D+01  0.9199996477D+00  0.2375939567D+00
      0.1459330000D+01 -0.3030682134D-02  0.8158538515D+00
 SP   1 1.00       0.000000000000
      0.4834560000D+00  0.1000000000D+01  0.1000000000D+01
 SP   1 1.00       0.000000000000
      0.1455850000D+00  0.1000000000D+01  0.1000000000D+01
 SP   1 1.00       0.000000000000
      0.4380000000D-01  0.1000000000D+01  0.1000000000D+01
 D   1 1.00       0.000000000000
      0.6260000000D+00  0.1000000000D+01
 ****
      3 0
 S   3 1.00       0.000000000000
      0.3386500000D+02  0.2549381454D-01
      0.5094790000D+01  0.1903731086D+00
      0.1158790000D+01  0.8521614860D+00
 S   1 1.00       0.000000000000
      0.3258400000D+00  0.1000000000D+01
 S   1 1.00       0.000000000000
      0.1027410000D+00  0.1000000000D+01
 P   1 1.00       0.000000000000
      0.7500000000D+00  0.1000000000D+01
 ****

    34 basis functions,    52 primitive gaussians,    35 cartesian basis functions
     5 alpha electrons        3 beta electrons
       nuclear repulsion energy         6.1303547615 Hartrees.
 IExCor= 1614 DFT=T Ex+Corr=B971 ExCW=0 ScaHFX=  0.210000
 ScaDFX=  1.000000  1.000000  1.000000  1.000000 ScalE2=  1.000000  1.000000
 IRadAn=      5 IRanWt=     -1 IRanGd=            0 ICorTp=0 IEmpDi=  4
 NAtoms=    3 NActive=    3 NUniq=    3 SFac= 1.00D+00 NAtFMM=   60 NAOKFM=F Big=F
 Integral buffers will be    131072 words long.
 Raffenetti 2 integral format.
 Two-electron integral symmetry is turned off.
 Leave Link  301 at Mon Apr 27 15:33:47 2015, MaxMem=   524288000 cpu:         0.4
 (Enter /opt/g09/l302.exe)
 NPDir=0 NMtPBC=     1 NCelOv=     1 NCel=       1 NClECP=     1 NCelD=      1
         NCelK=      1 NCelE2=     1 NClLst=     1 CellRange=     0.0.
 One-electron integrals computed using PRISM.
 NBasis=    34 RedAO= T EigKep=  1.61D-02  NBF=    34
 NBsUse=    34 1.00D-06 EigRej= -1.00D+00 NBFU=    34
 Precomputing XC quadrature grid using
 IXCGrd= 4 IRadAn=           5 IRanWt=          -1 IRanGd=           0 AccXCQ= 0.00D+00.
 Generated NRdTot=       0 NPtTot=           0 NUsed=           0 NTot=          32
 NSgBfM=    35    35    35    35    35 MxSgAt=     3 MxSgA2=     3.
 Leave Link  302 at Mon Apr 27 15:33:47 2015, MaxMem=   524288000 cpu:         1.2
 (Enter /opt/g09/l303.exe)
 DipDrv:  MaxL=1.
 Leave Link  303 at Mon Apr 27 15:33:47 2015, MaxMem=   524288000 cpu:         0.3
 (Enter /opt/g09/l401.exe)
 ExpMin= 4.38D-02 ExpMax= 4.56D+03 ExpMxC= 6.82D+02 IAcc=3 IRadAn=         5 AccDes= 0.00D+00
 Harris functional with IExCor= 1614 and IRadAn=       5 diagonalized for initial guess.
 HarFok:  IExCor= 1614 AccDes= 0.00D+00 IRadAn=         5 IDoV= 1 UseB2=F ITyADJ=14
 ICtDFT=  3500011 ScaDFX=  1.000000  1.000000  1.000000  1.000000
 FoFCou: FMM=F IPFlag=           0 FMFlag=      100000 FMFlg1=           0
         NFxFlg=           0 DoJE=T BraDBF=F KetDBF=T FulRan=T
         wScrn=  0.000000 ICntrl=     500 IOpCl=  0 I1Cent=   200000004 NGrid=           0
         NMat0=    1 NMatS0=      1 NMatT0=    0 NMatD0=    1 NMtDS0=    0 NMtDT0=    0
 Symmetry not used in FoFCou.
 Harris En= -37.9037090699195    
 JPrj=0 DoOrth=F DoCkMO=T.
 Mixing orbitals, IMix= 1 IMixAn=  0 NRI=1 NE=    5 Coef=  7.07106781D-01  7.07106781D-01
 Mixing orbitals, IMix= 1 IMixAn=  0 NRI=1 NE=    3 Coef= -7.07106781D-01  7.07106781D-01
 Initial guess <Sx>= 0.0000 <Sy>= 0.0000 <Sz>= 1.0000 <S**2>= 2.0000 S= 1.0000
 Leave Link  401 at Mon Apr 27 15:33:47 2015, MaxMem=   524288000 cpu:         1.3
 (Enter /opt/g09/l502.exe)
 UHF open shell SCF:
 Using DIIS extrapolation, IDIIS=  1040.
 Two-electron integral symmetry not used.
 Keep R1 and R2 ints in memory in canonical form, NReq=1240043.
 IVT=       22721 IEndB=       22721 NGot=   524288000 MDV=   523910660
 LenX=   523910660 LenY=   523908994
 Requested convergence on RMS density matrix=1.00D-08 within 128 cycles.
 Requested convergence on MAX density matrix=1.00D-06.
 Requested convergence on             energy=1.00D-06.
 No special actions if energy rises.
 FoFCou: FMM=F IPFlag=           0 FMFlag=           0 FMFlg1=           0
         NFxFlg=           0 DoJE=F BraDBF=F KetDBF=F FulRan=T
         wScrn=  0.000000 ICntrl=     600 IOpCl=  0 I1Cent=           0 NGrid=           0
         NMat0=    1 NMatS0=    595 NMatT0=    0 NMatD0=    1 NMtDS0=    0 NMtDT0=    0
 Symmetry not used in FoFCou.

 Cycle   1  Pass 1  IDiag  1:
 E= -38.8731603842193    
 DIIS: error= 1.02D-01 at cycle   1 NSaved=   1.
 NSaved= 1 IEnMin= 1 EnMin= -38.8731603842193     IErMin= 1 ErrMin= 1.02D-01
 ErrMax= 1.02D-01  0.00D+00 EMaxC= 1.00D-01 BMatC= 4.09D-01 BMatP= 4.09D-01
 IDIUse=3 WtCom= 0.00D+00 WtEn= 1.00D+00
 Coeff-Com:  0.100D+01
 Coeff-En:   0.100D+01
 Coeff:      0.100D+01
 Gap=     0.051 Goal=   None    Shift=    0.000
 Gap=     0.087 Goal=   None    Shift=    0.000
 GapD=    0.051 DampG=0.500 DampE=0.250 DampFc=0.2500 IDamp=-1.
 Damping current iteration by 2.50D-01
 RMSDP=3.96D-02 MaxDP=1.24D+00              OVMax= 6.52D-01

 Cycle   2  Pass 1  IDiag  1:
 E= -38.9344097099078     Delta-E=       -0.061249325689 Rises=F Damp=T
 DIIS: error= 7.29D-02 at cycle   2 NSaved=   2.
 NSaved= 2 IEnMin= 2 EnMin= -38.9344097099078     IErMin= 2 ErrMin= 7.29D-02
 ErrMax= 7.29D-02  0.00D+00 EMaxC= 1.00D-01 BMatC= 2.01D-01 BMatP= 4.09D-01
 IDIUse=3 WtCom= 2.71D-01 WtEn= 7.29D-01
 Coeff-Com: -0.181D+01 0.281D+01
 Coeff-En:   0.000D+00 0.100D+01
 Coeff:     -0.491D+00 0.149D+01
 Gap=     0.262 Goal=   None    Shift=    0.000
 Gap=     0.299 Goal=   None    Shift=    0.000
 RMSDP=2.99D-02 MaxDP=9.32D-01 DE=-6.12D-02 OVMax= 6.85D-02

 Cycle   3  Pass 1  IDiag  1:
 E= -39.1346364958317     Delta-E=       -0.200226785924 Rises=F Damp=F
 DIIS: error= 1.39D-02 at cycle   3 NSaved=   3.
 NSaved= 3 IEnMin= 3 EnMin= -39.1346364958317     IErMin= 3 ErrMin= 1.39D-02
 ErrMax= 1.39D-02  0.00D+00 EMaxC= 1.00D-01 BMatC= 1.88D-02 BMatP= 2.01D-01
 IDIUse=3 WtCom= 8.61D-01 WtEn= 1.39D-01
 Coeff-Com:  0.109D+01-0.143D+01 0.134D+01
 Coeff-En:   0.000D+00 0.000D+00 0.100D+01
 Coeff:      0.941D+00-0.123D+01 0.129D+01
 Gap=     0.261 Goal=   None    Shift=    0.000
 Gap=     0.324 Goal=   None    Shift=    0.000
 RMSDP=2.71D-03 MaxDP=3.38D-02 DE=-2.00D-01 OVMax= 8.85D-02

 Cycle   4  Pass 1  IDiag  1:
 E= -39.1439366964056     Delta-E=       -0.009300200574 Rises=F Damp=F
 DIIS: error= 3.48D-03 at cycle   4 NSaved=   4.
 NSaved= 4 IEnMin= 4 EnMin= -39.1439366964056     IErMin= 4 ErrMin= 3.48D-03
 ErrMax= 3.48D-03  0.00D+00 EMaxC= 1.00D-01 BMatC= 1.17D-03 BMatP= 1.88D-02
 IDIUse=3 WtCom= 9.65D-01 WtEn= 3.48D-02
 Coeff-Com: -0.577D-01 0.671D-01 0.673D-01 0.923D+00
 Coeff-En:   0.000D+00 0.000D+00 0.000D+00 0.100D+01
 Coeff:     -0.557D-01 0.647D-01 0.650D-01 0.926D+00
 Gap=     0.272 Goal=   None    Shift=    0.000
 Gap=     0.336 Goal=   None    Shift=    0.000
 RMSDP=6.81D-04 MaxDP=6.71D-03 DE=-9.30D-03 OVMax= 2.18D-02

 Cycle   5  Pass 1  IDiag  1:
 E= -39.1445629516834     Delta-E=       -0.000626255278 Rises=F Damp=F
 DIIS: error= 1.24D-03 at cycle   5 NSaved=   5.
 NSaved= 5 IEnMin= 5 EnMin= -39.1445629516834     IErMin= 5 ErrMin= 1.24D-03
 ErrMax= 1.24D-03  0.00D+00 EMaxC= 1.00D-01 BMatC= 1.31D-04 BMatP= 1.17D-03
 IDIUse=3 WtCom= 9.88D-01 WtEn= 1.24D-02
 Coeff-Com:  0.209D-01-0.295D-01-0.613D-01-0.143D-01 0.108D+01
 Coeff-En:   0.000D+00 0.000D+00 0.000D+00 0.000D+00 0.100D+01
 Coeff:      0.206D-01-0.292D-01-0.605D-01-0.141D-01 0.108D+01
 Gap=     0.271 Goal=   None    Shift=    0.000
 Gap=     0.336 Goal=   None    Shift=    0.000
 RMSDP=2.32D-04 MaxDP=2.82D-03 DE=-6.26D-04 OVMax= 1.06D-02

 Cycle   6  Pass 1  IDiag  1:
 E= -39.1446411444613     Delta-E=       -0.000078192778 Rises=F Damp=F
 DIIS: error= 1.41D-04 at cycle   6 NSaved=   6.
 NSaved= 6 IEnMin= 6 EnMin= -39.1446411444613     IErMin= 6 ErrMin= 1.41D-04
 ErrMax= 1.41D-04  0.00D+00 EMaxC= 1.00D-01 BMatC= 2.58D-06 BMatP= 1.31D-04
 IDIUse=3 WtCom= 9.99D-01 WtEn= 1.41D-03
 Coeff-Com: -0.977D-03 0.159D-02 0.596D-03-0.297D-01-0.455D-01 0.107D+01
 Coeff-En:   0.000D+00 0.000D+00 0.000D+00 0.000D+00 0.000D+00 0.100D+01
 Coeff:     -0.975D-03 0.159D-02 0.595D-03-0.297D-01-0.454D-01 0.107D+01
 Gap=     0.271 Goal=   None    Shift=    0.000
 Gap=     0.335 Goal=   None    Shift=    0.000
 RMSDP=3.99D-05 MaxDP=3.54D-04 DE=-7.82D-05 OVMax= 1.22D-03

 Cycle   7  Pass 1  IDiag  1:
 E= -39.1446426365467     Delta-E=       -0.000001492085 Rises=F Damp=F
 DIIS: error= 4.28D-05 at cycle   7 NSaved=   7.
 NSaved= 7 IEnMin= 7 EnMin= -39.1446426365467     IErMin= 7 ErrMin= 4.28D-05
 ErrMax= 4.28D-05  0.00D+00 EMaxC= 1.00D-01 BMatC= 1.27D-07 BMatP= 2.58D-06
 IDIUse=1 WtCom= 1.00D+00 WtEn= 0.00D+00
 Coeff-Com: -0.983D-03 0.146D-02 0.192D-02-0.288D-02-0.375D-01 0.105D+00
 Coeff-Com:  0.932D+00
 Coeff:     -0.983D-03 0.146D-02 0.192D-02-0.288D-02-0.375D-01 0.105D+00
 Coeff:      0.932D+00
 Gap=     0.271 Goal=   None    Shift=    0.000
 Gap=     0.335 Goal=   None    Shift=    0.000
 RMSDP=6.06D-06 MaxDP=5.87D-05 DE=-1.49D-06 OVMax= 1.67D-04

 Cycle   8  Pass 1  IDiag  1:
 E= -39.1446426913932     Delta-E=       -0.000000054847 Rises=F Damp=F
 DIIS: error= 8.71D-06 at cycle   8 NSaved=   8.
 NSaved= 8 IEnMin= 8 EnMin= -39.1446426913932     IErMin= 8 ErrMin= 8.71D-06
 ErrMax= 8.71D-06  0.00D+00 EMaxC= 1.00D-01 BMatC= 7.94D-09 BMatP= 1.27D-07
 IDIUse=1 WtCom= 1.00D+00 WtEn= 0.00D+00
 Coeff-Com: -0.935D-04 0.131D-03-0.250D-04 0.111D-02 0.630D-04-0.492D-01
 Coeff-Com:  0.841D-01 0.964D+00
 Coeff:     -0.935D-04 0.131D-03-0.250D-04 0.111D-02 0.630D-04-0.492D-01
 Coeff:      0.841D-01 0.964D+00
 Gap=     0.271 Goal=   None    Shift=    0.000
 Gap=     0.335 Goal=   None    Shift=    0.000
 RMSDP=1.70D-06 MaxDP=1.86D-05 DE=-5.48D-08 OVMax= 3.44D-05

 Cycle   9  Pass 1  IDiag  1:
 E= -39.1446426947814     Delta-E=       -0.000000003388 Rises=F Damp=F
 DIIS: error= 1.58D-06 at cycle   9 NSaved=   9.
 NSaved= 9 IEnMin= 9 EnMin= -39.1446426947814     IErMin= 9 ErrMin= 1.58D-06
 ErrMax= 1.58D-06  0.00D+00 EMaxC= 1.00D-01 BMatC= 2.14D-10 BMatP= 7.94D-09
 IDIUse=1 WtCom= 1.00D+00 WtEn= 0.00D+00
 Coeff-Com:  0.307D-04-0.454D-04-0.802D-04-0.131D-04 0.116D-02 0.444D-03
 Coeff-Com: -0.402D-01-0.787D-01 0.112D+01
 Coeff:      0.307D-04-0.454D-04-0.802D-04-0.131D-04 0.116D-02 0.444D-03
 Coeff:     -0.402D-01-0.787D-01 0.112D+01
 Gap=     0.271 Goal=   None    Shift=    0.000
 Gap=     0.335 Goal=   None    Shift=    0.000
 RMSDP=3.59D-07 MaxDP=3.92D-06 DE=-3.39D-09 OVMax= 8.95D-06

 Cycle  10  Pass 1  IDiag  1:
 E= -39.1446426949157     Delta-E=       -0.000000000134 Rises=F Damp=F
 DIIS: error= 2.73D-07 at cycle  10 NSaved=  10.
 NSaved=10 IEnMin=10 EnMin= -39.1446426949157     IErMin=10 ErrMin= 2.73D-07
 ErrMax= 2.73D-07  0.00D+00 EMaxC= 1.00D-01 BMatC= 1.11D-11 BMatP= 2.14D-10
 IDIUse=1 WtCom= 1.00D+00 WtEn= 0.00D+00
 Coeff-Com: -0.782D-05 0.953D-05-0.943D-05-0.321D-04 0.108D-03 0.169D-02
 Coeff-Com: -0.709D-02-0.356D-01 0.764D-01 0.965D+00
 Coeff:     -0.782D-05 0.953D-05-0.943D-05-0.321D-04 0.108D-03 0.169D-02
 Coeff:     -0.709D-02-0.356D-01 0.764D-01 0.965D+00
 Gap=     0.271 Goal=   None    Shift=    0.000
 Gap=     0.335 Goal=   None    Shift=    0.000
 RMSDP=6.85D-08 MaxDP=5.75D-07 DE=-1.34D-10 OVMax= 1.54D-06

 Cycle  11  Pass 1  IDiag  1:
 E= -39.1446426949208     Delta-E=       -0.000000000005 Rises=F Damp=F
 DIIS: error= 8.24D-08 at cycle  11 NSaved=  11.
 NSaved=11 IEnMin=11 EnMin= -39.1446426949208     IErMin=11 ErrMin= 8.24D-08
 ErrMax= 8.24D-08  0.00D+00 EMaxC= 1.00D-01 BMatC= 7.86D-13 BMatP= 1.11D-11
 IDIUse=1 WtCom= 1.00D+00 WtEn= 0.00D+00
 Coeff-Com:  0.112D-05-0.124D-05 0.850D-05 0.608D-06-0.882D-04 0.184D-03
 Coeff-Com:  0.177D-02 0.213D-02-0.659D-01 0.124D+00 0.938D+00
 Coeff:      0.112D-05-0.124D-05 0.850D-05 0.608D-06-0.882D-04 0.184D-03
 Coeff:      0.177D-02 0.213D-02-0.659D-01 0.124D+00 0.938D+00
 Gap=     0.271 Goal=   None    Shift=    0.000
 Gap=     0.335 Goal=   None    Shift=    0.000
 RMSDP=1.54D-08 MaxDP=1.49D-07 DE=-5.12D-12 OVMax= 4.03D-07

 Cycle  12  Pass 1  IDiag  1:
 E= -39.1446426949211     Delta-E=        0.000000000000 Rises=F Damp=F
 DIIS: error= 8.14D-09 at cycle  12 NSaved=  12.
 NSaved=12 IEnMin=12 EnMin= -39.1446426949211     IErMin=12 ErrMin= 8.14D-09
 ErrMax= 8.14D-09  0.00D+00 EMaxC= 1.00D-01 BMatC= 6.84D-15 BMatP= 7.86D-13
 IDIUse=1 WtCom= 1.00D+00 WtEn= 0.00D+00
 Coeff-Com: -0.101D-06 0.158D-06-0.906D-06-0.707D-07 0.645D-05-0.318D-04
 Coeff-Com:  0.656D-05 0.553D-03 0.184D-02-0.274D-01-0.152D-01 0.104D+01
 Coeff:     -0.101D-06 0.158D-06-0.906D-06-0.707D-07 0.645D-05-0.318D-04
 Coeff:      0.656D-05 0.553D-03 0.184D-02-0.274D-01-0.152D-01 0.104D+01
 Gap=     0.271 Goal=   None    Shift=    0.000
 Gap=     0.335 Goal=   None    Shift=    0.000
 RMSDP=1.99D-09 MaxDP=2.17D-08 DE=-3.27D-13 OVMax= 3.61D-08

 SCF Done:  E(UB971) =  -39.1446426949     A.U. after   12 cycles
            NFock= 12  Conv=0.20D-08     -V/T= 2.0035
 <Sx>= 0.0000 <Sy>= 0.0000 <Sz>= 1.0000 <S**2>= 2.0062 S= 1.0021
 <L.S>= 0.000000000000E+00
 KE= 3.900726691135D+01 PE=-1.029213806012D+02 EE= 1.863911623340D+01
 Annihilation of the first spin contaminant:
 S**2 before annihilation     2.0062,   after     2.0000
 Leave Link  502 at Mon Apr 27 15:33:48 2015, MaxMem=   524288000 cpu:         8.7
 (Enter /opt/g09/l801.exe)
 DoSCS=F DFT=T ScalE2(SS,OS)=  1.000000  1.000000
 Range of M.O.s used for correlation:     1    34
 NBasis=    34 NAE=     5 NBE=     3 NFC=     0 NFV=     0
 NROrb=     34 NOA=     5 NOB=     3 NVA=    29 NVB=    31
 Leave Link  801 at Mon Apr 27 15:33:48 2015, MaxMem=   524288000 cpu:         0.3
 (Enter /opt/g09/l1101.exe)
 Using compressed storage, NAtomX=     3.
 Will process      4 centers per pass.
 Leave Link 1101 at Mon Apr 27 15:33:48 2015, MaxMem=   524288000 cpu:         1.2
 (Enter /opt/g09/l1102.exe)
 Symmetrizing basis deriv contribution to polar:
 IMax=3 JMax=2 DiffMx= 0.00D+00
 Leave Link 1102 at Mon Apr 27 15:33:48 2015, MaxMem=   524288000 cpu:         0.3
 (Enter /opt/g09/l1110.exe)
 Forming Gx(P) for the SCF density, NAtomX=     3.
 Integral derivatives from FoFJK, PRISM(SPDF).
 Do as many integral derivatives as possible in FoFJK.
 G2DrvN: MDV=     524287872.
 G2DrvN: will do     4 centers at a time, making    1 passes.
 Calling FoFCou, ICntrl=  3107 FMM=F I1Cent=   0 AccDes= 0.00D+00.
 FoFJK:  IHMeth= 1 ICntrl=    3107 DoSepK=F KAlg= 0 I1Cent=   0 FoldK=F
 IRaf=         0 NMat=   1 IRICut=       1 DoRegI=T DoRafI=F ISym2E= 0.
 FoFCou: FMM=F IPFlag=           0 FMFlag=      100000 FMFlg1=           0
         NFxFlg=           0 DoJE=F BraDBF=F KetDBF=F FulRan=T
         wScrn=  0.000000 ICntrl=    3107 IOpCl=  1 I1Cent=           0 NGrid=           0
         NMat0=    1 NMatS0=      1 NMatT0=    0 NMatD0=    1 NMtDS0=    0 NMtDT0=    0
 Symmetry not used in FoFCou.
 End of G2Drv F.D. properties file   721 does not exist.
 End of G2Drv F.D. properties file   722 does not exist.
 End of G2Drv F.D. properties file   788 does not exist.
 Leave Link 1110 at Mon Apr 27 15:33:49 2015, MaxMem=   524288000 cpu:         5.9
 (Enter /opt/g09/l1002.exe)
 Minotr:  UHF open shell wavefunction.
          IDoAtm=111
          Direct CPHF calculation.
          Differentiating once with respect to electric field.
                with respect to dipole field.
          Differentiating once with respect to nuclear coordinates.
          Requested convergence is 1.0D-08 RMS, and 1.0D-07 maximum.
          Secondary convergence is 1.0D-12 RMS, and 1.0D-12 maximum.
          NewPWx=T KeepS1=F KeepF1=F KeepIn=T MapXYZ=F SortEE=F KeepMc=T.
          MDV=     524287898 using IRadAn=       1.
 Generate precomputed XC quadrature information.
 Keep R1 and R2 ints in memory in canonical form, NReq=1215432.
 FoFCou: FMM=F IPFlag=           0 FMFlag=           0 FMFlg1=           0
         NFxFlg=           0 DoJE=F BraDBF=F KetDBF=F FulRan=T
         wScrn=  0.000000 ICntrl=     600 IOpCl=  0 I1Cent=           0 NGrid=           0
         NMat0=    1 NMatS0=    595 NMatT0=    0 NMatD0=    1 NMtDS0=    0 NMtDT0=    0
 Symmetry not used in FoFCou.
          Solving linear equations simultaneously, MaxMat=       0.
          There are    12 degrees of freedom in the 1st order CPHF.  IDoFFX=6 NUNeed=     3.
      9 vectors produced by pass  0 Test12= 1.98D-15 8.33D-09 XBig12= 1.23D+01 2.14D+00.
 AX will form     9 AO Fock derivatives at one time.
      9 vectors produced by pass  1 Test12= 1.98D-15 8.33D-09 XBig12= 7.46D-01 3.88D-01.
      9 vectors produced by pass  2 Test12= 1.98D-15 8.33D-09 XBig12= 4.80D-03 2.35D-02.
      9 vectors produced by pass  3 Test12= 1.98D-15 8.33D-09 XBig12= 2.28D-05 1.44D-03.
      9 vectors produced by pass  4 Test12= 1.98D-15 8.33D-09 XBig12= 8.12D-08 8.65D-05.
      9 vectors produced by pass  5 Test12= 1.98D-15 8.33D-09 XBig12= 1.91D-10 4.49D-06.
      4 vectors produced by pass  6 Test12= 1.98D-15 8.33D-09 XBig12= 2.74D-13 1.81D-07.
      1 vectors produced by pass  7 Test12= 1.98D-15 8.33D-09 XBig12= 8.56D-16 8.90D-09.
 InvSVY:  IOpt=1 It=  1 EMax= 1.33D-15
 Solved reduced A of dimension    59 with     9 vectors.
 FullF1:  Do perturbations    1 to     3.
 Isotropic polarizability for W=    0.000000       10.80 Bohr**3.
 End of Minotr F.D. properties file   721 does not exist.
 End of Minotr F.D. properties file   722 does not exist.
 End of Minotr F.D. properties file   788 does not exist.
 Leave Link 1002 at Mon Apr 27 15:33:50 2015, MaxMem=   524288000 cpu:         7.0
 (Enter /opt/g09/l701.exe)
 Compute integral second derivatives.
 ... and contract with generalized density number  0.
 Leave Link  701 at Mon Apr 27 15:33:50 2015, MaxMem=   524288000 cpu:         2.0
 (Enter /opt/g09/l702.exe)
 L702 exits ... SP integral derivatives will be done elsewhere.
 Leave Link  702 at Mon Apr 27 15:33:50 2015, MaxMem=   524288000 cpu:         0.3
 (Enter /opt/g09/l703.exe)
 Compute integral second derivatives, UseDBF=F ICtDFT=           0.
 Integral derivatives from FoFJK, PRISM(SPDF).
 Calling FoFJK, ICntrl=    100127 FMM=F ISym2X=0 I1Cent= 0 IOpClX= 1 NMat=1 NMatS=1 NMatT=0.
 FoFJK:  IHMeth= 1 ICntrl=  100127 DoSepK=F KAlg= 0 I1Cent=   0 FoldK=F
 IRaf=         0 NMat=   1 IRICut=       1 DoRegI=T DoRafI=F ISym2E= 0.
 FoFCou: FMM=F IPFlag=           0 FMFlag=      100000 FMFlg1=         800
         NFxFlg=           0 DoJE=F BraDBF=F KetDBF=F FulRan=T
         wScrn=  0.000000 ICntrl=  100127 IOpCl=  1 I1Cent=           0 NGrid=           0
         NMat0=    1 NMatS0=      1 NMatT0=    0 NMatD0=    1 NMtDS0=    0 NMtDT0=    0
 Symmetry not used in FoFCou.
 Leave Link  703 at Mon Apr 27 15:33:52 2015, MaxMem=   524288000 cpu:        12.2
 (Enter /opt/g09/l716.exe)
 Dipole        = 6.85522621D-02-2.73591614D-01 1.06475158D-04
 Polarizability= 1.23474292D+01 7.11929874D-01 9.68252079D+00
                -1.08248179D+00-2.71110976D-01 1.03622957D+01
 -------------------------------------------------------------------
 Center     Atomic                   Forces (Hartrees/Bohr)
 Number     Number              X              Y              Z
 -------------------------------------------------------------------
      1        1          -0.000001945    0.000000988    0.000000884
      2        6           0.000001407   -0.000001882   -0.000000743
      3        1           0.000000538    0.000000895   -0.000000140
 -------------------------------------------------------------------
 Cartesian Forces:  Max     0.000001945 RMS     0.000001189
 Force constants in Cartesian coordinates: 
                1             2             3             4             5 
      1  0.311846D+00
      2 -0.457285D-01  0.250384D-01
      3 -0.123336D+00  0.161934D-01  0.489614D-01
      4 -0.310743D+00  0.616925D-01  0.121229D+00  0.519724D+00
      5  0.350181D-01 -0.337523D-01 -0.108946D-01  0.936203D-01  0.169186D+00
      6  0.123987D+00 -0.218461D-01 -0.486509D-01 -0.223078D+00 -0.559033D-01
      7 -0.110344D-02 -0.159640D-01  0.210748D-02 -0.208981D+00 -0.128638D+00
      8  0.107105D-01  0.871387D-02 -0.529879D-02 -0.155313D+00 -0.135433D+00
      9 -0.650433D-03  0.565268D-02 -0.310512D-03  0.101849D+00  0.667979D-01
                6             7             8             9 
      6  0.973707D-01
      7  0.990911D-01  0.210084D+00
      8  0.777494D-01  0.144602D+00  0.126720D+00
      9 -0.487198D-01 -0.101199D+00 -0.724506D-01  0.490303D-01
 FormGI is forming the generalized inverse of G from B-inverse, IUseBI=4.
 Force constants in internal coordinates: 
                1             2             3 
      1  0.367342D+00
      2 -0.705261D-02  0.367336D+00
      3  0.158138D-01  0.158157D-01  0.774448D-01
 Leave Link  716 at Mon Apr 27 15:33:52 2015, MaxMem=   524288000 cpu:         0.3
 (Enter /opt/g09/l103.exe)

 GradGradGradGradGradGradGradGradGradGradGradGradGradGradGradGradGradGrad
 Berny optimization.
 Red2BG is reusing G-inverse.
 Internal  Forces:  Max     0.000002237 RMS     0.000001535
 Search for a local minimum.
 Step number   1 out of a maximum of   20
 All quantities printed in internal units (Hartrees-Bohrs-Radians)
 RMS Force = .15346D-05 SwitMx=.10000D-02 MixMth= 2
 Mixed Optimization -- En-DIIS/RFO-DIIS
 Second derivative matrix not updated -- analytic derivatives used.
 The second derivative matrix:
                          R1        R2        A1
           R1           0.36734
           R2          -0.00705   0.36734
           A1           0.01581   0.01582   0.07744
 ITU=  0
     Eigenvalues ---    0.07569   0.36204   0.37439
 RFO step:  Lambda= 0.00000000D+00 EMin= 7.56872168D-02
 Linear search not attempted -- first point.
 Iteration  1 RMS(Cart)=  0.00000797 RMS(Int)=  0.00000000
 Iteration  2 RMS(Cart)=  0.00000000 RMS(Int)=  0.00000000
 ITry= 1 IFail=0 DXMaxC= 1.05D-05 DCOld= 1.00D+10 DXMaxT= 3.00D-01 DXLimC= 3.00D+00 Rises=F
 Variable       Old X    -DE/DX   Delta X   Delta X   Delta X     New X
                                 (Linear)    (Quad)   (Total)
    R1        2.04566   0.00000   0.00000  -0.00001  -0.00001   2.04565
    R2        2.04565   0.00000   0.00000   0.00000   0.00000   2.04565
    A1        2.36152   0.00000   0.00000   0.00002   0.00002   2.36153
         Item               Value     Threshold  Converged?
 Maximum Force            0.000002     0.000015     YES
 RMS     Force            0.000002     0.000010     YES
 Maximum Displacement     0.000011     0.000060     YES
 RMS     Displacement     0.000008     0.000040     YES
 Predicted change in Energy=-1.744721D-11
 Optimization completed.
    -- Stationary point found.
                           ----------------------------
                           !   Optimized Parameters   !
                           ! (Angstroms and Degrees)  !
 --------------------------                            --------------------------
 ! Name  Definition              Value          Derivative Info.                !
 --------------------------------------------------------------------------------
 ! R1    R(1,2)                  1.0825         -DE/DX =    0.0                 !
 ! R2    R(2,3)                  1.0825         -DE/DX =    0.0                 !
 ! A1    A(1,2,3)              135.3049         -DE/DX =    0.0                 !
 --------------------------------------------------------------------------------
 Lowest energy point so far.  Saving SCF results.
 GradGradGradGradGradGradGradGradGradGradGradGradGradGradGradGradGradGrad

 Largest change from initial coordinates is atom    0       0.000 Angstoms.
 Leave Link  103 at Mon Apr 27 15:33:52 2015, MaxMem=   524288000 cpu:         0.0
 (Enter /opt/g09/l202.exe)
                          Input orientation:                          
 ---------------------------------------------------------------------
 Center     Atomic      Atomic             Coordinates (Angstroms)
 Number     Number       Type             X           Y           Z
 ---------------------------------------------------------------------
      1          1           0        1.640220    0.501260   -0.055540
      2          6           0        0.645810    0.676570    0.334660
      3          1           0       -0.148520    0.053370    0.725170
 ---------------------------------------------------------------------
                    Distance matrix (angstroms):
                    1          2          3
     1  H    0.000000
     2  C    1.082516   0.000000
     3  H    2.002425   1.082514   0.000000
 Symmetry turned off by external request.
 Stoichiometry    CH2(3)
 Framework group  CS[SG(CH2)]
 Deg. of freedom     3
 Full point group                 CS      NOp   2
 Rotational constants (GHZ):   1728.5756825    250.1207357    218.5037672
 Leave Link  202 at Mon Apr 27 15:33:52 2015, MaxMem=   524288000 cpu:         0.0
 (Enter /opt/g09/l716.exe)
 Dipole        = 6.85522621D-02-2.73591614D-01 1.06475158D-04
 Polarizability= 1.23474292D+01 7.11929874D-01 9.68252079D+00
                -1.08248179D+00-2.71110976D-01 1.03622957D+01
 Full mass-weighted force constant matrix:
 Low frequencies ---  -22.2031   -8.3664    0.0005    0.0008    0.0014   16.1665
 Low frequencies --- 1043.9971 3106.1250 3350.6447
 Diagonal vibrational polarizability:
        0.0219620       0.3369095       0.0001550
 Harmonic frequencies (cm**-1), IR intensities (KM/Mole), Raman scattering
 activities (A**4/AMU), depolarization ratios for plane and unpolarized
 incident light, reduced masses (AMU), force constants (mDyne/A),
 and normal coordinates:
                      1                      2                      3
                      A                      A                      A
 Frequencies --   1043.9970              3106.1250              3350.6447
 Red. masses --      1.1377                 1.0259                 1.1389
 Frc consts  --      0.7306                 5.8314                 7.5334
 IR Inten    --     14.4075                 0.8161                 0.4248
  Atom  AN      X      Y      Z        X      Y      Z        X      Y      Z
     1   1     0.09   0.69  -0.11     0.65  -0.09  -0.26    -0.65   0.11   0.25
     2   6     0.03  -0.11   0.00    -0.01   0.04   0.00     0.10   0.02  -0.04
     3   1    -0.40   0.57   0.11    -0.53  -0.38   0.26    -0.52  -0.40   0.25

 -------------------
 - Thermochemistry -
 -------------------
 Temperature   298.150 Kelvin.  Pressure   1.00000 Atm.
 Atom     1 has atomic number  1 and mass   1.00783
 Atom     2 has atomic number  6 and mass  12.00000
 Atom     3 has atomic number  1 and mass   1.00783
 Molecular mass:    14.01565 amu.
 Principal axes and moments of inertia in atomic units:
                           1         2         3
     Eigenvalues --     1.04406   7.21548   8.25954
           X            0.89329  -0.24305   0.37811
           Y            0.22367   0.97001   0.09510
           Z           -0.38988  -0.00038   0.92086
 This molecule is an asymmetric top.
 Rotational symmetry number  1.
 Rotational temperatures (Kelvin)     82.95845    12.00389    10.48651
 Rotational constants (GHZ):        1728.57568   250.12074   218.50377
 Zero-point vibrational energy      44864.5 (Joules/Mol)
                                   10.72288 (Kcal/Mol)
 Vibrational temperatures:   1502.08  4469.02  4820.82
          (Kelvin)
 
 Zero-point correction=                           0.017088 (Hartree/Particle)
 Thermal correction to Energy=                    0.019952
 Thermal correction to Enthalpy=                  0.020896
 Thermal correction to Gibbs Free Energy=        -0.001925
 Sum of electronic and zero-point Energies=            -39.127555
 Sum of electronic and thermal Energies=               -39.124691
 Sum of electronic and thermal Enthalpies=             -39.123747
 Sum of electronic and thermal Free Energies=          -39.146567
 
                     E (Thermal)             CV                S
                      KCal/Mol        Cal/Mol-Kelvin    Cal/Mol-Kelvin
 Total                   12.520              6.293             48.029
 Electronic               0.000              0.000              2.183
 Translational            0.889              2.981             33.861
 Rotational               0.889              2.981             11.907
 Vibrational             10.742              0.332              0.078
                       Q            Log10(Q)             Ln(Q)
 Total Bot       0.767757D+01          0.885224          2.038303
 Total V=0       0.556088D+09          8.745143         20.136436
 Vib (Bot)       0.138966D-07         -7.857093        -18.091625
 Vib (V=0)       0.100653D+01          0.002827          0.006508
 Electronic      0.300000D+01          0.477121          1.098612
 Translational   0.206241D+07          6.314375         14.539386
 Rotational      0.892936D+02          1.950820          4.491930
 
                    W:\Data\additional_hydrocarbons\nist\enthalpy_estimation\succ
 ess\fine\corr_b971_2465-56-7.g09
                                                             IR Spectrum
 
     3         3                                                                             1                                       
     3         1                                                                             0                                       
     5         0                                                                             4                                       
     1         6                                                                             4                                       
 
     X         X                                                                             X                                       
                                                                                             X                                       
                                                                                             X                                       
                                                                                             X                                       
                                                                                             X                                       
                                                                                             X                                       
                                                                                             X                                       
                                                                                             X                                       
                                                                                             X                                       
                                                                                             X                                       
                                                                                             X                                       
                                                                                             X                                       
                                                                                             X                                       
                                                                                             X                                       
                                                                                             X                                       
                                                                                             X                                       
                                                                                             X                                       
                                                                                             X                                       
                                                                                             X                                       
                                                                                             X                                       
 
 -------------------------------------------------------------------
 Center     Atomic                   Forces (Hartrees/Bohr)
 Number     Number              X              Y              Z
 -------------------------------------------------------------------
      1        1          -0.000001945    0.000000988    0.000000884
      2        6           0.000001407   -0.000001882   -0.000000743
      3        1           0.000000538    0.000000895   -0.000000140
 -------------------------------------------------------------------
 Cartesian Forces:  Max     0.000001945 RMS     0.000001189
 Force constants in Cartesian coordinates: 
                1             2             3             4             5 
      1  0.311846D+00
      2 -0.457285D-01  0.250384D-01
      3 -0.123336D+00  0.161934D-01  0.489614D-01
      4 -0.310743D+00  0.616925D-01  0.121229D+00  0.519724D+00
      5  0.350181D-01 -0.337523D-01 -0.108946D-01  0.936203D-01  0.169186D+00
      6  0.123987D+00 -0.218461D-01 -0.486509D-01 -0.223078D+00 -0.559033D-01
      7 -0.110344D-02 -0.159640D-01  0.210748D-02 -0.208981D+00 -0.128638D+00
      8  0.107105D-01  0.871387D-02 -0.529879D-02 -0.155313D+00 -0.135433D+00
      9 -0.650433D-03  0.565268D-02 -0.310512D-03  0.101849D+00  0.667979D-01
                6             7             8             9 
      6  0.973707D-01
      7  0.990911D-01  0.210084D+00
      8  0.777494D-01  0.144602D+00  0.126720D+00
      9 -0.487198D-01 -0.101199D+00 -0.724506D-01  0.490303D-01
 Red2BG is reusing G-inverse.
 Force constants in internal coordinates: 
                1             2             3 
      1  0.367342D+00
      2 -0.705261D-02  0.367336D+00
      3  0.158138D-01  0.158157D-01  0.774448D-01
 Leave Link  716 at Mon Apr 27 15:33:52 2015, MaxMem=   524288000 cpu:         0.3
 (Enter /opt/g09/l9999.exe)
 1\1\GINC-HOLBEIN\Freq\UB971\6-311+G(d,p)\C1H2(3)\PB556\27-Apr-2015\0\\
 #p uB971/6-311+G(d,p) Opt=(Tight, CalcAll) Freq GFInput Population=Non
 e Integral(Grid=UltraFine) Guess=MIX NoSymmetry\\W:\Data\additional_hy
 drocarbons\nist\enthalpy_estimation\success\fine\corr_b971_2465-56-7.g
 09\\0,3\H,1.64022,0.50126,-0.05554\C,0.64581,0.67657,0.33466\H,-0.1485
 2,0.05337,0.72517\\Version=ES64L-G09RevD.01\HF=-39.1446427\S2=2.00624\
 S2-1=0.\S2A=2.000011\RMSD=1.991e-09\RMSF=1.189e-06\ZeroPoint=0.017088\
 Thermal=0.0199516\Dipole=0.0685523,-0.2735916,0.0001065\DipoleDeriv=0.
 0435057,0.0019984,0.056322,0.0457386,0.0956263,-0.0099308,0.0518459,0.
 008025,0.159108,-0.1184792,0.0109375,-0.1013301,0.0109775,-0.1598263,-
 0.0254881,-0.1013479,-0.0254603,-0.3183398,0.0749735,-0.0129359,0.0450
 082,-0.0567161,0.0641999,0.0354189,0.0495021,0.0174353,0.1592319\Polar
 =12.3474292,0.7119299,9.6825208,-1.0824818,-0.271111,10.3622957\PG=CS 
 [SG(C1H2)]\NImag=0\\0.31184639,-0.04572855,0.02503843,-0.12333632,0.01
 619342,0.04896138,-0.31074295,0.06169253,0.12122884,0.51972398,0.03501
 808,-0.03375230,-0.01089464,0.09362031,0.16918575,0.12398675,-0.021846
 11,-0.04865087,-0.22307784,-0.05590327,0.09737065,-0.00110344,-0.01596
 399,0.00210748,-0.20898103,-0.12863839,0.09909109,0.21008447,0.0107104
 7,0.00871387,-0.00529879,-0.15531285,-0.13543345,0.07774937,0.14460238
 ,0.12671958,-0.00065043,0.00565268,-0.00031051,0.10184901,0.06679790,-
 0.04871978,-0.10119857,-0.07245059,0.04903029\\0.00000194,-0.00000099,
 -0.00000088,-0.00000141,0.00000188,0.00000074,-0.00000054,-0.00000089,
 0.00000014\\\@


 Ideas are like rabbits. You get a couple and learn
 how to handle them, and pretty soon you have a dozen.
                                    -- John Steinbeck
 Leave Link 9999 at Mon Apr 27 15:33:52 2015, MaxMem=   524288000 cpu:         0.3
 Job cpu time:       0 days  0 hours  0 minutes 44.6 seconds.
 File lengths (MBytes):  RWF=      5 Int=      0 D2E=      0 Chk=      1 Scr=      1
 Normal termination of Gaussian 09 at Mon Apr 27 15:33:52 2015.
 (Enter /opt/g09/l1.exe)
 Link1:  Proceeding to internal job step number  2.
 ----------------------------------------------------------------------
 #P Geom=AllCheck Guess=TCheck SCRF=Check GenChk UB971/6-311+G(d,p) Fre
 q
 ----------------------------------------------------------------------
 1/7=10,10=4,29=7,30=1,38=1,40=1/1,3;
 2/12=2,15=1,40=1/2;
 3/5=4,6=6,7=111,11=2,14=-4,16=1,24=10,25=1,30=1,70=2,71=2,74=-20,75=-5,116=2,140=1/1,2,3;
 4/5=101/1;
 5/5=2,98=1/2;
 8/6=4,10=90,11=11/1;
 11/6=1,8=1,9=11,15=111,16=1,31=1/1,2,10;
 10/6=1,31=1/2;
 7/8=1,10=1,25=1,30=1/1,2,3,16;
 1/7=10,10=4,30=1/3;
 99//99;
 Leave Link    1 at Mon Apr 27 15:33:52 2015, MaxMem=   524288000 cpu:         0.4
 (Enter /opt/g09/l101.exe)
 Structure from the checkpoint file:  "/scratch/pb556/g09_run/add_hco//Gau-18873.chk"
 ----------------------------------------------------------------------
 W:\Data\additional_hydrocarbons\nist\enthalpy_estimation\success\fine\
 corr_b971_2465-56-7.g09
 ----------------------------------------------------------------------
 Charge =  0 Multiplicity = 3
 Redundant internal coordinates found in file.
 H,0,1.64022,0.50126,-0.05554
 C,0,0.64581,0.67657,0.33466
 H,0,-0.14852,0.05337,0.72517
 Recover connectivity data from disk.
 NAtoms=      3 NQM=        3 NQMF=       0 NMMI=      0 NMMIF=      0
                NMic=       0 NMicF=      0.
                    Isotopes and Nuclear Properties:
 (Nuclear quadrupole moments (NQMom) in fm**2, nuclear magnetic moments (NMagM)
  in nuclear magnetons)

  Atom         1           2           3
 IAtWgt=           1          12           1
 AtmWgt=   1.0078250  12.0000000   1.0078250
 NucSpn=           1           0           1
 AtZEff=  -1.0000000  -3.6000000  -1.0000000
 NQMom=    0.0000000   0.0000000   0.0000000
 NMagM=    2.7928460   0.0000000   2.7928460
 AtZNuc=   1.0000000   6.0000000   1.0000000
 Leave Link  101 at Mon Apr 27 15:33:53 2015, MaxMem=   524288000 cpu:         1.8
 (Enter /opt/g09/l103.exe)

 GradGradGradGradGradGradGradGradGradGradGradGradGradGradGradGradGradGrad
 Berny optimization.
 Initialization pass.
                           ----------------------------
                           !    Initial Parameters    !
                           ! (Angstroms and Degrees)  !
 --------------------------                            --------------------------
 ! Name  Definition              Value          Derivative Info.                !
 --------------------------------------------------------------------------------
 ! R1    R(1,2)                  1.0825         calculate D2E/DX2 analytically  !
 ! R2    R(2,3)                  1.0825         calculate D2E/DX2 analytically  !
 ! A1    A(1,2,3)              135.3049         calculate D2E/DX2 analytically  !
 --------------------------------------------------------------------------------
 Trust Radius=3.00D-01 FncErr=1.00D-07 GrdErr=1.00D-07
 Number of steps in this run=      2 maximum allowed number of steps=      2.
 GradGradGradGradGradGradGradGradGradGradGradGradGradGradGradGradGradGrad

 Leave Link  103 at Mon Apr 27 15:33:53 2015, MaxMem=   524288000 cpu:         0.1
 (Enter /opt/g09/l202.exe)
                          Input orientation:                          
 ---------------------------------------------------------------------
 Center     Atomic      Atomic             Coordinates (Angstroms)
 Number     Number       Type             X           Y           Z
 ---------------------------------------------------------------------
      1          1           0        1.640220    0.501260   -0.055540
      2          6           0        0.645810    0.676570    0.334660
      3          1           0       -0.148520    0.053370    0.725170
 ---------------------------------------------------------------------
                    Distance matrix (angstroms):
                    1          2          3
     1  H    0.000000
     2  C    1.082516   0.000000
     3  H    2.002425   1.082514   0.000000
 Symmetry turned off by external request.
 Stoichiometry    CH2(3)
 Framework group  CS[SG(CH2)]
 Deg. of freedom     3
 Full point group                 CS      NOp   2
 Rotational constants (GHZ):   1728.5756825    250.1207357    218.5037672
 Leave Link  202 at Mon Apr 27 15:33:53 2015, MaxMem=   524288000 cpu:         0.0
 (Enter /opt/g09/l301.exe)
 Standard basis: 6-311+G(d,p) (5D, 7F)
 Ernie: Thresh=  0.10000D-02 Tol=  0.10000D-05 Strict=F.
 AO basis set in the form of general basis input (Overlap normalization):
      1 0
 S   3 1.00       0.000000000000
      0.3386500000D+02  0.2549381454D-01
      0.5094790000D+01  0.1903731086D+00
      0.1158790000D+01  0.8521614860D+00
 S   1 1.00       0.000000000000
      0.3258400000D+00  0.1000000000D+01
 S   1 1.00       0.000000000000
      0.1027410000D+00  0.1000000000D+01
 P   1 1.00       0.000000000000
      0.7500000000D+00  0.1000000000D+01
 ****
      2 0
 S   6 1.00       0.000000000000
      0.4563240000D+04  0.1966650249D-02
      0.6820240000D+03  0.1523060193D-01
      0.1549730000D+03  0.7612690966D-01
      0.4445530000D+02  0.2608010331D+00
      0.1302900000D+02  0.6164620782D+00
      0.1827730000D+01  0.2210060280D+00
 SP   3 1.00       0.000000000000
      0.2096420000D+02  0.1146600807D+00  0.4024869267D-01
      0.4803310000D+01  0.9199996477D+00  0.2375939567D+00
      0.1459330000D+01 -0.3030682134D-02  0.8158538515D+00
 SP   1 1.00       0.000000000000
      0.4834560000D+00  0.1000000000D+01  0.1000000000D+01
 SP   1 1.00       0.000000000000
      0.1455850000D+00  0.1000000000D+01  0.1000000000D+01
 SP   1 1.00       0.000000000000
      0.4380000000D-01  0.1000000000D+01  0.1000000000D+01
 D   1 1.00       0.000000000000
      0.6260000000D+00  0.1000000000D+01
 ****
      3 0
 S   3 1.00       0.000000000000
      0.3386500000D+02  0.2549381454D-01
      0.5094790000D+01  0.1903731086D+00
      0.1158790000D+01  0.8521614860D+00
 S   1 1.00       0.000000000000
      0.3258400000D+00  0.1000000000D+01
 S   1 1.00       0.000000000000
      0.1027410000D+00  0.1000000000D+01
 P   1 1.00       0.000000000000
      0.7500000000D+00  0.1000000000D+01
 ****

    34 basis functions,    52 primitive gaussians,    35 cartesian basis functions
     5 alpha electrons        3 beta electrons
       nuclear repulsion energy         6.1303547615 Hartrees.
 IExCor= 1614 DFT=T Ex+Corr=B971 ExCW=0 ScaHFX=  0.210000
 ScaDFX=  1.000000  1.000000  1.000000  1.000000 ScalE2=  1.000000  1.000000
 IRadAn=      5 IRanWt=     -1 IRanGd=            0 ICorTp=0 IEmpDi=  4
 NAtoms=    3 NActive=    3 NUniq=    3 SFac= 1.00D+00 NAtFMM=   60 NAOKFM=F Big=F
 Integral buffers will be    131072 words long.
 Raffenetti 2 integral format.
 Two-electron integral symmetry is turned off.
 Leave Link  301 at Mon Apr 27 15:33:53 2015, MaxMem=   524288000 cpu:         0.4
 (Enter /opt/g09/l302.exe)
 NPDir=0 NMtPBC=     1 NCelOv=     1 NCel=       1 NClECP=     1 NCelD=      1
         NCelK=      1 NCelE2=     1 NClLst=     1 CellRange=     0.0.
 One-electron integrals computed using PRISM.
 NBasis=    34 RedAO= T EigKep=  1.61D-02  NBF=    34
 NBsUse=    34 1.00D-06 EigRej= -1.00D+00 NBFU=    34
 Precomputing XC quadrature grid using
 IXCGrd= 4 IRadAn=           5 IRanWt=          -1 IRanGd=           0 AccXCQ= 0.00D+00.
 Generated NRdTot=       0 NPtTot=           0 NUsed=           0 NTot=          32
 NSgBfM=    35    35    35    35    35 MxSgAt=     3 MxSgA2=     3.
 Leave Link  302 at Mon Apr 27 15:33:53 2015, MaxMem=   524288000 cpu:         1.2
 (Enter /opt/g09/l303.exe)
 DipDrv:  MaxL=1.
 Leave Link  303 at Mon Apr 27 15:33:53 2015, MaxMem=   524288000 cpu:         0.3
 (Enter /opt/g09/l401.exe)
 Initial guess from the checkpoint file:  "/scratch/pb556/g09_run/add_hco//Gau-18873.chk"
 B after Tr=     0.000000    0.000000    0.000000
         Rot=    1.000000    0.000000    0.000000    0.000000 Ang=   0.00 deg.
 Guess basis will be translated and rotated to current coordinates.
 JPrj=2 DoOrth=T DoCkMO=T.
 Initial guess <Sx>= 0.0000 <Sy>= 0.0000 <Sz>= 1.0000 <S**2>= 2.0062 S= 1.0021
 Leave Link  401 at Mon Apr 27 15:33:53 2015, MaxMem=   524288000 cpu:         0.8
 (Enter /opt/g09/l502.exe)
 UHF open shell SCF:
 Using DIIS extrapolation, IDIIS=  1040.
 Two-electron integral symmetry not used.
 Keep R1 and R2 ints in memory in canonical form, NReq=1240043.
 IVT=       22721 IEndB=       22721 NGot=   524288000 MDV=   523910660
 LenX=   523910660 LenY=   523908994
 Requested convergence on RMS density matrix=1.00D-08 within 128 cycles.
 Requested convergence on MAX density matrix=1.00D-06.
 Requested convergence on             energy=1.00D-06.
 No special actions if energy rises.
 FoFCou: FMM=F IPFlag=           0 FMFlag=           0 FMFlg1=           0
         NFxFlg=           0 DoJE=F BraDBF=F KetDBF=F FulRan=T
         wScrn=  0.000000 ICntrl=     600 IOpCl=  0 I1Cent=           0 NGrid=           0
         NMat0=    1 NMatS0=    595 NMatT0=    0 NMatD0=    1 NMtDS0=    0 NMtDT0=    0
 Symmetry not used in FoFCou.

 Cycle   1  Pass 1  IDiag  1:
 E= -39.1446426949211    
 DIIS: error= 9.08D-10 at cycle   1 NSaved=   1.
 NSaved= 1 IEnMin= 1 EnMin= -39.1446426949211     IErMin= 1 ErrMin= 9.08D-10
 ErrMax= 9.08D-10  0.00D+00 EMaxC= 1.00D-01 BMatC= 5.66D-17 BMatP= 5.66D-17
 IDIUse=1 WtCom= 1.00D+00 WtEn= 0.00D+00
 Coeff-Com:  0.100D+01
 Coeff:      0.100D+01
 Gap=     0.271 Goal=   None    Shift=    0.000
 Gap=     0.335 Goal=   None    Shift=    0.000
 RMSDP=2.22D-10 MaxDP=2.81D-09              OVMax= 5.67D-09

 SCF Done:  E(UB971) =  -39.1446426949     A.U. after    1 cycles
            NFock=  1  Conv=0.22D-09     -V/T= 2.0035
 <Sx>= 0.0000 <Sy>= 0.0000 <Sz>= 1.0000 <S**2>= 2.0062 S= 1.0021
 <L.S>= 0.000000000000E+00
 KE= 3.900726689593D+01 PE=-1.029213806464D+02 EE= 1.863911629397D+01
 Annihilation of the first spin contaminant:
 S**2 before annihilation     2.0062,   after     2.0000
 Leave Link  502 at Mon Apr 27 15:33:53 2015, MaxMem=   524288000 cpu:         1.6
 (Enter /opt/g09/l801.exe)
 DoSCS=F DFT=T ScalE2(SS,OS)=  1.000000  1.000000
 Range of M.O.s used for correlation:     1    34
 NBasis=    34 NAE=     5 NBE=     3 NFC=     0 NFV=     0
 NROrb=     34 NOA=     5 NOB=     3 NVA=    29 NVB=    31
 Leave Link  801 at Mon Apr 27 15:33:53 2015, MaxMem=   524288000 cpu:         0.3
 (Enter /opt/g09/l1101.exe)
 Using compressed storage, NAtomX=     3.
 Will process      4 centers per pass.
 Leave Link 1101 at Mon Apr 27 15:33:53 2015, MaxMem=   524288000 cpu:         1.2
 (Enter /opt/g09/l1102.exe)
 Symmetrizing basis deriv contribution to polar:
 IMax=3 JMax=2 DiffMx= 0.00D+00
 Leave Link 1102 at Mon Apr 27 15:33:54 2015, MaxMem=   524288000 cpu:         0.3
 (Enter /opt/g09/l1110.exe)
 Forming Gx(P) for the SCF density, NAtomX=     3.
 Integral derivatives from FoFJK, PRISM(SPDF).
 Do as many integral derivatives as possible in FoFJK.
 G2DrvN: MDV=     524287872.
 G2DrvN: will do     4 centers at a time, making    1 passes.
 Calling FoFCou, ICntrl=  3107 FMM=F I1Cent=   0 AccDes= 0.00D+00.
 FoFJK:  IHMeth= 1 ICntrl=    3107 DoSepK=F KAlg= 0 I1Cent=   0 FoldK=F
 IRaf=         0 NMat=   1 IRICut=       1 DoRegI=T DoRafI=F ISym2E= 0.
 FoFCou: FMM=F IPFlag=           0 FMFlag=      100000 FMFlg1=           0
         NFxFlg=           0 DoJE=F BraDBF=F KetDBF=F FulRan=T
         wScrn=  0.000000 ICntrl=    3107 IOpCl=  1 I1Cent=           0 NGrid=           0
         NMat0=    1 NMatS0=      1 NMatT0=    0 NMatD0=    1 NMtDS0=    0 NMtDT0=    0
 Symmetry not used in FoFCou.
 End of G2Drv F.D. properties file   721 does not exist.
 End of G2Drv F.D. properties file   722 does not exist.
 End of G2Drv F.D. properties file   788 does not exist.
 Leave Link 1110 at Mon Apr 27 15:33:54 2015, MaxMem=   524288000 cpu:         5.8
 (Enter /opt/g09/l1002.exe)
 Minotr:  UHF open shell wavefunction.
          IDoAtm=111
          Direct CPHF calculation.
          Differentiating once with respect to electric field.
                with respect to dipole field.
          Differentiating once with respect to nuclear coordinates.
          Requested convergence is 1.0D-08 RMS, and 1.0D-07 maximum.
          Secondary convergence is 1.0D-12 RMS, and 1.0D-12 maximum.
          NewPWx=T KeepS1=F KeepF1=F KeepIn=T MapXYZ=F SortEE=F KeepMc=T.
          MDV=     524287898 using IRadAn=       1.
 Generate precomputed XC quadrature information.
 Keep R1 and R2 ints in memory in canonical form, NReq=1215432.
 FoFCou: FMM=F IPFlag=           0 FMFlag=           0 FMFlg1=           0
         NFxFlg=           0 DoJE=F BraDBF=F KetDBF=F FulRan=T
         wScrn=  0.000000 ICntrl=     600 IOpCl=  0 I1Cent=           0 NGrid=           0
         NMat0=    1 NMatS0=    595 NMatT0=    0 NMatD0=    1 NMtDS0=    0 NMtDT0=    0
 Symmetry not used in FoFCou.
          Solving linear equations simultaneously, MaxMat=       0.
          There are    12 degrees of freedom in the 1st order CPHF.  IDoFFX=6 NUNeed=     3.
      9 vectors produced by pass  0 Test12= 1.98D-15 8.33D-09 XBig12= 1.23D+01 2.14D+00.
 AX will form     9 AO Fock derivatives at one time.
      9 vectors produced by pass  1 Test12= 1.98D-15 8.33D-09 XBig12= 7.46D-01 3.88D-01.
      9 vectors produced by pass  2 Test12= 1.98D-15 8.33D-09 XBig12= 4.80D-03 2.35D-02.
      9 vectors produced by pass  3 Test12= 1.98D-15 8.33D-09 XBig12= 2.28D-05 1.44D-03.
      9 vectors produced by pass  4 Test12= 1.98D-15 8.33D-09 XBig12= 8.12D-08 8.65D-05.
      9 vectors produced by pass  5 Test12= 1.98D-15 8.33D-09 XBig12= 1.91D-10 4.49D-06.
      4 vectors produced by pass  6 Test12= 1.98D-15 8.33D-09 XBig12= 2.74D-13 1.81D-07.
      1 vectors produced by pass  7 Test12= 1.98D-15 8.33D-09 XBig12= 8.56D-16 8.90D-09.
 InvSVY:  IOpt=1 It=  1 EMax= 8.88D-16
 Solved reduced A of dimension    59 with     9 vectors.
 FullF1:  Do perturbations    1 to     3.
 Isotropic polarizability for W=    0.000000       10.80 Bohr**3.
 End of Minotr F.D. properties file   721 does not exist.
 End of Minotr F.D. properties file   722 does not exist.
 End of Minotr F.D. properties file   788 does not exist.
 Leave Link 1002 at Mon Apr 27 15:33:55 2015, MaxMem=   524288000 cpu:         7.0
 (Enter /opt/g09/l701.exe)
 Compute integral second derivatives.
 ... and contract with generalized density number  0.
 Leave Link  701 at Mon Apr 27 15:33:55 2015, MaxMem=   524288000 cpu:         2.0
 (Enter /opt/g09/l702.exe)
 L702 exits ... SP integral derivatives will be done elsewhere.
 Leave Link  702 at Mon Apr 27 15:33:56 2015, MaxMem=   524288000 cpu:         0.3
 (Enter /opt/g09/l703.exe)
 Compute integral second derivatives, UseDBF=F ICtDFT=           0.
 Integral derivatives from FoFJK, PRISM(SPDF).
 Calling FoFJK, ICntrl=    100127 FMM=F ISym2X=0 I1Cent= 0 IOpClX= 1 NMat=1 NMatS=1 NMatT=0.
 FoFJK:  IHMeth= 1 ICntrl=  100127 DoSepK=F KAlg= 0 I1Cent=   0 FoldK=F
 IRaf=         0 NMat=   1 IRICut=       1 DoRegI=T DoRafI=F ISym2E= 0.
 FoFCou: FMM=F IPFlag=           0 FMFlag=      100000 FMFlg1=         800
         NFxFlg=           0 DoJE=F BraDBF=F KetDBF=F FulRan=T
         wScrn=  0.000000 ICntrl=  100127 IOpCl=  1 I1Cent=           0 NGrid=           0
         NMat0=    1 NMatS0=      1 NMatT0=    0 NMatD0=    1 NMtDS0=    0 NMtDT0=    0
 Symmetry not used in FoFCou.
 Leave Link  703 at Mon Apr 27 15:33:57 2015, MaxMem=   524288000 cpu:        12.2
 (Enter /opt/g09/l716.exe)
 Dipole        = 6.85522617D-02-2.73591608D-01 1.06467888D-04
 Polarizability= 1.23474293D+01 7.11929876D-01 9.68252088D+00
                -1.08248179D+00-2.71110992D-01 1.03622958D+01
 Full mass-weighted force constant matrix:
 Low frequencies ---  -22.2032   -8.3669   -0.0003    0.0007    0.0011   16.1663
 Low frequencies --- 1043.9971 3106.1250 3350.6447
 Diagonal vibrational polarizability:
        0.0219620       0.3369095       0.0001550
 Harmonic frequencies (cm**-1), IR intensities (KM/Mole), Raman scattering
 activities (A**4/AMU), depolarization ratios for plane and unpolarized
 incident light, reduced masses (AMU), force constants (mDyne/A),
 and normal coordinates:
                      1                      2                      3
                      A                      A                      A
 Frequencies --   1043.9970              3106.1250              3350.6447
 Red. masses --      1.1377                 1.0259                 1.1389
 Frc consts  --      0.7306                 5.8314                 7.5334
 IR Inten    --     14.4075                 0.8161                 0.4248
  Atom  AN      X      Y      Z        X      Y      Z        X      Y      Z
     1   1     0.09   0.69  -0.11     0.65  -0.09  -0.26    -0.65   0.11   0.25
     2   6     0.03  -0.11   0.00    -0.01   0.04   0.00     0.10   0.02  -0.04
     3   1    -0.40   0.57   0.11    -0.53  -0.38   0.26    -0.52  -0.40   0.25

 -------------------
 - Thermochemistry -
 -------------------
 Temperature   298.150 Kelvin.  Pressure   1.00000 Atm.
 Atom     1 has atomic number  1 and mass   1.00783
 Atom     2 has atomic number  6 and mass  12.00000
 Atom     3 has atomic number  1 and mass   1.00783
 Molecular mass:    14.01565 amu.
 Principal axes and moments of inertia in atomic units:
                           1         2         3
     Eigenvalues --     1.04406   7.21548   8.25954
           X            0.89329  -0.24305   0.37811
           Y            0.22367   0.97001   0.09510
           Z           -0.38988  -0.00038   0.92086
 This molecule is an asymmetric top.
 Rotational symmetry number  1.
 Rotational temperatures (Kelvin)     82.95845    12.00389    10.48651
 Rotational constants (GHZ):        1728.57568   250.12074   218.50377
 Zero-point vibrational energy      44864.5 (Joules/Mol)
                                   10.72288 (Kcal/Mol)
 Vibrational temperatures:   1502.08  4469.02  4820.82
          (Kelvin)
 
 Zero-point correction=                           0.017088 (Hartree/Particle)
 Thermal correction to Energy=                    0.019952
 Thermal correction to Enthalpy=                  0.020896
 Thermal correction to Gibbs Free Energy=        -0.001925
 Sum of electronic and zero-point Energies=            -39.127555
 Sum of electronic and thermal Energies=               -39.124691
 Sum of electronic and thermal Enthalpies=             -39.123747
 Sum of electronic and thermal Free Energies=          -39.146567
 
                     E (Thermal)             CV                S
                      KCal/Mol        Cal/Mol-Kelvin    Cal/Mol-Kelvin
 Total                   12.520              6.293             48.029
 Electronic               0.000              0.000              2.183
 Translational            0.889              2.981             33.861
 Rotational               0.889              2.981             11.907
 Vibrational             10.742              0.332              0.078
                       Q            Log10(Q)             Ln(Q)
 Total Bot       0.767757D+01          0.885224          2.038303
 Total V=0       0.556088D+09          8.745143         20.136436
 Vib (Bot)       0.138966D-07         -7.857093        -18.091625
 Vib (V=0)       0.100653D+01          0.002827          0.006508
 Electronic      0.300000D+01          0.477121          1.098612
 Translational   0.206241D+07          6.314375         14.539386
 Rotational      0.892936D+02          1.950820          4.491930
 
                    W:\Data\additional_hydrocarbons\nist\enthalpy_estimation\succ
 ess\fine\corr_b971_2465-56-7.g09
                                                             IR Spectrum
 
     3         3                                                                             1                                       
     3         1                                                                             0                                       
     5         0                                                                             4                                       
     1         6                                                                             4                                       
 
     X         X                                                                             X                                       
                                                                                             X                                       
                                                                                             X                                       
                                                                                             X                                       
                                                                                             X                                       
                                                                                             X                                       
                                                                                             X                                       
                                                                                             X                                       
                                                                                             X                                       
                                                                                             X                                       
                                                                                             X                                       
                                                                                             X                                       
                                                                                             X                                       
                                                                                             X                                       
                                                                                             X                                       
                                                                                             X                                       
                                                                                             X                                       
                                                                                             X                                       
                                                                                             X                                       
                                                                                             X                                       
 
 -------------------------------------------------------------------
 Center     Atomic                   Forces (Hartrees/Bohr)
 Number     Number              X              Y              Z
 -------------------------------------------------------------------
      1        1          -0.000001945    0.000000988    0.000000885
      2        6           0.000001407   -0.000001882   -0.000000745
      3        1           0.000000539    0.000000895   -0.000000140
 -------------------------------------------------------------------
 Cartesian Forces:  Max     0.000001945 RMS     0.000001189
 Force constants in Cartesian coordinates: 
                1             2             3             4             5 
      1  0.311846D+00
      2 -0.457285D-01  0.250384D-01
      3 -0.123336D+00  0.161934D-01  0.489614D-01
      4 -0.310743D+00  0.616925D-01  0.121229D+00  0.519724D+00
      5  0.350181D-01 -0.337523D-01 -0.108946D-01  0.936203D-01  0.169186D+00
      6  0.123987D+00 -0.218461D-01 -0.486509D-01 -0.223078D+00 -0.559033D-01
      7 -0.110344D-02 -0.159640D-01  0.210748D-02 -0.208981D+00 -0.128638D+00
      8  0.107105D-01  0.871387D-02 -0.529879D-02 -0.155313D+00 -0.135433D+00
      9 -0.650433D-03  0.565268D-02 -0.310512D-03  0.101849D+00  0.667979D-01
                6             7             8             9 
      6  0.973706D-01
      7  0.990911D-01  0.210084D+00
      8  0.777494D-01  0.144602D+00  0.126720D+00
      9 -0.487198D-01 -0.101199D+00 -0.724506D-01  0.490303D-01
 FormGI is forming the generalized inverse of G from B-inverse, IUseBI=4.
 Force constants in internal coordinates: 
                1             2             3 
      1  0.367342D+00
      2 -0.705261D-02  0.367336D+00
      3  0.158138D-01  0.158157D-01  0.774448D-01
 Leave Link  716 at Mon Apr 27 15:33:57 2015, MaxMem=   524288000 cpu:         0.3
 (Enter /opt/g09/l103.exe)

 GradGradGradGradGradGradGradGradGradGradGradGradGradGradGradGradGradGrad
 Berny optimization.
 Red2BG is reusing G-inverse.
 Internal  Forces:  Max     0.000002238 RMS     0.000001535
 Search for a local minimum.
 Step number   1 out of a maximum of    2
 All quantities printed in internal units (Hartrees-Bohrs-Radians)
 Second derivative matrix not updated -- analytic derivatives used.
 The second derivative matrix:
                          R1        R2        A1
           R1           0.36734
           R2          -0.00705   0.36734
           A1           0.01581   0.01582   0.07744
 ITU=  0
     Eigenvalues ---    0.07569   0.36204   0.37439
 Angle between quadratic step and forces=  40.76 degrees.
 Linear search not attempted -- first point.
 Iteration  1 RMS(Cart)=  0.00000797 RMS(Int)=  0.00000000
 Iteration  2 RMS(Cart)=  0.00000000 RMS(Int)=  0.00000000
 ITry= 1 IFail=0 DXMaxC= 1.05D-05 DCOld= 1.00D+10 DXMaxT= 3.00D-01 DXLimC= 3.00D+00 Rises=F
 Variable       Old X    -DE/DX   Delta X   Delta X   Delta X     New X
                                 (Linear)    (Quad)   (Total)
    R1        2.04566   0.00000   0.00000  -0.00001  -0.00001   2.04565
    R2        2.04565   0.00000   0.00000   0.00000   0.00000   2.04565
    A1        2.36152   0.00000   0.00000   0.00002   0.00002   2.36153
         Item               Value     Threshold  Converged?
 Maximum Force            0.000002     0.000015     YES
 RMS     Force            0.000002     0.000010     YES
 Maximum Displacement     0.000011     0.000060     YES
 RMS     Displacement     0.000008     0.000040     YES
 Predicted change in Energy=-1.745044D-11
 Optimization completed.
    -- Stationary point found.
                           ----------------------------
                           !   Optimized Parameters   !
                           ! (Angstroms and Degrees)  !
 --------------------------                            --------------------------
 ! Name  Definition              Value          Derivative Info.                !
 --------------------------------------------------------------------------------
 ! R1    R(1,2)                  1.0825         -DE/DX =    0.0                 !
 ! R2    R(2,3)                  1.0825         -DE/DX =    0.0                 !
 ! A1    A(1,2,3)              135.3049         -DE/DX =    0.0                 !
 --------------------------------------------------------------------------------
 GradGradGradGradGradGradGradGradGradGradGradGradGradGradGradGradGradGrad

 Leave Link  103 at Mon Apr 27 15:33:57 2015, MaxMem=   524288000 cpu:         0.0
 (Enter /opt/g09/l9999.exe)
 1\1\GINC-HOLBEIN\Freq\UB971\6-311+G(d,p)\C1H2(3)\PB556\27-Apr-2015\0\\
 #P Geom=AllCheck Guess=TCheck SCRF=Check GenChk UB971/6-311+G(d,p) Fre
 q\\W:\Data\additional_hydrocarbons\nist\enthalpy_estimation\success\fi
 ne\corr_b971_2465-56-7.g09\\0,3\H,1.64022,0.50126,-0.05554\C,0.64581,0
 .67657,0.33466\H,-0.14852,0.05337,0.72517\\Version=ES64L-G09RevD.01\HF
 =-39.1446427\S2=2.00624\S2-1=0.\S2A=2.000011\RMSD=2.216e-10\RMSF=1.189
 e-06\ZeroPoint=0.017088\Thermal=0.0199516\Dipole=0.0685523,-0.2735916,
 0.0001065\DipoleDeriv=0.0435057,0.0019984,0.056322,0.0457386,0.0956263
 ,-0.0099308,0.0518459,0.008025,0.159108,-0.1184792,0.0109375,-0.101330
 1,0.0109775,-0.1598263,-0.0254881,-0.1013479,-0.0254603,-0.3183398,0.0
 749735,-0.0129359,0.0450082,-0.0567161,0.0641999,0.0354189,0.0495021,0
 .0174353,0.1592318\Polar=12.3474293,0.7119299,9.6825209,-1.0824818,-0.
 271111,10.3622958\PG=CS [SG(C1H2)]\NImag=0\\0.31184639,-0.04572855,0.0
 2503843,-0.12333632,0.01619342,0.04896138,-0.31074295,0.06169253,0.121
 22884,0.51972398,0.03501808,-0.03375230,-0.01089464,0.09362031,0.16918
 575,0.12398675,-0.02184611,-0.04865087,-0.22307784,-0.05590327,0.09737
 065,-0.00110344,-0.01596399,0.00210748,-0.20898103,-0.12863839,0.09909
 109,0.21008447,0.01071047,0.00871387,-0.00529879,-0.15531285,-0.135433
 45,0.07774937,0.14460238,0.12671958,-0.00065043,0.00565268,-0.00031051
 ,0.10184901,0.06679790,-0.04871978,-0.10119857,-0.07245059,0.04903029\
 \0.00000195,-0.00000099,-0.00000088,-0.00000141,0.00000188,0.00000074,
 -0.00000054,-0.00000089,0.00000014\\\@


 NO MATTER HOW THIN YOU SLICE IT, IT'S STILL BALONEY

                                   -- ALFRED E. SMITH
 Job cpu time:       0 days  0 hours  0 minutes 36.5 seconds.
 File lengths (MBytes):  RWF=      5 Int=      0 D2E=      0 Chk=      1 Scr=      1
 Normal termination of Gaussian 09 at Mon Apr 27 15:33:57 2015.
