 Entering Gaussian System, Link 0=g09
 Input=0_0freq-b971_2892-51-5.gau
 Output=0_0freq-b971_2892-51-5.log
 Initial command:
 /opt/g09/l1.exe "/scratch/pb556/g09_run/add_hco//Gau-3823.inp" -scrdir="/scratch/pb556/g09_run/add_hco//"
 Entering Link 1 = /opt/g09/l1.exe PID=      3832.
  
 Copyright (c) 1988,1990,1992,1993,1995,1998,2003,2009,2013,
            Gaussian, Inc.  All Rights Reserved.
  
 This is part of the Gaussian(R) 09 program.  It is based on
 the Gaussian(R) 03 system (copyright 2003, Gaussian, Inc.),
 the Gaussian(R) 98 system (copyright 1998, Gaussian, Inc.),
 the Gaussian(R) 94 system (copyright 1995, Gaussian, Inc.),
 the Gaussian 92(TM) system (copyright 1992, Gaussian, Inc.),
 the Gaussian 90(TM) system (copyright 1990, Gaussian, Inc.),
 the Gaussian 88(TM) system (copyright 1988, Gaussian, Inc.),
 the Gaussian 86(TM) system (copyright 1986, Carnegie Mellon
 University), and the Gaussian 82(TM) system (copyright 1983,
 Carnegie Mellon University). Gaussian is a federally registered
 trademark of Gaussian, Inc.
  
 This software contains proprietary and confidential information,
 including trade secrets, belonging to Gaussian, Inc.
  
 This software is provided under written license and may be
 used, copied, transmitted, or stored only in accord with that
 written license.
  
 The following legend is applicable only to US Government
 contracts under FAR:
  
                    RESTRICTED RIGHTS LEGEND
  
 Use, reproduction and disclosure by the US Government is
 subject to restrictions as set forth in subparagraphs (a)
 and (c) of the Commercial Computer Software - Restricted
 Rights clause in FAR 52.227-19.
  
 Gaussian, Inc.
 340 Quinnipiac St., Bldg. 40, Wallingford CT 06492
  
  
 ---------------------------------------------------------------
 Warning -- This program may not be used in any manner that
 competes with the business of Gaussian, Inc. or will provide
 assistance to any competitor of Gaussian, Inc.  The licensee
 of this program is prohibited from giving any competitor of
 Gaussian, Inc. access to this program.  By using this program,
 the user acknowledges that Gaussian, Inc. is engaged in the
 business of creating and licensing software in the field of
 computational chemistry and represents and warrants to the
 licensee that it is not a competitor of Gaussian, Inc. and that
 it will not use this program in any manner prohibited above.
 ---------------------------------------------------------------
  

 Cite this work as:
 Gaussian 09, Revision D.01,
 M. J. Frisch, G. W. Trucks, H. B. Schlegel, G. E. Scuseria, 
 M. A. Robb, J. R. Cheeseman, G. Scalmani, V. Barone, B. Mennucci, 
 G. A. Petersson, H. Nakatsuji, M. Caricato, X. Li, H. P. Hratchian, 
 A. F. Izmaylov, J. Bloino, G. Zheng, J. L. Sonnenberg, M. Hada, 
 M. Ehara, K. Toyota, R. Fukuda, J. Hasegawa, M. Ishida, T. Nakajima, 
 Y. Honda, O. Kitao, H. Nakai, T. Vreven, J. A. Montgomery, Jr., 
 J. E. Peralta, F. Ogliaro, M. Bearpark, J. J. Heyd, E. Brothers, 
 K. N. Kudin, V. N. Staroverov, T. Keith, R. Kobayashi, J. Normand, 
 K. Raghavachari, A. Rendell, J. C. Burant, S. S. Iyengar, J. Tomasi, 
 M. Cossi, N. Rega, J. M. Millam, M. Klene, J. E. Knox, J. B. Cross, 
 V. Bakken, C. Adamo, J. Jaramillo, R. Gomperts, R. E. Stratmann, 
 O. Yazyev, A. J. Austin, R. Cammi, C. Pomelli, J. W. Ochterski, 
 R. L. Martin, K. Morokuma, V. G. Zakrzewski, G. A. Voth, 
 P. Salvador, J. J. Dannenberg, S. Dapprich, A. D. Daniels, 
 O. Farkas, J. B. Foresman, J. V. Ortiz, J. Cioslowski, 
 and D. J. Fox, Gaussian, Inc., Wallingford CT, 2013.
 
 ******************************************
 Gaussian 09:  ES64L-G09RevD.01 24-Apr-2013
                26-Apr-2015 
 ******************************************
 %NProcShared=8
 Will use up to    8 processors via shared memory.
 %Mem=500MW
 ----------------------------------------------------------------------
 #p rB971/6-311+G(d,p) Opt=(Tight, CalcAll) Freq GFInput Population=Non
 e Integral(Grid=UltraFine) Guess=MIX NoSymmetry
 ----------------------------------------------------------------------
 1/7=10,10=4,14=-1,18=20,19=15,26=4,38=1/1,3;
 2/9=110,12=2,15=1,17=6,18=5,40=1/2;
 3/5=4,6=6,7=111,11=2,16=1,24=10,25=1,30=1,71=2,74=-20,75=-5,116=1,140=1/1,2,3;
 4/13=-1/1;
 5/5=2,38=5/2;
 8/6=4,10=90,11=11/1;
 11/6=1,8=1,9=11,15=111,16=1,31=1/1,2,10;
 10/6=1,31=1/2;
 7/10=1,25=1,30=1/1,2,3,16;
 1/7=10,10=4,14=-1,18=20,19=15,26=4/3(3);
 2/9=110,15=1/2;
 7/8=1,9=1,25=1,30=1,44=-1/16;
 99//99;
 2/9=110,15=1/2;
 3/5=4,6=6,7=111,11=2,16=1,25=1,30=1,71=2,74=-20,75=-5,116=1,140=1/1,2,3;
 4/5=5,16=3,69=1/1;
 5/5=2,38=5/2;
 8/6=4,10=90,11=11/1;
 11/6=1,8=1,9=11,15=111,16=1,31=1/1,2,10;
 10/6=1,31=1/2;
 7/10=1,25=1,30=1/1,2,3,16;
 1/7=10,10=4,14=-1,18=20,19=15,26=4/3(-8);
 2/9=110,15=1/2;
 7/8=1,9=1,25=1,30=1,44=-1/16;
 99//99;
 Leave Link    1 at Sun Apr 26 04:48:35 2015, MaxMem=   524288000 cpu:         0.5
 (Enter /opt/g09/l101.exe)
 -----------------------
 freq-b971_2892-51-5.gau
 -----------------------
 Symbolic Z-matrix:
 Charge =  0 Multiplicity = 1
 C                     2.33491   1.21527   0.03805 
 O                     2.44821   0.01883   0.04165 
 C                     1.2157    2.2986    0.01806 
 C                     3.30599   2.34761   0.05237 
 O                     0.01636   2.37274  -0.00176 
 C                     2.31556   3.30632   0.03467 
 O                     4.625     2.40105   0.07401 
 O                     2.32592   4.62654   0.0329 
 H                     4.97627   1.49946   0.08109 
 H                     1.41348   4.94827   0.01745 
 
 NAtoms=     10 NQM=       10 NQMF=       0 NMMI=      0 NMMIF=      0
                NMic=       0 NMicF=      0.
                    Isotopes and Nuclear Properties:
 (Nuclear quadrupole moments (NQMom) in fm**2, nuclear magnetic moments (NMagM)
  in nuclear magnetons)

  Atom         1           2           3           4           5           6           7           8           9          10
 IAtWgt=          12          16          12          12          16          12          16          16           1           1
 AtmWgt=  12.0000000  15.9949146  12.0000000  12.0000000  15.9949146  12.0000000  15.9949146  15.9949146   1.0078250   1.0078250
 NucSpn=           0           0           0           0           0           0           0           0           1           1
 AtZEff=   0.0000000   0.0000000   0.0000000   0.0000000   0.0000000   0.0000000   0.0000000   0.0000000   0.0000000   0.0000000
 NQMom=    0.0000000   0.0000000   0.0000000   0.0000000   0.0000000   0.0000000   0.0000000   0.0000000   0.0000000   0.0000000
 NMagM=    0.0000000   0.0000000   0.0000000   0.0000000   0.0000000   0.0000000   0.0000000   0.0000000   2.7928460   2.7928460
 AtZNuc=   6.0000000   8.0000000   6.0000000   6.0000000   8.0000000   6.0000000   8.0000000   8.0000000   1.0000000   1.0000000
 Leave Link  101 at Sun Apr 26 04:48:36 2015, MaxMem=   524288000 cpu:         1.9
 (Enter /opt/g09/l103.exe)

 GradGradGradGradGradGradGradGradGradGradGradGradGradGradGradGradGradGrad
 Berny optimization.
 Initialization pass.
                           ----------------------------
                           !    Initial Parameters    !
                           ! (Angstroms and Degrees)  !
 --------------------------                            --------------------------
 ! Name  Definition              Value          Derivative Info.                !
 --------------------------------------------------------------------------------
 ! R1    R(1,2)                  1.2018         calculate D2E/DX2 analytically  !
 ! R2    R(1,3)                  1.5578         calculate D2E/DX2 analytically  !
 ! R3    R(1,4)                  1.4918         calculate D2E/DX2 analytically  !
 ! R4    R(3,5)                  1.2018         calculate D2E/DX2 analytically  !
 ! R5    R(3,6)                  1.4918         calculate D2E/DX2 analytically  !
 ! R6    R(4,6)                  1.3785         calculate D2E/DX2 analytically  !
 ! R7    R(4,7)                  1.3203         calculate D2E/DX2 analytically  !
 ! R8    R(6,8)                  1.3203         calculate D2E/DX2 analytically  !
 ! R9    R(7,9)                  0.9676         calculate D2E/DX2 analytically  !
 ! R10   R(8,10)                 0.9676         calculate D2E/DX2 analytically  !
 ! A1    A(2,1,3)              139.4739         calculate D2E/DX2 analytically  !
 ! A2    A(2,1,4)              133.9693         calculate D2E/DX2 analytically  !
 ! A3    A(3,1,4)               86.5568         calculate D2E/DX2 analytically  !
 ! A4    A(1,3,5)              139.4747         calculate D2E/DX2 analytically  !
 ! A5    A(1,3,6)               86.5557         calculate D2E/DX2 analytically  !
 ! A6    A(5,3,6)              133.9696         calculate D2E/DX2 analytically  !
 ! A7    A(1,4,6)               93.4442         calculate D2E/DX2 analytically  !
 ! A8    A(1,4,7)              132.9387         calculate D2E/DX2 analytically  !
 ! A9    A(6,4,7)              133.6171         calculate D2E/DX2 analytically  !
 ! A10   A(3,6,4)               93.4433         calculate D2E/DX2 analytically  !
 ! A11   A(3,6,8)              132.9418         calculate D2E/DX2 analytically  !
 ! A12   A(4,6,8)              133.6149         calculate D2E/DX2 analytically  !
 ! A13   A(4,7,9)              108.9705         calculate D2E/DX2 analytically  !
 ! A14   A(6,8,10)             108.972          calculate D2E/DX2 analytically  !
 ! D1    D(2,1,3,5)              0.0018         calculate D2E/DX2 analytically  !
 ! D2    D(2,1,3,6)           -179.9989         calculate D2E/DX2 analytically  !
 ! D3    D(4,1,3,5)           -179.9989         calculate D2E/DX2 analytically  !
 ! D4    D(4,1,3,6)              0.0004         calculate D2E/DX2 analytically  !
 ! D5    D(2,1,4,6)            179.9989         calculate D2E/DX2 analytically  !
 ! D6    D(2,1,4,7)             -0.002          calculate D2E/DX2 analytically  !
 ! D7    D(3,1,4,6)             -0.0004         calculate D2E/DX2 analytically  !
 ! D8    D(3,1,4,7)            179.9987         calculate D2E/DX2 analytically  !
 ! D9    D(1,3,6,4)             -0.0004         calculate D2E/DX2 analytically  !
 ! D10   D(1,3,6,8)            179.9996         calculate D2E/DX2 analytically  !
 ! D11   D(5,3,6,4)            179.9989         calculate D2E/DX2 analytically  !
 ! D12   D(5,3,6,8)             -0.0011         calculate D2E/DX2 analytically  !
 ! D13   D(1,4,6,3)              0.0004         calculate D2E/DX2 analytically  !
 ! D14   D(1,4,6,8)           -179.9996         calculate D2E/DX2 analytically  !
 ! D15   D(7,4,6,3)           -179.9986         calculate D2E/DX2 analytically  !
 ! D16   D(7,4,6,8)              0.0014         calculate D2E/DX2 analytically  !
 ! D17   D(1,4,7,9)              0.0021         calculate D2E/DX2 analytically  !
 ! D18   D(6,4,7,9)           -179.9992         calculate D2E/DX2 analytically  !
 ! D19   D(3,6,8,10)             0.002          calculate D2E/DX2 analytically  !
 ! D20   D(4,6,8,10)          -179.9981         calculate D2E/DX2 analytically  !
 --------------------------------------------------------------------------------
 Trust Radius=3.00D-01 FncErr=1.00D-07 GrdErr=1.00D-06
 Number of steps in this run=     54 maximum allowed number of steps=    100.
 GradGradGradGradGradGradGradGradGradGradGradGradGradGradGradGradGradGrad

 Leave Link  103 at Sun Apr 26 04:48:36 2015, MaxMem=   524288000 cpu:         0.1
 (Enter /opt/g09/l202.exe)
                          Input orientation:                          
 ---------------------------------------------------------------------
 Center     Atomic      Atomic             Coordinates (Angstroms)
 Number     Number       Type             X           Y           Z
 ---------------------------------------------------------------------
      1          6           0        2.334910    1.215270    0.038050
      2          8           0        2.448210    0.018830    0.041650
      3          6           0        1.215700    2.298600    0.018060
      4          6           0        3.305990    2.347610    0.052370
      5          8           0        0.016360    2.372740   -0.001760
      6          6           0        2.315560    3.306320    0.034670
      7          8           0        4.625000    2.401050    0.074010
      8          8           0        2.325920    4.626540    0.032900
      9          1           0        4.976270    1.499460    0.081090
     10          1           0        1.413480    4.948270    0.017450
 ---------------------------------------------------------------------
                    Distance matrix (angstroms):
                    1          2          3          4          5
     1  C    0.000000
     2  O    1.201798   0.000000
     3  C    1.557766   2.591715   0.000000
     4  C    1.491776   2.481757   2.091146   0.000000
     5  O    2.591717   3.384770   1.201793   3.290171   0.000000
     6  C    2.091142   3.290173   1.491800   1.378546   2.481777
     7  O    2.579124   3.227140   3.411298   1.320269   4.609350
     8  O    3.411286   4.609341   2.579169   2.480814   3.227210
     9  H    2.656953   2.930001   3.845060   1.873504   5.036883
    10  H    3.845094   5.036927   2.657041   3.216558   2.930131
                    6          7          8          9         10
     6  C    0.000000
     7  O    2.480841   0.000000
     8  O    1.320262   3.200041   0.000000
     9  H    3.216563   0.967629   4.099428   0.000000
    10  H    1.873511   4.099438   0.967624   4.959013   0.000000
 Symmetry turned off by external request.
 Stoichiometry    C4H2O4
 Framework group  C1[X(C4H2O4)]
 Deg. of freedom    24
 Full point group                 C1      NOp   1
 Rotational constants (GHZ):      2.5739688      2.3852743      1.2380159
 Leave Link  202 at Sun Apr 26 04:48:36 2015, MaxMem=   524288000 cpu:         0.0
 (Enter /opt/g09/l301.exe)
 Standard basis: 6-311+G(d,p) (5D, 7F)
 Ernie: Thresh=  0.10000D-02 Tol=  0.10000D-05 Strict=F.
 AO basis set in the form of general basis input (Overlap normalization):
      1 0
 S   6 1.00       0.000000000000
      0.4563240000D+04  0.1966650249D-02
      0.6820240000D+03  0.1523060193D-01
      0.1549730000D+03  0.7612690966D-01
      0.4445530000D+02  0.2608010331D+00
      0.1302900000D+02  0.6164620782D+00
      0.1827730000D+01  0.2210060280D+00
 SP   3 1.00       0.000000000000
      0.2096420000D+02  0.1146600807D+00  0.4024869267D-01
      0.4803310000D+01  0.9199996477D+00  0.2375939567D+00
      0.1459330000D+01 -0.3030682134D-02  0.8158538515D+00
 SP   1 1.00       0.000000000000
      0.4834560000D+00  0.1000000000D+01  0.1000000000D+01
 SP   1 1.00       0.000000000000
      0.1455850000D+00  0.1000000000D+01  0.1000000000D+01
 SP   1 1.00       0.000000000000
      0.4380000000D-01  0.1000000000D+01  0.1000000000D+01
 D   1 1.00       0.000000000000
      0.6260000000D+00  0.1000000000D+01
 ****
      2 0
 S   6 1.00       0.000000000000
      0.8588500000D+04  0.1895150083D-02
      0.1297230000D+04  0.1438590063D-01
      0.2992960000D+03  0.7073200310D-01
      0.8737710000D+02  0.2400010105D+00
      0.2567890000D+02  0.5947970261D+00
      0.3740040000D+01  0.2808020123D+00
 SP   3 1.00       0.000000000000
      0.4211750000D+02  0.1138890124D+00  0.3651139738D-01
      0.9628370000D+01  0.9208111006D+00  0.2371529830D+00
      0.2853320000D+01 -0.3274470358D-02  0.8197019412D+00
 SP   1 1.00       0.000000000000
      0.9056610000D+00  0.1000000000D+01  0.1000000000D+01
 SP   1 1.00       0.000000000000
      0.2556110000D+00  0.1000000000D+01  0.1000000000D+01
 SP   1 1.00       0.000000000000
      0.8450000000D-01  0.1000000000D+01  0.1000000000D+01
 D   1 1.00       0.000000000000
      0.1292000000D+01  0.1000000000D+01
 ****
      3 0
 S   6 1.00       0.000000000000
      0.4563240000D+04  0.1966650249D-02
      0.6820240000D+03  0.1523060193D-01
      0.1549730000D+03  0.7612690966D-01
      0.4445530000D+02  0.2608010331D+00
      0.1302900000D+02  0.6164620782D+00
      0.1827730000D+01  0.2210060280D+00
 SP   3 1.00       0.000000000000
      0.2096420000D+02  0.1146600807D+00  0.4024869267D-01
      0.4803310000D+01  0.9199996477D+00  0.2375939567D+00
      0.1459330000D+01 -0.3030682134D-02  0.8158538515D+00
 SP   1 1.00       0.000000000000
      0.4834560000D+00  0.1000000000D+01  0.1000000000D+01
 SP   1 1.00       0.000000000000
      0.1455850000D+00  0.1000000000D+01  0.1000000000D+01
 SP   1 1.00       0.000000000000
      0.4380000000D-01  0.1000000000D+01  0.1000000000D+01
 D   1 1.00       0.000000000000
      0.6260000000D+00  0.1000000000D+01
 ****
      4 0
 S   6 1.00       0.000000000000
      0.4563240000D+04  0.1966650249D-02
      0.6820240000D+03  0.1523060193D-01
      0.1549730000D+03  0.7612690966D-01
      0.4445530000D+02  0.2608010331D+00
      0.1302900000D+02  0.6164620782D+00
      0.1827730000D+01  0.2210060280D+00
 SP   3 1.00       0.000000000000
      0.2096420000D+02  0.1146600807D+00  0.4024869267D-01
      0.4803310000D+01  0.9199996477D+00  0.2375939567D+00
      0.1459330000D+01 -0.3030682134D-02  0.8158538515D+00
 SP   1 1.00       0.000000000000
      0.4834560000D+00  0.1000000000D+01  0.1000000000D+01
 SP   1 1.00       0.000000000000
      0.1455850000D+00  0.1000000000D+01  0.1000000000D+01
 SP   1 1.00       0.000000000000
      0.4380000000D-01  0.1000000000D+01  0.1000000000D+01
 D   1 1.00       0.000000000000
      0.6260000000D+00  0.1000000000D+01
 ****
      5 0
 S   6 1.00       0.000000000000
      0.8588500000D+04  0.1895150083D-02
      0.1297230000D+04  0.1438590063D-01
      0.2992960000D+03  0.7073200310D-01
      0.8737710000D+02  0.2400010105D+00
      0.2567890000D+02  0.5947970261D+00
      0.3740040000D+01  0.2808020123D+00
 SP   3 1.00       0.000000000000
      0.4211750000D+02  0.1138890124D+00  0.3651139738D-01
      0.9628370000D+01  0.9208111006D+00  0.2371529830D+00
      0.2853320000D+01 -0.3274470358D-02  0.8197019412D+00
 SP   1 1.00       0.000000000000
      0.9056610000D+00  0.1000000000D+01  0.1000000000D+01
 SP   1 1.00       0.000000000000
      0.2556110000D+00  0.1000000000D+01  0.1000000000D+01
 SP   1 1.00       0.000000000000
      0.8450000000D-01  0.1000000000D+01  0.1000000000D+01
 D   1 1.00       0.000000000000
      0.1292000000D+01  0.1000000000D+01
 ****
      6 0
 S   6 1.00       0.000000000000
      0.4563240000D+04  0.1966650249D-02
      0.6820240000D+03  0.1523060193D-01
      0.1549730000D+03  0.7612690966D-01
      0.4445530000D+02  0.2608010331D+00
      0.1302900000D+02  0.6164620782D+00
      0.1827730000D+01  0.2210060280D+00
 SP   3 1.00       0.000000000000
      0.2096420000D+02  0.1146600807D+00  0.4024869267D-01
      0.4803310000D+01  0.9199996477D+00  0.2375939567D+00
      0.1459330000D+01 -0.3030682134D-02  0.8158538515D+00
 SP   1 1.00       0.000000000000
      0.4834560000D+00  0.1000000000D+01  0.1000000000D+01
 SP   1 1.00       0.000000000000
      0.1455850000D+00  0.1000000000D+01  0.1000000000D+01
 SP   1 1.00       0.000000000000
      0.4380000000D-01  0.1000000000D+01  0.1000000000D+01
 D   1 1.00       0.000000000000
      0.6260000000D+00  0.1000000000D+01
 ****
      7 0
 S   6 1.00       0.000000000000
      0.8588500000D+04  0.1895150083D-02
      0.1297230000D+04  0.1438590063D-01
      0.2992960000D+03  0.7073200310D-01
      0.8737710000D+02  0.2400010105D+00
      0.2567890000D+02  0.5947970261D+00
      0.3740040000D+01  0.2808020123D+00
 SP   3 1.00       0.000000000000
      0.4211750000D+02  0.1138890124D+00  0.3651139738D-01
      0.9628370000D+01  0.9208111006D+00  0.2371529830D+00
      0.2853320000D+01 -0.3274470358D-02  0.8197019412D+00
 SP   1 1.00       0.000000000000
      0.9056610000D+00  0.1000000000D+01  0.1000000000D+01
 SP   1 1.00       0.000000000000
      0.2556110000D+00  0.1000000000D+01  0.1000000000D+01
 SP   1 1.00       0.000000000000
      0.8450000000D-01  0.1000000000D+01  0.1000000000D+01
 D   1 1.00       0.000000000000
      0.1292000000D+01  0.1000000000D+01
 ****
      8 0
 S   6 1.00       0.000000000000
      0.8588500000D+04  0.1895150083D-02
      0.1297230000D+04  0.1438590063D-01
      0.2992960000D+03  0.7073200310D-01
      0.8737710000D+02  0.2400010105D+00
      0.2567890000D+02  0.5947970261D+00
      0.3740040000D+01  0.2808020123D+00
 SP   3 1.00       0.000000000000
      0.4211750000D+02  0.1138890124D+00  0.3651139738D-01
      0.9628370000D+01  0.9208111006D+00  0.2371529830D+00
      0.2853320000D+01 -0.3274470358D-02  0.8197019412D+00
 SP   1 1.00       0.000000000000
      0.9056610000D+00  0.1000000000D+01  0.1000000000D+01
 SP   1 1.00       0.000000000000
      0.2556110000D+00  0.1000000000D+01  0.1000000000D+01
 SP   1 1.00       0.000000000000
      0.8450000000D-01  0.1000000000D+01  0.1000000000D+01
 D   1 1.00       0.000000000000
      0.1292000000D+01  0.1000000000D+01
 ****
      9 0
 S   3 1.00       0.000000000000
      0.3386500000D+02  0.2549381454D-01
      0.5094790000D+01  0.1903731086D+00
      0.1158790000D+01  0.8521614860D+00
 S   1 1.00       0.000000000000
      0.3258400000D+00  0.1000000000D+01
 S   1 1.00       0.000000000000
      0.1027410000D+00  0.1000000000D+01
 P   1 1.00       0.000000000000
      0.7500000000D+00  0.1000000000D+01
 ****
     10 0
 S   3 1.00       0.000000000000
      0.3386500000D+02  0.2549381454D-01
      0.5094790000D+01  0.1903731086D+00
      0.1158790000D+01  0.8521614860D+00
 S   1 1.00       0.000000000000
      0.3258400000D+00  0.1000000000D+01
 S   1 1.00       0.000000000000
      0.1027410000D+00  0.1000000000D+01
 P   1 1.00       0.000000000000
      0.7500000000D+00  0.1000000000D+01
 ****

   188 basis functions,   304 primitive gaussians,   196 cartesian basis functions
    29 alpha electrons       29 beta electrons
       nuclear repulsion energy       342.3061890661 Hartrees.
 IExCor= 1614 DFT=T Ex+Corr=B971 ExCW=0 ScaHFX=  0.210000
 ScaDFX=  1.000000  1.000000  1.000000  1.000000 ScalE2=  1.000000  1.000000
 IRadAn=      5 IRanWt=     -1 IRanGd=            0 ICorTp=0 IEmpDi=  4
 NAtoms=   10 NActive=   10 NUniq=   10 SFac= 1.00D+00 NAtFMM=   60 NAOKFM=F Big=F
 Integral buffers will be    131072 words long.
 Raffenetti 2 integral format.
 Two-electron integral symmetry is turned off.
 Leave Link  301 at Sun Apr 26 04:48:36 2015, MaxMem=   524288000 cpu:         0.4
 (Enter /opt/g09/l302.exe)
 NPDir=0 NMtPBC=     1 NCelOv=     1 NCel=       1 NClECP=     1 NCelD=      1
         NCelK=      1 NCelE2=     1 NClLst=     1 CellRange=     0.0.
 One-electron integrals computed using PRISM.
 NBasis=   188 RedAO= T EigKep=  3.41D-06  NBF=   188
 NBsUse=   188 1.00D-06 EigRej= -1.00D+00 NBFU=   188
 Precomputing XC quadrature grid using
 IXCGrd= 4 IRadAn=           5 IRanWt=          -1 IRanGd=           0 AccXCQ= 0.00D+00.
 Generated NRdTot=       0 NPtTot=           0 NUsed=           0 NTot=          32
 NSgBfM=   196   196   196   196   196 MxSgAt=    10 MxSgA2=    10.
 Leave Link  302 at Sun Apr 26 04:48:36 2015, MaxMem=   524288000 cpu:         1.9
 (Enter /opt/g09/l303.exe)
 DipDrv:  MaxL=1.
 Leave Link  303 at Sun Apr 26 04:48:36 2015, MaxMem=   524288000 cpu:         0.4
 (Enter /opt/g09/l401.exe)
 ExpMin= 4.38D-02 ExpMax= 8.59D+03 ExpMxC= 1.30D+03 IAcc=3 IRadAn=         5 AccDes= 0.00D+00
 Harris functional with IExCor= 1614 and IRadAn=       5 diagonalized for initial guess.
 HarFok:  IExCor= 1614 AccDes= 0.00D+00 IRadAn=         5 IDoV= 1 UseB2=F ITyADJ=14
 ICtDFT=  3500011 ScaDFX=  1.000000  1.000000  1.000000  1.000000
 FoFCou: FMM=F IPFlag=           0 FMFlag=      100000 FMFlg1=           0
         NFxFlg=           0 DoJE=T BraDBF=F KetDBF=T FulRan=T
         wScrn=  0.000000 ICntrl=     500 IOpCl=  0 I1Cent=   200000004 NGrid=           0
         NMat0=    1 NMatS0=      1 NMatT0=    0 NMatD0=    1 NMtDS0=    0 NMtDT0=    0
 Symmetry not used in FoFCou.
 Harris En= -443.190280473368    
 JPrj=0 DoOrth=F DoCkMO=T.
 Mixing orbitals, IMix= 1 IMixAn=  0 NRI=1 NE=   29 Coef=  7.07106781D-01  7.07106781D-01
 Leave Link  401 at Sun Apr 26 04:48:37 2015, MaxMem=   524288000 cpu:         7.7
 (Enter /opt/g09/l502.exe)
 Closed shell SCF:
 Using DIIS extrapolation, IDIIS=  1040.
 Two-electron integral symmetry not used.
 Keep R1 ints in memory in canonical form, NReq=161783411.
 IVT=      136562 IEndB=      136562 NGot=   524288000 MDV=   366327178
 LenX=   366327178 LenY=   366288321
 Requested convergence on RMS density matrix=1.00D-08 within 128 cycles.
 Requested convergence on MAX density matrix=1.00D-06.
 Requested convergence on             energy=1.00D-06.
 No special actions if energy rises.
 FoFCou: FMM=F IPFlag=           0 FMFlag=           0 FMFlg1=           0
         NFxFlg=           0 DoJE=F BraDBF=F KetDBF=F FulRan=T
         wScrn=  0.000000 ICntrl=     600 IOpCl=  0 I1Cent=           0 NGrid=           0
         NMat0=    1 NMatS0=  17766 NMatT0=    0 NMatD0=    1 NMtDS0=    0 NMtDT0=    0
 Symmetry not used in FoFCou.

 Cycle   1  Pass 1  IDiag  1:
 E= -454.229727769623    
 DIIS: error= 9.79D-02 at cycle   1 NSaved=   1.
 NSaved= 1 IEnMin= 1 EnMin= -454.229727769623     IErMin= 1 ErrMin= 9.79D-02
 ErrMax= 9.79D-02  0.00D+00 EMaxC= 1.00D-01 BMatC= 8.24D-01 BMatP= 8.24D-01
 IDIUse=3 WtCom= 2.11D-02 WtEn= 9.79D-01
 Coeff-Com:  0.100D+01
 Coeff-En:   0.100D+01
 Coeff:      0.100D+01
 Gap=     0.044 Goal=   None    Shift=    0.000
 GapD=    0.044 DampG=0.250 DampE=0.500 DampFc=0.2500 IDamp=-1.
 Damping current iteration by 2.50D-01
 RMSDP=6.87D-03 MaxDP=1.10D-01              OVMax= 6.14D-01

 Cycle   2  Pass 1  IDiag  1:
 E= -454.292395947572     Delta-E=       -0.062668177950 Rises=F Damp=T
 DIIS: error= 7.12D-02 at cycle   2 NSaved=   2.
 NSaved= 2 IEnMin= 2 EnMin= -454.292395947572     IErMin= 2 ErrMin= 7.12D-02
 ErrMax= 7.12D-02  0.00D+00 EMaxC= 1.00D-01 BMatC= 4.14D-01 BMatP= 8.24D-01
 IDIUse=3 WtCom= 2.88D-01 WtEn= 7.12D-01
 Coeff-Com: -0.196D+01 0.296D+01
 Coeff-En:   0.000D+00 0.100D+01
 Coeff:     -0.564D+00 0.156D+01
 Gap=     0.163 Goal=   None    Shift=    0.000
 RMSDP=5.62D-03 MaxDP=1.20D-01 DE=-6.27D-02 OVMax= 9.41D-02

 Cycle   3  Pass 1  IDiag  1:
 E= -454.470020731022     Delta-E=       -0.177624783450 Rises=F Damp=F
 DIIS: error= 1.23D-02 at cycle   3 NSaved=   3.
 NSaved= 3 IEnMin= 3 EnMin= -454.470020731022     IErMin= 3 ErrMin= 1.23D-02
 ErrMax= 1.23D-02  0.00D+00 EMaxC= 1.00D-01 BMatC= 1.42D-02 BMatP= 4.14D-01
 IDIUse=3 WtCom= 8.77D-01 WtEn= 1.23D-01
 Coeff-Com: -0.459D+00 0.691D+00 0.769D+00
 Coeff-En:   0.000D+00 0.000D+00 0.100D+01
 Coeff:     -0.403D+00 0.606D+00 0.797D+00
 Gap=     0.201 Goal=   None    Shift=    0.000
 RMSDP=2.68D-03 MaxDP=1.10D-01 DE=-1.78D-01 OVMax= 7.49D-02

 Cycle   4  Pass 1  IDiag  1:
 E= -454.471559986202     Delta-E=       -0.001539255180 Rises=F Damp=F
 DIIS: error= 1.18D-02 at cycle   4 NSaved=   4.
 NSaved= 4 IEnMin= 4 EnMin= -454.471559986202     IErMin= 4 ErrMin= 1.18D-02
 ErrMax= 1.18D-02  0.00D+00 EMaxC= 1.00D-01 BMatC= 1.50D-02 BMatP= 1.42D-02
 IDIUse=3 WtCom= 8.82D-01 WtEn= 1.18D-01
 Coeff-Com: -0.110D+00 0.172D+00 0.513D+00 0.424D+00
 Coeff-En:   0.000D+00 0.000D+00 0.473D+00 0.527D+00
 Coeff:     -0.966D-01 0.152D+00 0.509D+00 0.437D+00
 Gap=     0.195 Goal=   None    Shift=    0.000
 RMSDP=9.69D-04 MaxDP=2.90D-02 DE=-1.54D-03 OVMax= 4.87D-02

 Cycle   5  Pass 1  IDiag  1:
 E= -454.483203606297     Delta-E=       -0.011643620095 Rises=F Damp=F
 DIIS: error= 3.51D-03 at cycle   5 NSaved=   5.
 NSaved= 5 IEnMin= 5 EnMin= -454.483203606297     IErMin= 5 ErrMin= 3.51D-03
 ErrMax= 3.51D-03  0.00D+00 EMaxC= 1.00D-01 BMatC= 1.15D-03 BMatP= 1.42D-02
 IDIUse=3 WtCom= 9.65D-01 WtEn= 3.51D-02
 Coeff-Com:  0.514D-02-0.183D-02 0.203D+00 0.265D+00 0.529D+00
 Coeff-En:   0.000D+00 0.000D+00 0.000D+00 0.797D-02 0.992D+00
 Coeff:      0.496D-02-0.176D-02 0.195D+00 0.256D+00 0.546D+00
 Gap=     0.196 Goal=   None    Shift=    0.000
 RMSDP=3.46D-04 MaxDP=6.45D-03 DE=-1.16D-02 OVMax= 1.42D-02

 Cycle   6  Pass 1  IDiag  1:
 E= -454.484158842017     Delta-E=       -0.000955235720 Rises=F Damp=F
 DIIS: error= 9.32D-04 at cycle   6 NSaved=   6.
 NSaved= 6 IEnMin= 6 EnMin= -454.484158842017     IErMin= 6 ErrMin= 9.32D-04
 ErrMax= 9.32D-04  0.00D+00 EMaxC= 1.00D-01 BMatC= 7.19D-05 BMatP= 1.15D-03
 IDIUse=3 WtCom= 9.91D-01 WtEn= 9.32D-03
 Coeff-Com:  0.128D-01-0.189D-01-0.295D-01 0.544D-02 0.207D+00 0.823D+00
 Coeff-En:   0.000D+00 0.000D+00 0.000D+00 0.000D+00 0.000D+00 0.100D+01
 Coeff:      0.127D-01-0.188D-01-0.292D-01 0.538D-02 0.205D+00 0.825D+00
 Gap=     0.195 Goal=   None    Shift=    0.000
 RMSDP=1.04D-04 MaxDP=2.38D-03 DE=-9.55D-04 OVMax= 9.27D-03

 Cycle   7  Pass 1  IDiag  1:
 E= -454.484264306030     Delta-E=       -0.000105464013 Rises=F Damp=F
 DIIS: error= 2.71D-04 at cycle   7 NSaved=   7.
 NSaved= 7 IEnMin= 7 EnMin= -454.484264306030     IErMin= 7 ErrMin= 2.71D-04
 ErrMax= 2.71D-04  0.00D+00 EMaxC= 1.00D-01 BMatC= 6.07D-06 BMatP= 7.19D-05
 IDIUse=3 WtCom= 9.97D-01 WtEn= 2.71D-03
 Coeff-Com:  0.489D-02-0.773D-02-0.293D-01-0.207D-01 0.240D-01 0.322D+00
 Coeff-Com:  0.707D+00
 Coeff-En:   0.000D+00 0.000D+00 0.000D+00 0.000D+00 0.000D+00 0.000D+00
 Coeff-En:   0.100D+01
 Coeff:      0.488D-02-0.770D-02-0.292D-01-0.207D-01 0.240D-01 0.321D+00
 Coeff:      0.707D+00
 Gap=     0.196 Goal=   None    Shift=    0.000
 RMSDP=4.13D-05 MaxDP=1.71D-03 DE=-1.05D-04 OVMax= 2.56D-03

 Cycle   8  Pass 1  IDiag  1:
 E= -454.484272232464     Delta-E=       -0.000007926433 Rises=F Damp=F
 DIIS: error= 1.07D-04 at cycle   8 NSaved=   8.
 NSaved= 8 IEnMin= 8 EnMin= -454.484272232464     IErMin= 8 ErrMin= 1.07D-04
 ErrMax= 1.07D-04  0.00D+00 EMaxC= 1.00D-01 BMatC= 1.40D-06 BMatP= 6.07D-06
 IDIUse=3 WtCom= 9.99D-01 WtEn= 1.07D-03
 Coeff-Com:  0.128D-02-0.213D-02-0.115D-01-0.113D-01-0.110D-01 0.747D-01
 Coeff-Com:  0.380D+00 0.580D+00
 Coeff-En:   0.000D+00 0.000D+00 0.000D+00 0.000D+00 0.000D+00 0.000D+00
 Coeff-En:   0.000D+00 0.100D+01
 Coeff:      0.128D-02-0.212D-02-0.115D-01-0.113D-01-0.109D-01 0.746D-01
 Coeff:      0.379D+00 0.581D+00
 Gap=     0.196 Goal=   None    Shift=    0.000
 RMSDP=9.62D-06 MaxDP=1.64D-04 DE=-7.93D-06 OVMax= 6.14D-04

 Cycle   9  Pass 1  IDiag  1:
 E= -454.484273693197     Delta-E=       -0.000001460734 Rises=F Damp=F
 DIIS: error= 1.74D-05 at cycle   9 NSaved=   9.
 NSaved= 9 IEnMin= 9 EnMin= -454.484273693197     IErMin= 9 ErrMin= 1.74D-05
 ErrMax= 1.74D-05  0.00D+00 EMaxC= 1.00D-01 BMatC= 6.17D-08 BMatP= 1.40D-06
 IDIUse=1 WtCom= 1.00D+00 WtEn= 0.00D+00
 Coeff-Com: -0.380D-03 0.545D-03 0.303D-03-0.723D-03-0.679D-02-0.202D-01
 Coeff-Com:  0.282D-01 0.195D+00 0.804D+00
 Coeff:     -0.380D-03 0.545D-03 0.303D-03-0.723D-03-0.679D-02-0.202D-01
 Coeff:      0.282D-01 0.195D+00 0.804D+00
 Gap=     0.196 Goal=   None    Shift=    0.000
 RMSDP=3.40D-06 MaxDP=1.51D-04 DE=-1.46D-06 OVMax= 1.81D-04

 Cycle  10  Pass 1  IDiag  1:
 E= -454.484273762394     Delta-E=       -0.000000069196 Rises=F Damp=F
 DIIS: error= 2.47D-06 at cycle  10 NSaved=  10.
 NSaved=10 IEnMin=10 EnMin= -454.484273762394     IErMin=10 ErrMin= 2.47D-06
 ErrMax= 2.47D-06  0.00D+00 EMaxC= 1.00D-01 BMatC= 8.34D-10 BMatP= 6.17D-08
 IDIUse=1 WtCom= 1.00D+00 WtEn= 0.00D+00
 Coeff-Com: -0.948D-04 0.141D-03 0.401D-03 0.199D-03-0.443D-03-0.577D-02
 Coeff-Com: -0.587D-02 0.133D-01 0.117D+00 0.881D+00
 Coeff:     -0.948D-04 0.141D-03 0.401D-03 0.199D-03-0.443D-03-0.577D-02
 Coeff:     -0.587D-02 0.133D-01 0.117D+00 0.881D+00
 Gap=     0.196 Goal=   None    Shift=    0.000
 RMSDP=5.32D-07 MaxDP=1.72D-05 DE=-6.92D-08 OVMax= 1.74D-05

 Cycle  11  Pass 1  IDiag  1:
 E= -454.484273763317     Delta-E=       -0.000000000923 Rises=F Damp=F
 DIIS: error= 6.13D-07 at cycle  11 NSaved=  11.
 NSaved=11 IEnMin=11 EnMin= -454.484273763317     IErMin=11 ErrMin= 6.13D-07
 ErrMax= 6.13D-07  0.00D+00 EMaxC= 1.00D-01 BMatC= 5.67D-11 BMatP= 8.34D-10
 IDIUse=1 WtCom= 1.00D+00 WtEn= 0.00D+00
 Coeff-Com: -0.189D-04 0.285D-04 0.103D-03 0.827D-04 0.578D-04-0.113D-02
 Coeff-Com: -0.233D-02-0.118D-02 0.126D-01 0.257D+00 0.734D+00
 Coeff:     -0.189D-04 0.285D-04 0.103D-03 0.827D-04 0.578D-04-0.113D-02
 Coeff:     -0.233D-02-0.118D-02 0.126D-01 0.257D+00 0.734D+00
 Gap=     0.196 Goal=   None    Shift=    0.000
 RMSDP=1.19D-07 MaxDP=2.53D-06 DE=-9.23D-10 OVMax= 5.15D-06

 Cycle  12  Pass 1  IDiag  1:
 E= -454.484273763331     Delta-E=       -0.000000000015 Rises=F Damp=F
 DIIS: error= 8.32D-07 at cycle  12 NSaved=  12.
 NSaved=12 IEnMin=12 EnMin= -454.484273763331     IErMin=11 ErrMin= 6.13D-07
 ErrMax= 8.32D-07  0.00D+00 EMaxC= 1.00D-01 BMatC= 5.07D-11 BMatP= 5.67D-11
 IDIUse=1 WtCom= 1.00D+00 WtEn= 0.00D+00
 Coeff-Com: -0.287D-05 0.444D-05 0.251D-04 0.333D-04 0.763D-04-0.154D-03
 Coeff-Com: -0.950D-03-0.219D-02-0.384D-02 0.775D-01 0.502D+00 0.427D+00
 Coeff:     -0.287D-05 0.444D-05 0.251D-04 0.333D-04 0.763D-04-0.154D-03
 Coeff:     -0.950D-03-0.219D-02-0.384D-02 0.775D-01 0.502D+00 0.427D+00
 Gap=     0.196 Goal=   None    Shift=    0.000
 RMSDP=4.92D-08 MaxDP=1.19D-06 DE=-1.48D-11 OVMax= 3.47D-06

 Cycle  13  Pass 1  IDiag  1:
 E= -454.484273763372     Delta-E=       -0.000000000041 Rises=F Damp=F
 DIIS: error= 1.68D-07 at cycle  13 NSaved=  13.
 NSaved=13 IEnMin=13 EnMin= -454.484273763372     IErMin=13 ErrMin= 1.68D-07
 ErrMax= 1.68D-07  0.00D+00 EMaxC= 1.00D-01 BMatC= 2.72D-12 BMatP= 5.07D-11
 IDIUse=1 WtCom= 1.00D+00 WtEn= 0.00D+00
 Coeff-Com:  0.113D-05-0.169D-05-0.414D-05 0.136D-05 0.164D-04 0.791D-04
 Coeff-Com: -0.101D-03-0.771D-03-0.311D-02-0.409D-02 0.120D+00 0.222D+00
 Coeff-Com:  0.666D+00
 Coeff:      0.113D-05-0.169D-05-0.414D-05 0.136D-05 0.164D-04 0.791D-04
 Coeff:     -0.101D-03-0.771D-03-0.311D-02-0.409D-02 0.120D+00 0.222D+00
 Coeff:      0.666D+00
 Gap=     0.196 Goal=   None    Shift=    0.000
 RMSDP=1.96D-08 MaxDP=4.96D-07 DE=-4.07D-11 OVMax= 6.75D-07

 Cycle  14  Pass 1  IDiag  1:
 E= -454.484273763367     Delta-E=        0.000000000005 Rises=F Damp=F
 DIIS: error= 2.52D-08 at cycle  14 NSaved=  14.
 NSaved=14 IEnMin=13 EnMin= -454.484273763372     IErMin=14 ErrMin= 2.52D-08
 ErrMax= 2.52D-08  0.00D+00 EMaxC= 1.00D-01 BMatC= 9.16D-14 BMatP= 2.72D-12
 IDIUse=1 WtCom= 1.00D+00 WtEn= 0.00D+00
 Coeff-Com:  0.629D-06-0.923D-06-0.289D-05-0.174D-05 0.495D-05 0.510D-04
 Coeff-Com:  0.276D-04-0.176D-03-0.976D-03-0.727D-02 0.627D-02 0.468D-01
 Coeff-Com:  0.221D+00 0.734D+00
 Coeff:      0.629D-06-0.923D-06-0.289D-05-0.174D-05 0.495D-05 0.510D-04
 Coeff:      0.276D-04-0.176D-03-0.976D-03-0.727D-02 0.627D-02 0.468D-01
 Coeff:      0.221D+00 0.734D+00
 Gap=     0.196 Goal=   None    Shift=    0.000
 RMSDP=4.34D-09 MaxDP=1.48D-07 DE= 4.77D-12 OVMax= 7.65D-08

 SCF Done:  E(RB971) =  -454.484273763     A.U. after   14 cycles
            NFock= 14  Conv=0.43D-08     -V/T= 2.0028
 KE= 4.531976249512D+02 PE=-1.752195486036D+03 EE= 5.022073982548D+02
 Leave Link  502 at Sun Apr 26 04:49:06 2015, MaxMem=   524288000 cpu:       160.9
 (Enter /opt/g09/l801.exe)
 DoSCS=F DFT=T ScalE2(SS,OS)=  1.000000  1.000000
 Range of M.O.s used for correlation:     1   188
 NBasis=   188 NAE=    29 NBE=    29 NFC=     0 NFV=     0
 NROrb=    188 NOA=    29 NOB=    29 NVA=   159 NVB=   159

 **** Warning!!: The largest alpha MO coefficient is  0.15818033D+03

 Leave Link  801 at Sun Apr 26 04:49:06 2015, MaxMem=   524288000 cpu:         0.3
 (Enter /opt/g09/l1101.exe)
 Using compressed storage, NAtomX=    10.
 Will process     11 centers per pass.
 Leave Link 1101 at Sun Apr 26 04:49:06 2015, MaxMem=   524288000 cpu:         1.8
 (Enter /opt/g09/l1102.exe)
 Symmetrizing basis deriv contribution to polar:
 IMax=3 JMax=2 DiffMx= 0.00D+00
 Leave Link 1102 at Sun Apr 26 04:49:07 2015, MaxMem=   524288000 cpu:         0.3
 (Enter /opt/g09/l1110.exe)
 Forming Gx(P) for the SCF density, NAtomX=    10.
 Integral derivatives from FoFJK, PRISM(SPDF).
 Do as many integral derivatives as possible in FoFJK.
 G2DrvN: MDV=     524287816.
 G2DrvN: will do    11 centers at a time, making    1 passes.
 Calling FoFCou, ICntrl=  3107 FMM=F I1Cent=   0 AccDes= 0.00D+00.
 FoFJK:  IHMeth= 1 ICntrl=    3107 DoSepK=F KAlg= 0 I1Cent=   0 FoldK=F
 IRaf=         0 NMat=   1 IRICut=       1 DoRegI=T DoRafI=F ISym2E= 0.
 FoFCou: FMM=F IPFlag=           0 FMFlag=      100000 FMFlg1=           0
         NFxFlg=           0 DoJE=F BraDBF=F KetDBF=F FulRan=T
         wScrn=  0.000000 ICntrl=    3107 IOpCl=  0 I1Cent=           0 NGrid=           0
         NMat0=    1 NMatS0=      1 NMatT0=    0 NMatD0=    1 NMtDS0=    0 NMtDT0=    0
 Symmetry not used in FoFCou.
 End of G2Drv F.D. properties file   721 does not exist.
 End of G2Drv F.D. properties file   722 does not exist.
 End of G2Drv F.D. properties file   788 does not exist.
 Leave Link 1110 at Sun Apr 26 04:49:44 2015, MaxMem=   524288000 cpu:       299.5
 (Enter /opt/g09/l1002.exe)
 Minotr:  Closed shell wavefunction.
          IDoAtm=1111111111
          Direct CPHF calculation.
          Differentiating once with respect to electric field.
                with respect to dipole field.
          Differentiating once with respect to nuclear coordinates.
          Requested convergence is 1.0D-08 RMS, and 1.0D-07 maximum.
          Secondary convergence is 1.0D-12 RMS, and 1.0D-12 maximum.
          NewPWx=T KeepS1=F KeepF1=F KeepIn=T MapXYZ=F SortEE=F KeepMc=T.
          MDV=     524287708 using IRadAn=       1.
 Generate precomputed XC quadrature information.
 Keep R1 ints in memory in canonical form, NReq=161651559.
 FoFCou: FMM=F IPFlag=           0 FMFlag=           0 FMFlg1=           0
         NFxFlg=           0 DoJE=F BraDBF=F KetDBF=F FulRan=T
         wScrn=  0.000000 ICntrl=     600 IOpCl=  0 I1Cent=           0 NGrid=           0
         NMat0=    1 NMatS0=  17766 NMatT0=    0 NMatD0=    1 NMtDS0=    0 NMtDT0=    0
 Symmetry not used in FoFCou.
          Solving linear equations simultaneously, MaxMat=       0.
          There are    33 degrees of freedom in the 1st order CPHF.  IDoFFX=6 NUNeed=     3.
     30 vectors produced by pass  0 Test12= 1.40D-14 3.03D-09 XBig12= 1.03D+02 6.19D+00.
 AX will form    30 AO Fock derivatives at one time.
     30 vectors produced by pass  1 Test12= 1.40D-14 3.03D-09 XBig12= 3.72D+01 1.15D+00.
     30 vectors produced by pass  2 Test12= 1.40D-14 3.03D-09 XBig12= 6.08D-01 9.67D-02.
     30 vectors produced by pass  3 Test12= 1.40D-14 3.03D-09 XBig12= 5.98D-03 1.01D-02.
     30 vectors produced by pass  4 Test12= 1.40D-14 3.03D-09 XBig12= 2.30D-05 7.52D-04.
     30 vectors produced by pass  5 Test12= 1.40D-14 3.03D-09 XBig12= 5.20D-08 4.39D-05.
     18 vectors produced by pass  6 Test12= 1.40D-14 3.03D-09 XBig12= 7.34D-11 1.32D-06.
      2 vectors produced by pass  7 Test12= 1.40D-14 3.03D-09 XBig12= 1.07D-13 4.34D-08.
      1 vectors produced by pass  8 Test12= 1.40D-14 3.03D-09 XBig12= 3.55D-16 4.38D-09.
 InvSVY:  IOpt=1 It=  1 EMax= 7.11D-15
 Solved reduced A of dimension   201 with    33 vectors.
 FullF1:  Do perturbations    1 to     3.
 Isotropic polarizability for W=    0.000000       61.87 Bohr**3.
 End of Minotr F.D. properties file   721 does not exist.
 End of Minotr F.D. properties file   722 does not exist.
 End of Minotr F.D. properties file   788 does not exist.
 Leave Link 1002 at Sun Apr 26 04:50:33 2015, MaxMem=   524288000 cpu:       380.6
 (Enter /opt/g09/l701.exe)
 Compute integral second derivatives.
 ... and contract with generalized density number  0.
 Leave Link  701 at Sun Apr 26 04:50:33 2015, MaxMem=   524288000 cpu:         2.2
 (Enter /opt/g09/l702.exe)
 L702 exits ... SP integral derivatives will be done elsewhere.
 Leave Link  702 at Sun Apr 26 04:50:33 2015, MaxMem=   524288000 cpu:         0.3
 (Enter /opt/g09/l703.exe)
 Compute integral second derivatives, UseDBF=F ICtDFT=           0.
 Integral derivatives from FoFJK, PRISM(SPDF).
 Calling FoFJK, ICntrl=    100127 FMM=F ISym2X=0 I1Cent= 0 IOpClX= 0 NMat=1 NMatS=1 NMatT=0.
 FoFJK:  IHMeth= 1 ICntrl=  100127 DoSepK=F KAlg= 0 I1Cent=   0 FoldK=F
 IRaf=         0 NMat=   1 IRICut=       1 DoRegI=T DoRafI=F ISym2E= 0.
 FoFCou: FMM=F IPFlag=           0 FMFlag=      100000 FMFlg1=         800
         NFxFlg=           0 DoJE=F BraDBF=F KetDBF=F FulRan=T
         wScrn=  0.000000 ICntrl=  100127 IOpCl=  0 I1Cent=           0 NGrid=           0
         NMat0=    1 NMatS0=      1 NMatT0=    0 NMatD0=    1 NMtDS0=    0 NMtDT0=    0
 Symmetry not used in FoFCou.
 Leave Link  703 at Sun Apr 26 04:52:01 2015, MaxMem=   524288000 cpu:       699.9
 (Enter /opt/g09/l716.exe)
 Dipole        = 9.73970032D-01 1.00659713D+00 1.45546621D-02
 Polarizability= 7.75132855D+01-6.04959827D+00 7.71305509D+01
                 7.74767156D-01-1.67035827D-01 3.09608011D+01
 -------------------------------------------------------------------
 Center     Atomic                   Forces (Hartrees/Bohr)
 Number     Number              X              Y              Z
 -------------------------------------------------------------------
      1        6           0.000000855   -0.000010252   -0.000000893
      2        8           0.000000776    0.000008487    0.000000439
      3        6          -0.000003150    0.000000496   -0.000000588
      4        6           0.000002657    0.000001862    0.000001322
      5        8           0.000003987   -0.000000398    0.000000151
      6        6          -0.000000547   -0.000005458   -0.000000134
      7        8          -0.000003888    0.000001642   -0.000000863
      8        8           0.000003263    0.000001950    0.000000785
      9        1           0.000000324    0.000000649    0.000000318
     10        1          -0.000004277    0.000001023   -0.000000538
 -------------------------------------------------------------------
 Cartesian Forces:  Max     0.000010252 RMS     0.000003174
 Force constants in Cartesian coordinates: 
                1             2             3             4             5 
      1  0.367160D+00
      2 -0.511223D-01  0.104143D+01
      3  0.371733D-02 -0.213935D-02  0.145973D+00
      4 -0.104216D+00  0.627860D-01 -0.887165D-03  0.636086D-01
      5  0.674085D-01 -0.757744D+00  0.212664D-02 -0.634091D-01  0.853992D+00
      6 -0.894292D-03  0.205078D-02 -0.558115D-01  0.714803D-03 -0.224488D-02
      7 -0.877869D-01  0.123818D-02 -0.322731D-03  0.191389D-01 -0.354889D-02
      8  0.589237D-01 -0.858269D-01  0.994524D-03  0.115897D-01 -0.272186D-01
      9 -0.406996D-03  0.453199D-04 -0.684334D-01  0.462875D-04  0.398823D-05
     10 -0.118714D+00 -0.552283D-01 -0.113034D-02  0.111041D-01  0.542428D-02
     11 -0.536047D-01 -0.108235D+00 -0.793042D-03 -0.227641D-01 -0.668591D-01
     12 -0.113282D-02 -0.819595D-03 -0.452479D-01 -0.174389D-04  0.207515D-03
     13 -0.274232D-01 -0.507388D-02 -0.695495D-03 -0.301645D-02  0.188447D-01
     14  0.100677D-01  0.193486D-01  0.158674D-03 -0.714857D-03 -0.242405D-02
     15 -0.717288D-03 -0.892249D-04  0.153101D-01 -0.780025D-05  0.309816D-03
     16  0.188317D-01  0.241024D-01  0.548587D-03 -0.637800D-02 -0.108637D-01
     17 -0.160578D-01 -0.145872D+00 -0.729791D-04  0.631918D-02  0.137346D-01
     18  0.606713D-03  0.585112D-03 -0.166195D-01 -0.305229D-03 -0.182151D-03
     19 -0.333642D-01  0.308798D-01 -0.663048D-03  0.121094D-01 -0.143795D-01
     20 -0.157227D-01  0.150359D-01 -0.274998D-03  0.128004D-02  0.999912D-03
     21 -0.594548D-03  0.493552D-03  0.415750D-02  0.204389D-03 -0.238867D-03
     22 -0.137074D-01 -0.924012D-02 -0.542608D-03  0.611576D-02  0.275295D-02
     23  0.323576D-02  0.144181D-01  0.619684D-04  0.114653D-02 -0.132117D-01
     24 -0.560789D-03 -0.143837D-03  0.201078D-01  0.205024D-03  0.553113D-04
     25  0.102369D-03  0.274620D-03  0.117289D-05  0.121336D-02 -0.863488D-03
     26 -0.570820D-02  0.784954D-02 -0.105390D-03  0.516775D-02 -0.195936D-02
     27  0.101721D-04 -0.725921D-05  0.447115D-05  0.384233D-04 -0.137218D-04
     28 -0.882413D-03  0.138355D-02 -0.257036D-04  0.320557D-03 -0.136588D-02
     29  0.258005D-02 -0.401610D-03  0.439537D-04 -0.140120D-02  0.690379D-03
     30 -0.274760D-04  0.245052D-04  0.559178D-03  0.870785D-05 -0.236514D-04
                6             7             8             9            10 
      6  0.257469D-01
      7  0.680630D-04  0.104371D+01
      8  0.252281D-03 -0.290339D-01  0.364604D+00
      9  0.153225D-01  0.147932D-01 -0.794895D-03  0.146145D+00
     10 -0.581857D-04 -0.146013D+00 -0.214066D-01 -0.209490D-02  0.891903D+00
     11 -0.256309D-03  0.187747D-01  0.189233D-01  0.256355D-03 -0.107641D+00
     12  0.141571D-01 -0.215437D-02 -0.403562D-03 -0.166635D-01  0.130599D-01
     13 -0.362631D-04 -0.761098D+00  0.459278D-01 -0.116506D-01  0.138592D-01
     14 -0.117149D-04  0.413017D-01 -0.100659D+00  0.744411D-03  0.697813D-02
     15 -0.248328D-02 -0.116444D-01  0.820944D-03 -0.559793D-01  0.264010D-04
     16 -0.279957D-03 -0.104505D+00 -0.531476D-01 -0.897595D-03 -0.231649D+00
     17  0.100801D-03 -0.547858D-01 -0.122297D+00 -0.789522D-03  0.185072D+00
     18  0.116150D-01 -0.894119D-03 -0.763504D-03 -0.452426D-01 -0.347912D-02
     19  0.226927D-03  0.145837D-01  0.416168D-02 -0.980169D-04 -0.400234D+00
     20  0.190222D-04 -0.831757D-02 -0.138809D-01 -0.868639D-04  0.865031D-02
     21 -0.412098D-03 -0.785627D-04  0.117883D-03  0.201158D-01 -0.595857D-02
     22  0.202706D-03  0.144914D-01 -0.141579D-01  0.190859D-03  0.136435D-01
     23  0.286375D-04  0.324450D-01 -0.328261D-01  0.587341D-03 -0.230762D-01
     24 -0.645094D-02  0.121666D-03 -0.178419D-03  0.417022D-02  0.202992D-03
     25  0.475559D-04 -0.530806D-03  0.259133D-02 -0.219410D-04 -0.337907D-01
     26  0.856140D-04  0.139456D-02 -0.753218D-03  0.248626D-04  0.359854D-02
     27 -0.160006D-02 -0.201518D-04  0.445889D-04  0.559068D-03 -0.516874D-03
     28  0.864397D-05  0.801480D-02 -0.544817D-02  0.139700D-03 -0.109139D-03
     29 -0.242309D-04  0.532138D-03 -0.661797D-04  0.900341D-05 -0.237139D-02
     30 -0.836825D-04  0.131339D-03 -0.898422D-04  0.594962D-05 -0.513120D-04
               11            12            13            14            15 
     11  0.542238D+00
     12 -0.241013D-02  0.108446D+00
     13 -0.102027D-01  0.515400D-04  0.857055D+00
     14 -0.650023D-02  0.141495D-03 -0.374547D-01  0.603101D-01
     15 -0.141560D-03  0.116193D-01  0.137106D-01 -0.666195D-03  0.259522D-01
     16  0.132837D+00 -0.340293D-02 -0.661821D-01 -0.252915D-01 -0.128394D-02
     17 -0.221430D+00  0.332177D-02  0.289282D-02  0.104465D-01  0.529894D-04
     18  0.246516D-02 -0.372326D-01 -0.132501D-02 -0.410223D-03  0.141358D-01
     19 -0.393196D-01 -0.588957D-02 -0.133160D-01  0.510456D-03 -0.113409D-03
     20 -0.114264D+00  0.252002D-03  0.211780D-02  0.622575D-02  0.162619D-04
     21 -0.539113D-03 -0.388789D-01 -0.116199D-03 -0.100510D-04 -0.645601D-02
     22  0.364222D-01  0.115583D-03  0.143701D-02  0.931053D-03  0.290984D-04
     23 -0.429654D-01 -0.311847D-03 -0.147297D-01  0.116717D-01 -0.259770D-03
     24  0.666757D-03  0.336372D-02  0.521632D-04 -0.239456D-05 -0.414703D-03
     25  0.498319D-01 -0.581759D-03  0.780101D-03 -0.138621D-02  0.163101D-04
     26  0.299890D-02  0.509003D-04 -0.135092D-02  0.230723D-03 -0.226939D-04
     27  0.812719D-03 -0.277337D-02  0.161966D-04 -0.232901D-04 -0.834875D-04
     28 -0.433372D-02 -0.481401D-04 -0.209593D-02  0.505819D-02 -0.155704D-04
     29 -0.390645D-02 -0.285519D-04 -0.971368D-03  0.134970D-02 -0.205682D-04
     30 -0.608352D-04  0.320978D-02 -0.687807D-05  0.792889D-04 -0.160068D-02
               16            17            18            19            20 
     16  0.549219D+00
     17 -0.118769D+00  0.884763D+00
     18  0.743572D-02 -0.310048D-02  0.108350D+00
     19 -0.433248D-01 -0.249394D-01 -0.731906D-03  0.549901D+00
     20  0.345621D-01  0.140178D-01  0.553378D-03 -0.138038D+00  0.541433D+00
     21 -0.818505D-03 -0.426105D-03  0.334848D-02  0.876788D-02 -0.300549D-02
     22 -0.113548D+00  0.180148D-01 -0.125592D-02  0.267908D-02 -0.294355D-02
     23 -0.299581D-01 -0.401015D+00  0.420265D-04  0.153173D-01  0.308464D-02
     24 -0.118396D-02  0.827123D-03 -0.387956D-01  0.648291D-04 -0.568791D-04
     25 -0.368235D-02 -0.248687D-02 -0.109712D-03 -0.898407D-01  0.118546D+00
     26 -0.444941D-02 -0.333233D-03 -0.681714D-04  0.167001D+00 -0.452880D+00
     27 -0.106983D-03 -0.355245D-04  0.320875D-02 -0.158329D-02  0.258651D-02
     28  0.121765D-02  0.473935D-02  0.585811D-04  0.806123D-03 -0.134272D-03
     29  0.509773D-01 -0.320151D-01  0.878857D-03 -0.119361D-02  0.227653D-03
     30 -0.104240D-04  0.121926D-03 -0.276777D-02  0.196057D-04 -0.294869D-05
               21            22            23            24            25 
     21  0.291074D-01
     22  0.915972D-04  0.550264D+00
     23  0.243840D-03 -0.138038D+00  0.541011D+00
     24 -0.262347D-02  0.875861D-02 -0.302131D-02  0.290925D-01
     25 -0.151549D-02  0.271378D-03 -0.121120D-02  0.108178D-04  0.125558D+00
     26  0.338477D-02 -0.151877D-03  0.762343D-03 -0.403126D-05 -0.165530D+00
     27 -0.808375D-02  0.914841D-05 -0.215872D-04 -0.275053D-03  0.216388D-02
     28  0.180031D-04 -0.461647D+00  0.154868D+00 -0.767135D-02 -0.801921D-04
     29 -0.204237D-04  0.106410D+00 -0.809297D-01  0.185768D-02  0.234467D-03
     30 -0.274907D-03 -0.759908D-02  0.265070D-02 -0.817453D-02 -0.108385D-04
               26            27            28            29            30 
     26  0.444156D+00
     27 -0.334726D-02  0.848681D-02
     28  0.291625D-04 -0.105183D-04  0.454455D+00
     29 -0.716893D-04  0.481768D-05 -0.154797D+00  0.115123D+00
     30  0.139275D-05  0.556618D-03  0.754635D-02 -0.270054D-02  0.857004D-02
 FormGI is forming the generalized inverse of G from B-inverse, IUseBI=4.
 Leave Link  716 at Sun Apr 26 04:52:01 2015, MaxMem=   524288000 cpu:         0.3
 (Enter /opt/g09/l103.exe)

 GradGradGradGradGradGradGradGradGradGradGradGradGradGradGradGradGradGrad
 Berny optimization.
 Red2BG is reusing G-inverse.
 Internal  Forces:  Max     0.000008479 RMS     0.000001814
 Search for a local minimum.
 Step number   1 out of a maximum of   54
 All quantities printed in internal units (Hartrees-Bohrs-Radians)
 RMS Force = .18136D-05 SwitMx=.10000D-02 MixMth= 2
 Mixed Optimization -- En-DIIS/RFO-DIIS
 Second derivative matrix not updated -- analytic derivatives used.
 ITU=  0
     Eigenvalues ---    0.00758   0.01139   0.01190   0.01426   0.01499
     Eigenvalues ---    0.02117   0.03588   0.08569   0.11302   0.14565
     Eigenvalues ---    0.14831   0.17084   0.18103   0.18140   0.18753
     Eigenvalues ---    0.25613   0.28972   0.41902   0.49741   0.51227
     Eigenvalues ---    0.52819   0.54106   0.84965   0.89141
 RFO step:  Lambda= 0.00000000D+00 EMin= 7.57763064D-03
 Linear search not attempted -- first point.
 Iteration  1 RMS(Cart)=  0.00001085 RMS(Int)=  0.00000000
 Iteration  2 RMS(Cart)=  0.00000000 RMS(Int)=  0.00000000
 ITry= 1 IFail=0 DXMaxC= 3.59D-05 DCOld= 1.00D+10 DXMaxT= 3.00D-01 DXLimC= 3.00D+00 Rises=F
 Variable       Old X    -DE/DX   Delta X   Delta X   Delta X     New X
                                 (Linear)    (Quad)   (Total)
    R1        2.27107  -0.00001   0.00000  -0.00001  -0.00001   2.27106
    R2        2.94375   0.00000   0.00000   0.00001   0.00001   2.94376
    R3        2.81905   0.00000   0.00000   0.00001   0.00001   2.81905
    R4        2.27106   0.00000   0.00000   0.00000   0.00000   2.27105
    R5        2.81909   0.00000   0.00000  -0.00001  -0.00001   2.81909
    R6        2.60507   0.00000   0.00000  -0.00001  -0.00001   2.60507
    R7        2.49495   0.00000   0.00000  -0.00001  -0.00001   2.49494
    R8        2.49493   0.00000   0.00000   0.00001   0.00001   2.49494
    R9        1.82855   0.00000   0.00000   0.00000   0.00000   1.82855
   R10        1.82854   0.00000   0.00000   0.00001   0.00001   1.82855
    A1        2.43428   0.00000   0.00000   0.00001   0.00001   2.43429
    A2        2.33821   0.00000   0.00000   0.00000   0.00000   2.33820
    A3        1.51070   0.00000   0.00000  -0.00001  -0.00001   1.51069
    A4        2.43429   0.00000   0.00000   0.00000   0.00000   2.43430
    A5        1.51068   0.00000   0.00000   0.00000   0.00000   1.51068
    A6        2.33821   0.00000   0.00000   0.00000   0.00000   2.33821
    A7        1.63091   0.00000   0.00000   0.00000   0.00000   1.63091
    A8        2.32022   0.00000   0.00000   0.00001   0.00001   2.32022
    A9        2.33206   0.00000   0.00000  -0.00001  -0.00001   2.33205
   A10        1.63089   0.00000   0.00000   0.00001   0.00001   1.63090
   A11        2.32027   0.00000   0.00000   0.00000   0.00000   2.32028
   A12        2.33202   0.00000   0.00000  -0.00001  -0.00001   2.33201
   A13        1.90189   0.00000   0.00000   0.00000   0.00000   1.90190
   A14        1.90192   0.00000   0.00000   0.00000   0.00000   1.90192
    D1        0.00003   0.00000   0.00000  -0.00002  -0.00002   0.00002
    D2       -3.14157   0.00000   0.00000  -0.00002  -0.00002  -3.14159
    D3       -3.14157   0.00000   0.00000   0.00000   0.00000  -3.14157
    D4        0.00001   0.00000   0.00000   0.00000   0.00000   0.00000
    D5        3.14157   0.00000   0.00000   0.00002   0.00002   3.14159
    D6       -0.00003   0.00000   0.00000   0.00003   0.00003   0.00000
    D7       -0.00001   0.00000   0.00000   0.00000   0.00000   0.00000
    D8        3.14157   0.00000   0.00000   0.00002   0.00002   3.14159
    D9       -0.00001   0.00000   0.00000   0.00000   0.00000   0.00000
   D10        3.14159   0.00000   0.00000   0.00001   0.00001  -3.14159
   D11        3.14157   0.00000   0.00000   0.00000   0.00000   3.14158
   D12       -0.00002   0.00000   0.00000   0.00001   0.00001  -0.00001
   D13        0.00001   0.00000   0.00000   0.00000   0.00000   0.00000
   D14       -3.14158   0.00000   0.00000  -0.00001  -0.00001   3.14159
   D15       -3.14157   0.00000   0.00000  -0.00002  -0.00002  -3.14159
   D16        0.00002   0.00000   0.00000  -0.00002  -0.00002   0.00000
   D17        0.00004   0.00000   0.00000  -0.00003  -0.00003   0.00001
   D18       -3.14158   0.00000   0.00000  -0.00001  -0.00001  -3.14159
   D19        0.00003   0.00000   0.00000  -0.00004  -0.00004   0.00000
   D20       -3.14156   0.00000   0.00000  -0.00003  -0.00003  -3.14159
         Item               Value     Threshold  Converged?
 Maximum Force            0.000008     0.000015     YES
 RMS     Force            0.000002     0.000010     YES
 Maximum Displacement     0.000036     0.000060     YES
 RMS     Displacement     0.000011     0.000040     YES
 Predicted change in Energy=-1.756533D-10
 Optimization completed.
    -- Stationary point found.
                           ----------------------------
                           !   Optimized Parameters   !
                           ! (Angstroms and Degrees)  !
 --------------------------                            --------------------------
 ! Name  Definition              Value          Derivative Info.                !
 --------------------------------------------------------------------------------
 ! R1    R(1,2)                  1.2018         -DE/DX =    0.0                 !
 ! R2    R(1,3)                  1.5578         -DE/DX =    0.0                 !
 ! R3    R(1,4)                  1.4918         -DE/DX =    0.0                 !
 ! R4    R(3,5)                  1.2018         -DE/DX =    0.0                 !
 ! R5    R(3,6)                  1.4918         -DE/DX =    0.0                 !
 ! R6    R(4,6)                  1.3785         -DE/DX =    0.0                 !
 ! R7    R(4,7)                  1.3203         -DE/DX =    0.0                 !
 ! R8    R(6,8)                  1.3203         -DE/DX =    0.0                 !
 ! R9    R(7,9)                  0.9676         -DE/DX =    0.0                 !
 ! R10   R(8,10)                 0.9676         -DE/DX =    0.0                 !
 ! A1    A(2,1,3)              139.4739         -DE/DX =    0.0                 !
 ! A2    A(2,1,4)              133.9693         -DE/DX =    0.0                 !
 ! A3    A(3,1,4)               86.5568         -DE/DX =    0.0                 !
 ! A4    A(1,3,5)              139.4747         -DE/DX =    0.0                 !
 ! A5    A(1,3,6)               86.5557         -DE/DX =    0.0                 !
 ! A6    A(5,3,6)              133.9696         -DE/DX =    0.0                 !
 ! A7    A(1,4,6)               93.4442         -DE/DX =    0.0                 !
 ! A8    A(1,4,7)              132.9387         -DE/DX =    0.0                 !
 ! A9    A(6,4,7)              133.6171         -DE/DX =    0.0                 !
 ! A10   A(3,6,4)               93.4433         -DE/DX =    0.0                 !
 ! A11   A(3,6,8)              132.9418         -DE/DX =    0.0                 !
 ! A12   A(4,6,8)              133.6149         -DE/DX =    0.0                 !
 ! A13   A(4,7,9)              108.9705         -DE/DX =    0.0                 !
 ! A14   A(6,8,10)             108.972          -DE/DX =    0.0                 !
 ! D1    D(2,1,3,5)              0.0018         -DE/DX =    0.0                 !
 ! D2    D(2,1,3,6)           -179.9989         -DE/DX =    0.0                 !
 ! D3    D(4,1,3,5)           -179.9989         -DE/DX =    0.0                 !
 ! D4    D(4,1,3,6)              0.0004         -DE/DX =    0.0                 !
 ! D5    D(2,1,4,6)            179.9989         -DE/DX =    0.0                 !
 ! D6    D(2,1,4,7)             -0.002          -DE/DX =    0.0                 !
 ! D7    D(3,1,4,6)             -0.0004         -DE/DX =    0.0                 !
 ! D8    D(3,1,4,7)            179.9987         -DE/DX =    0.0                 !
 ! D9    D(1,3,6,4)             -0.0004         -DE/DX =    0.0                 !
 ! D10   D(1,3,6,8)           -180.0004         -DE/DX =    0.0                 !
 ! D11   D(5,3,6,4)            179.9989         -DE/DX =    0.0                 !
 ! D12   D(5,3,6,8)             -0.0011         -DE/DX =    0.0                 !
 ! D13   D(1,4,6,3)              0.0004         -DE/DX =    0.0                 !
 ! D14   D(1,4,6,8)            180.0004         -DE/DX =    0.0                 !
 ! D15   D(7,4,6,3)           -179.9986         -DE/DX =    0.0                 !
 ! D16   D(7,4,6,8)              0.0014         -DE/DX =    0.0                 !
 ! D17   D(1,4,7,9)              0.0021         -DE/DX =    0.0                 !
 ! D18   D(6,4,7,9)           -179.9992         -DE/DX =    0.0                 !
 ! D19   D(3,6,8,10)             0.002          -DE/DX =    0.0                 !
 ! D20   D(4,6,8,10)          -179.9981         -DE/DX =    0.0                 !
 --------------------------------------------------------------------------------
 Lowest energy point so far.  Saving SCF results.
 GradGradGradGradGradGradGradGradGradGradGradGradGradGradGradGradGradGrad

 Largest change from initial coordinates is atom    0       0.000 Angstoms.
 Leave Link  103 at Sun Apr 26 04:52:01 2015, MaxMem=   524288000 cpu:         0.1
 (Enter /opt/g09/l202.exe)
                          Input orientation:                          
 ---------------------------------------------------------------------
 Center     Atomic      Atomic             Coordinates (Angstroms)
 Number     Number       Type             X           Y           Z
 ---------------------------------------------------------------------
      1          6           0        2.334910    1.215270    0.038050
      2          8           0        2.448210    0.018830    0.041650
      3          6           0        1.215700    2.298600    0.018060
      4          6           0        3.305990    2.347610    0.052370
      5          8           0        0.016360    2.372740   -0.001760
      6          6           0        2.315560    3.306320    0.034670
      7          8           0        4.625000    2.401050    0.074010
      8          8           0        2.325920    4.626540    0.032900
      9          1           0        4.976270    1.499460    0.081090
     10          1           0        1.413480    4.948270    0.017450
 ---------------------------------------------------------------------
                    Distance matrix (angstroms):
                    1          2          3          4          5
     1  C    0.000000
     2  O    1.201798   0.000000
     3  C    1.557766   2.591715   0.000000
     4  C    1.491776   2.481757   2.091146   0.000000
     5  O    2.591717   3.384770   1.201793   3.290171   0.000000
     6  C    2.091142   3.290173   1.491800   1.378546   2.481777
     7  O    2.579124   3.227140   3.411298   1.320269   4.609350
     8  O    3.411286   4.609341   2.579169   2.480814   3.227210
     9  H    2.656953   2.930001   3.845060   1.873504   5.036883
    10  H    3.845094   5.036927   2.657041   3.216558   2.930131
                    6          7          8          9         10
     6  C    0.000000
     7  O    2.480841   0.000000
     8  O    1.320262   3.200041   0.000000
     9  H    3.216563   0.967629   4.099428   0.000000
    10  H    1.873511   4.099438   0.967624   4.959013   0.000000
 Symmetry turned off by external request.
 Stoichiometry    C4H2O4
 Framework group  C1[X(C4H2O4)]
 Deg. of freedom    24
 Full point group                 C1      NOp   1
 Rotational constants (GHZ):      2.5739688      2.3852743      1.2380159
 Leave Link  202 at Sun Apr 26 04:52:01 2015, MaxMem=   524288000 cpu:         0.0
 (Enter /opt/g09/l716.exe)
 Dipole        = 9.73970032D-01 1.00659713D+00 1.45546621D-02
 Polarizability= 7.75132855D+01-6.04959827D+00 7.71305509D+01
                 7.74767156D-01-1.67035827D-01 3.09608011D+01
 Full mass-weighted force constant matrix:
 Low frequencies ---   -3.6342   -2.0900   -1.9041   -0.0007    0.0001    0.0008
 Low frequencies ---  109.8248  208.9672  214.7881
 Diagonal vibrational polarizability:
       22.6623795      22.5957142      31.9553969
 Harmonic frequencies (cm**-1), IR intensities (KM/Mole), Raman scattering
 activities (A**4/AMU), depolarization ratios for plane and unpolarized
 incident light, reduced masses (AMU), force constants (mDyne/A),
 and normal coordinates:
                      1                      2                      3
                      A                      A                      A
 Frequencies --    109.8248               208.9672               214.7881
 Red. masses --     10.8111                 6.8193                 9.8861
 Frc consts  --      0.0768                 0.1754                 0.2687
 IR Inten    --      0.0000                11.8289                 5.1585
  Atom  AN      X      Y      Z        X      Y      Z        X      Y      Z
     1   6     0.00   0.00   0.09     0.04   0.03   0.00     0.01   0.00  -0.32
     2   8    -0.01   0.00   0.40     0.26   0.05   0.00     0.00   0.00   0.26
     3   6     0.00   0.00  -0.09     0.03   0.04   0.00     0.01   0.00  -0.32
     4   6     0.00   0.00  -0.12     0.02   0.01   0.00     0.01   0.00  -0.37
     5   8     0.01   0.00  -0.40     0.04   0.26   0.00     0.00   0.00   0.26
     6   6     0.00   0.00   0.12     0.01   0.02   0.00     0.01   0.00  -0.37
     7   8     0.01   0.00  -0.38     0.03  -0.35   0.00     0.00   0.00   0.23
     8   8    -0.01   0.00   0.38    -0.35   0.02  -0.01     0.00   0.00   0.23
     9   1     0.01   0.00  -0.41    -0.28  -0.48   0.00    -0.01   0.00   0.37
    10   1    -0.01   0.00   0.41    -0.47  -0.30  -0.01    -0.01   0.00   0.37
                      4                      5                      6
                      A                      A                      A
 Frequencies --    249.6178               301.0746               469.0856
 Red. masses --      6.5740                11.6202                 1.1595
 Frc consts  --      0.2413                 0.6206                 0.1503
 IR Inten    --     21.7537                 0.5423                 0.0014
  Atom  AN      X      Y      Z        X      Y      Z        X      Y      Z
     1   6     0.01  -0.12   0.00     0.00  -0.19   0.00     0.00   0.00   0.00
     2   8    -0.25  -0.14   0.00     0.43  -0.16   0.01     0.00   0.00   0.01
     3   6     0.12  -0.01   0.00    -0.19  -0.01   0.00     0.00   0.00   0.00
     4   6     0.12  -0.07   0.00    -0.15  -0.11   0.00     0.00   0.00  -0.03
     5   8     0.13   0.26   0.00    -0.17   0.43   0.00     0.00   0.00  -0.01
     6   6     0.08  -0.11   0.00    -0.11  -0.16   0.00     0.00   0.00   0.03
     7   8     0.12   0.25   0.00    -0.18   0.23   0.00     0.00   0.00   0.07
     8   8    -0.25  -0.13   0.00     0.24  -0.18   0.00     0.00   0.00  -0.07
     9   1     0.41   0.37   0.01     0.10   0.34   0.00     0.01   0.00  -0.70
    10   1    -0.36  -0.42  -0.01     0.34   0.11   0.01    -0.01   0.00   0.70
                      7                      8                      9
                      A                      A                      A
 Frequencies --    499.1234               578.9729               591.3746
 Red. masses --      1.0792                 7.9185                11.2684
 Frc consts  --      0.1584                 1.5639                 2.3219
 IR Inten    --    267.5575                 0.0000                 0.5994
  Atom  AN      X      Y      Z        X      Y      Z        X      Y      Z
     1   6     0.00   0.00  -0.03     0.00   0.00   0.14    -0.01   0.00   0.46
     2   8     0.00   0.00   0.02     0.00   0.00  -0.05     0.00   0.00  -0.16
     3   6     0.00   0.00  -0.03     0.00   0.00  -0.14    -0.01   0.00   0.46
     4   6     0.00   0.00   0.01    -0.01   0.00   0.52     0.01   0.00  -0.43
     5   8     0.00   0.00   0.02     0.00   0.00   0.05     0.00   0.00  -0.16
     6   6     0.00   0.00   0.01     0.01   0.00  -0.52     0.01   0.00  -0.43
     7   8     0.00   0.00   0.04     0.00   0.00  -0.12     0.00   0.00   0.16
     8   8     0.00   0.00   0.04     0.00   0.00   0.12     0.00   0.00   0.16
     9   1     0.01   0.00  -0.71     0.01   0.00  -0.44     0.00   0.00  -0.23
    10   1     0.01   0.00  -0.70    -0.01   0.00   0.44     0.00   0.00  -0.23
                     10                     11                     12
                      A                      A                      A
 Frequencies --    610.6994               673.0545               728.2938
 Red. masses --     12.0585                12.2690                12.0084
 Frc consts  --      2.6497                 3.2746                 3.7527
 IR Inten    --      0.2135                22.7058                 0.0000
  Atom  AN      X      Y      Z        X      Y      Z        X      Y      Z
     1   6     0.02  -0.28   0.00    -0.04   0.29   0.00    -0.01   0.00   0.65
     2   8     0.01  -0.35   0.00    -0.01   0.36   0.00     0.00   0.00  -0.16
     3   6     0.28  -0.01   0.00     0.29  -0.03   0.00     0.01   0.00  -0.65
     4   6    -0.24  -0.03   0.00    -0.17  -0.05   0.00     0.00   0.00  -0.20
     5   8     0.35   0.00   0.01     0.36   0.00   0.01     0.00   0.00   0.16
     6   6     0.02   0.24   0.00    -0.04  -0.17   0.00     0.00   0.00   0.20
     7   8    -0.38   0.00  -0.01    -0.40   0.03  -0.01     0.00   0.00  -0.01
     8   8    -0.01   0.38   0.00     0.04  -0.40   0.00     0.00   0.00   0.01
     9   1    -0.31   0.04  -0.01    -0.30   0.07  -0.01     0.00   0.00   0.10
    10   1    -0.05   0.31   0.00     0.08  -0.29   0.00     0.00   0.00  -0.10
                     13                     14                     15
                      A                      A                      A
 Frequencies --    788.1508               985.4820               995.9768
 Red. masses --      6.1915                10.1682                 5.4140
 Frc consts  --      2.2660                 5.8182                 3.1642
 IR Inten    --      7.9202                45.8176                47.0874
  Atom  AN      X      Y      Z        X      Y      Z        X      Y      Z
     1   6    -0.34  -0.01  -0.01     0.58  -0.01   0.01     0.28   0.09   0.00
     2   8     0.14   0.04   0.00    -0.09  -0.14   0.00    -0.06   0.12   0.00
     3   6     0.00   0.34   0.00    -0.03   0.58   0.00    -0.08  -0.28   0.00
     4   6     0.00  -0.30   0.00     0.01   0.04   0.00     0.00  -0.23   0.00
     5   8    -0.03  -0.14   0.00    -0.14  -0.10   0.00    -0.12   0.05   0.00
     6   6     0.30   0.01   0.00     0.04   0.01   0.00     0.23   0.00   0.00
     7   8    -0.04   0.05   0.00    -0.17  -0.02   0.00    -0.16  -0.01   0.00
     8   8    -0.05   0.04   0.00    -0.02  -0.17   0.00     0.01   0.16   0.00
     9   1     0.46   0.25   0.01    -0.31  -0.07  -0.01     0.50   0.26   0.01
    10   1    -0.23  -0.47   0.00    -0.06  -0.32   0.00    -0.25  -0.51   0.00
                     16                     17                     18
                      A                      A                      A
 Frequencies --   1091.9423              1337.6697              1360.6299
 Red. masses --      2.3663                 1.9711                 1.4210
 Frc consts  --      1.6623                 2.0781                 1.5499
 IR Inten    --    101.2139               177.7149                60.0300
  Atom  AN      X      Y      Z        X      Y      Z        X      Y      Z
     1   6    -0.08  -0.03   0.00     0.03   0.00   0.00     0.02   0.00   0.00
     2   8     0.00  -0.04   0.00     0.00   0.03   0.00     0.00   0.02   0.00
     3   6    -0.03  -0.08   0.00     0.00   0.03   0.00     0.00  -0.02   0.00
     4   6     0.02   0.22   0.00    -0.08  -0.13   0.00     0.03  -0.11   0.00
     5   8    -0.04   0.00   0.00     0.03   0.00   0.00    -0.02   0.00   0.00
     6   6     0.22   0.03   0.00    -0.13  -0.08   0.00     0.11  -0.03   0.00
     7   8    -0.05   0.04   0.00     0.10   0.06   0.00     0.00   0.06   0.00
     8   8     0.04  -0.05   0.00     0.06   0.10   0.00    -0.06   0.00   0.00
     9   1    -0.63  -0.20  -0.01    -0.63  -0.25  -0.01    -0.66  -0.22  -0.01
    10   1    -0.18  -0.64   0.00    -0.23  -0.64   0.00     0.19   0.67   0.00
                     19                     20                     21
                      A                      A                      A
 Frequencies --   1428.5833              1714.0857              1838.2553
 Red. masses --     12.4711                 8.5764                13.0841
 Frc consts  --     14.9957                14.8463                26.0499
 IR Inten    --    593.6204               617.3791               435.7512
  Atom  AN      X      Y      Z        X      Y      Z        X      Y      Z
     1   6     0.10   0.05   0.00    -0.10   0.22   0.00     0.02  -0.59   0.00
     2   8     0.00  -0.03   0.00     0.03  -0.16   0.00    -0.03   0.37   0.00
     3   6    -0.04  -0.10   0.00     0.22  -0.09   0.00     0.59   0.00   0.01
     4   6    -0.61  -0.16  -0.01     0.42  -0.24   0.01    -0.07   0.04   0.00
     5   8     0.03   0.00   0.00    -0.16   0.02   0.00    -0.37   0.01  -0.01
     6   6     0.14   0.61   0.00    -0.25   0.42   0.00    -0.05   0.07   0.00
     7   8     0.29   0.03   0.00    -0.11   0.04   0.00     0.01  -0.01   0.00
     8   8    -0.02  -0.29   0.00     0.04  -0.11   0.00     0.01  -0.01   0.00
     9   1     0.09  -0.05   0.00    -0.40  -0.11  -0.01     0.03   0.00   0.00
    10   1     0.05  -0.09   0.00    -0.09  -0.40   0.00     0.00  -0.03   0.00
                     22                     23                     24
                      A                      A                      A
 Frequencies --   1900.4931              3782.4527              3783.8447
 Red. masses --     12.0351                 1.0659                 1.0661
 Frc consts  --     25.6113                 8.9845                 8.9933
 IR Inten    --    121.8001               246.7111                 0.4690
  Atom  AN      X      Y      Z        X      Y      Z        X      Y      Z
     1   6    -0.04   0.50   0.00     0.00   0.00   0.00     0.00   0.00   0.00
     2   8     0.03  -0.31   0.00     0.00   0.00   0.00     0.00   0.00   0.00
     3   6     0.50  -0.02   0.01     0.00   0.00   0.00     0.00   0.00   0.00
     4   6    -0.32   0.09  -0.01     0.00   0.00   0.00     0.00   0.00   0.00
     5   8    -0.31   0.02  -0.01     0.00   0.00   0.00     0.00   0.00   0.00
     6   6     0.10  -0.32   0.00     0.00   0.00   0.00     0.00   0.00   0.00
     7   8     0.09  -0.01   0.00     0.02  -0.04   0.00    -0.02   0.04   0.00
     8   8    -0.01   0.09   0.00     0.04  -0.02   0.00     0.04  -0.02   0.00
     9   1     0.19   0.02   0.00    -0.26   0.62  -0.01     0.28  -0.68   0.01
    10   1     0.02   0.19   0.00    -0.69   0.26  -0.01    -0.63   0.24  -0.01

 -------------------
 - Thermochemistry -
 -------------------
 Temperature   298.150 Kelvin.  Pressure   1.00000 Atm.
 Atom     1 has atomic number  6 and mass  12.00000
 Atom     2 has atomic number  8 and mass  15.99491
 Atom     3 has atomic number  6 and mass  12.00000
 Atom     4 has atomic number  6 and mass  12.00000
 Atom     5 has atomic number  8 and mass  15.99491
 Atom     6 has atomic number  6 and mass  12.00000
 Atom     7 has atomic number  8 and mass  15.99491
 Atom     8 has atomic number  8 and mass  15.99491
 Atom     9 has atomic number  1 and mass   1.00783
 Atom    10 has atomic number  1 and mass   1.00783
 Molecular mass:   113.99531 amu.
 Principal axes and moments of inertia in atomic units:
                           1         2         3
     Eigenvalues --   701.15116 756.617891457.76905
           X            0.71847   0.69536  -0.01645
           Y           -0.69544   0.71858   0.00146
           Z            0.01284   0.01039   0.99986
 This molecule is an asymmetric top.
 Rotational symmetry number  1.
 Warning -- assumption of classical behavior for rotation
           may cause significant error
 Rotational temperatures (Kelvin)      0.12353     0.11447     0.05942
 Rotational constants (GHZ):           2.57397     2.38527     1.23802
 Zero-point vibrational energy     156964.7 (Joules/Mol)
                                   37.51546 (Kcal/Mol)
 Warning -- explicit consideration of  10 degrees of freedom as
           vibrations may cause significant error
 Vibrational temperatures:    158.01   300.66   309.03   359.14   433.18
          (Kelvin)            674.91   718.13   833.01   850.86   878.66
                              968.37  1047.85  1133.97  1417.89  1432.99
                             1571.06  1924.61  1957.64  2055.41  2466.18
                             2644.84  2734.38  5442.10  5444.10
 
 Zero-point correction=                           0.059785 (Hartree/Particle)
 Thermal correction to Energy=                    0.066726
 Thermal correction to Enthalpy=                  0.067670
 Thermal correction to Gibbs Free Energy=         0.028395
 Sum of electronic and zero-point Energies=           -454.424489
 Sum of electronic and thermal Energies=              -454.417548
 Sum of electronic and thermal Enthalpies=            -454.416603
 Sum of electronic and thermal Free Energies=         -454.455879
 
                     E (Thermal)             CV                S
                      KCal/Mol        Cal/Mol-Kelvin    Cal/Mol-Kelvin
 Total                   41.871             24.502             82.662
 Electronic               0.000              0.000              0.000
 Translational            0.889              2.981             40.109
 Rotational               0.889              2.981             28.138
 Vibrational             40.094             18.540             14.415
 Vibration     1          0.606              1.941              3.272
 Vibration     2          0.642              1.827              2.053
 Vibration     3          0.645              1.818              2.003
 Vibration     4          0.662              1.763              1.733
 Vibration     5          0.693              1.672              1.411
 Vibration     6          0.826              1.319              0.740
 Vibration     7          0.855              1.252              0.660
 Vibration     8          0.936              1.077              0.487
 Vibration     9          0.949              1.050              0.465
 Vibration    10          0.970              1.009              0.432
                       Q            Log10(Q)             Ln(Q)
 Total Bot       0.869502D-13        -13.060729        -30.073441
 Total V=0       0.274320D+15         14.438258         33.245317
 Vib (Bot)       0.577365D-26        -26.238550        -60.416494
 Vib (Bot)    1  0.186496D+01          0.270671          0.623242
 Vib (Bot)    2  0.950859D+00         -0.021884         -0.050390
 Vib (Bot)    3  0.922916D+00         -0.034838         -0.080217
 Vib (Bot)    4  0.782024D+00         -0.106780         -0.245870
 Vib (Bot)    5  0.631277D+00         -0.199780         -0.460010
 Vib (Bot)    6  0.359858D+00         -0.443869         -1.022046
 Vib (Bot)    7  0.329540D+00         -0.482092         -1.110059
 Vib (Bot)    8  0.263465D+00         -0.579278         -1.333836
 Vib (Bot)    9  0.254733D+00         -0.593914         -1.367538
 Vib (Bot)   10  0.241812D+00         -0.616523         -1.419596
 Vib (V=0)       0.182153D+02          1.260437          2.902264
 Vib (V=0)    1  0.243083D+01          0.385754          0.888232
 Vib (V=0)    2  0.157431D+01          0.197089          0.453814
 Vib (V=0)    3  0.154965D+01          0.190235          0.438032
 Vib (V=0)    4  0.142820D+01          0.154790          0.356417
 Vib (V=0)    5  0.130530D+01          0.115711          0.266434
 Vib (V=0)    6  0.111603D+01          0.047677          0.109781
 Vib (V=0)    7  0.109883D+01          0.040930          0.094245
 Vib (V=0)    8  0.106517D+01          0.027418          0.063131
 Vib (V=0)    9  0.106115D+01          0.025777          0.059353
 Vib (V=0)   10  0.105540D+01          0.023418          0.053923
 Electronic      0.100000D+01          0.000000          0.000000
 Translational   0.478394D+08          7.679786         17.683360
 Rotational      0.314800D+06          5.498035         12.659693
 
                                                       freq-b971_2892-51-5.gau
                                                             IR Spectrum
 
     33                                                              1 1   1         1 11       1                                    
     77                                                              9 8   7         4 33       0 99      7 7 6655  44    3222   1   
     88                                                              0 3   1         2 63       9 98      8 2 7197  96    0510   1   
     42                                                              0 8   4         9 18       2 65      8 8 3119  99    1059   0   
 
     XX                                                              X X   X         X XX       X XX      X   XXX   X     XXXX       
      X                                                              X X   X         X XX       X X                 X                
      X                                                              X X   X         X  X       X                   X                
      X                                                              X X   X         X  X                           X                
      X                                                                X   X         X  X                           X                
      X                                                                X   X         X  X                           X                
      X                                                                X   X         X                              X                
      X                                                                X   X         X                              X                
[...]
     23 -0.429654D-01 -0.311832D-03 -0.147297D-01  0.116717D-01 -0.259772D-03
     24  0.666754D-03  0.336364D-02  0.521655D-04 -0.239423D-05 -0.414690D-03
     25  0.498319D-01 -0.581758D-03  0.780101D-03 -0.138621D-02  0.163101D-04
     26  0.299889D-02  0.509000D-04 -0.135092D-02  0.230723D-03 -0.226938D-04
     27  0.812717D-03 -0.277336D-02  0.161966D-04 -0.232901D-04 -0.834875D-04
     28 -0.433372D-02 -0.481396D-04 -0.209594D-02  0.505819D-02 -0.155704D-04
     29 -0.390645D-02 -0.285524D-04 -0.971366D-03  0.134970D-02 -0.205680D-04
     30 -0.608360D-04  0.320978D-02 -0.687814D-05  0.792889D-04 -0.160068D-02
               16            17            18            19            20 
     16  0.549219D+00
     17 -0.118769D+00  0.884763D+00
     18  0.743572D-02 -0.310045D-02  0.108350D+00
     19 -0.433248D-01 -0.249394D-01 -0.731890D-03  0.549901D+00
     20  0.345621D-01  0.140178D-01  0.553376D-03 -0.138038D+00  0.541433D+00
     21 -0.818507D-03 -0.426103D-03  0.334839D-02  0.876788D-02 -0.300549D-02
     22 -0.113548D+00  0.180148D-01 -0.125591D-02  0.267908D-02 -0.294355D-02
     23 -0.299581D-01 -0.401015D+00  0.420100D-04  0.153173D-01  0.308464D-02
     24 -0.118396D-02  0.827121D-03 -0.387955D-01  0.648265D-04 -0.568788D-04
     25 -0.368235D-02 -0.248687D-02 -0.109713D-03 -0.898407D-01  0.118546D+00
     26 -0.444941D-02 -0.333229D-03 -0.681712D-04  0.167001D+00 -0.452880D+00
     27 -0.106984D-03 -0.355227D-04  0.320874D-02 -0.158329D-02  0.258651D-02
     28  0.121764D-02  0.473937D-02  0.585801D-04  0.806122D-03 -0.134272D-03
     29  0.509773D-01 -0.320151D-01  0.878857D-03 -0.119361D-02  0.227652D-03
     30 -0.104260D-04  0.121926D-03 -0.276775D-02  0.196057D-04 -0.294865D-05
               21            22            23            24            25 
     21  0.291074D-01
     22  0.915975D-04  0.550264D+00
     23  0.243837D-03 -0.138038D+00  0.541011D+00
     24 -0.262346D-02  0.875861D-02 -0.302131D-02  0.290925D-01
     25 -0.151549D-02  0.271377D-03 -0.121119D-02  0.108178D-04  0.125558D+00
     26  0.338477D-02 -0.151877D-03  0.762342D-03 -0.403135D-05 -0.165530D+00
     27 -0.808376D-02  0.914842D-05 -0.215873D-04 -0.275052D-03  0.216388D-02
     28  0.180030D-04 -0.461647D+00  0.154868D+00 -0.767135D-02 -0.801921D-04
     29 -0.204236D-04  0.106410D+00 -0.809297D-01  0.185768D-02  0.234467D-03
     30 -0.274906D-03 -0.759908D-02  0.265070D-02 -0.817455D-02 -0.108385D-04
               26            27            28            29            30 
     26  0.444156D+00
     27 -0.334726D-02  0.848682D-02
     28  0.291624D-04 -0.105182D-04  0.454455D+00
     29 -0.716891D-04  0.481767D-05 -0.154797D+00  0.115123D+00
     30  0.139277D-05  0.556618D-03  0.754635D-02 -0.270054D-02  0.857006D-02
 FormGI is forming the generalized inverse of G from B-inverse, IUseBI=4.
 Leave Link  716 at Sun Apr 26 04:55:02 2015, MaxMem=   524288000 cpu:         0.3
 (Enter /opt/g09/l103.exe)

 GradGradGradGradGradGradGradGradGradGradGradGradGradGradGradGradGradGrad
 Berny optimization.
 Red2BG is reusing G-inverse.
 Internal  Forces:  Max     0.000008513 RMS     0.000001819
 Search for a local minimum.
 Step number   1 out of a maximum of    2
 All quantities printed in internal units (Hartrees-Bohrs-Radians)
 Second derivative matrix not updated -- analytic derivatives used.
 ITU=  0
     Eigenvalues ---    0.00758   0.01139   0.01190   0.01426   0.01499
     Eigenvalues ---    0.02117   0.03588   0.08569   0.11302   0.14565
     Eigenvalues ---    0.14831   0.17084   0.18103   0.18140   0.18753
     Eigenvalues ---    0.25613   0.28972   0.41902   0.49741   0.51227
     Eigenvalues ---    0.52819   0.54106   0.84965   0.89141
 Angle between quadratic step and forces=  70.66 degrees.
 Linear search not attempted -- first point.
 Iteration  1 RMS(Cart)=  0.00001086 RMS(Int)=  0.00000000
 Iteration  2 RMS(Cart)=  0.00000000 RMS(Int)=  0.00000000
 ITry= 1 IFail=0 DXMaxC= 3.58D-05 DCOld= 1.00D+10 DXMaxT= 3.00D-01 DXLimC= 3.00D+00 Rises=F
 Variable       Old X    -DE/DX   Delta X   Delta X   Delta X     New X
                                 (Linear)    (Quad)   (Total)
    R1        2.27107  -0.00001   0.00000  -0.00001  -0.00001   2.27106
    R2        2.94375   0.00000   0.00000   0.00001   0.00001   2.94376
    R3        2.81905   0.00000   0.00000   0.00001   0.00001   2.81905
    R4        2.27106   0.00000   0.00000   0.00000   0.00000   2.27105
    R5        2.81909   0.00000   0.00000  -0.00001  -0.00001   2.81909
    R6        2.60507   0.00000   0.00000  -0.00001  -0.00001   2.60507
    R7        2.49495   0.00000   0.00000  -0.00001  -0.00001   2.49494
    R8        2.49493   0.00000   0.00000   0.00001   0.00001   2.49494
    R9        1.82855   0.00000   0.00000   0.00000   0.00000   1.82855
   R10        1.82854   0.00000   0.00000   0.00001   0.00001   1.82855
    A1        2.43428   0.00000   0.00000   0.00001   0.00001   2.43429
    A2        2.33821   0.00000   0.00000   0.00000   0.00000   2.33820
    A3        1.51070   0.00000   0.00000  -0.00001  -0.00001   1.51069
    A4        2.43429   0.00000   0.00000   0.00000   0.00000   2.43430
    A5        1.51068   0.00000   0.00000   0.00000   0.00000   1.51068
    A6        2.33821   0.00000   0.00000   0.00000   0.00000   2.33821
    A7        1.63091   0.00000   0.00000   0.00000   0.00000   1.63091
    A8        2.32022   0.00000   0.00000   0.00001   0.00001   2.32022
    A9        2.33206   0.00000   0.00000  -0.00001  -0.00001   2.33205
   A10        1.63089   0.00000   0.00000   0.00001   0.00001   1.63090
   A11        2.32027   0.00000   0.00000   0.00000   0.00000   2.32028
   A12        2.33202   0.00000   0.00000  -0.00001  -0.00001   2.33201
   A13        1.90189   0.00000   0.00000   0.00000   0.00000   1.90190
   A14        1.90192   0.00000   0.00000   0.00000   0.00000   1.90192
    D1        0.00003   0.00000   0.00000  -0.00002  -0.00002   0.00002
    D2       -3.14157   0.00000   0.00000  -0.00002  -0.00002  -3.14159
    D3       -3.14157   0.00000   0.00000   0.00000   0.00000  -3.14158
    D4        0.00001   0.00000   0.00000   0.00000   0.00000   0.00000
    D5        3.14157   0.00000   0.00000   0.00002   0.00002   3.14159
    D6       -0.00003   0.00000   0.00000   0.00003   0.00003   0.00000
    D7       -0.00001   0.00000   0.00000   0.00000   0.00000   0.00000
    D8        3.14157   0.00000   0.00000   0.00002   0.00002   3.14159
    D9       -0.00001   0.00000   0.00000   0.00000   0.00000   0.00000
   D10        3.14159   0.00000   0.00000   0.00001   0.00001  -3.14159
   D11        3.14157   0.00000   0.00000   0.00000   0.00000   3.14158
   D12       -0.00002   0.00000   0.00000   0.00001   0.00001  -0.00001
   D13        0.00001   0.00000   0.00000   0.00000   0.00000   0.00000
   D14       -3.14158   0.00000   0.00000  -0.00001  -0.00001   3.14159
   D15       -3.14157   0.00000   0.00000  -0.00002  -0.00002  -3.14159
   D16        0.00002   0.00000   0.00000  -0.00002  -0.00002   0.00000
   D17        0.00004   0.00000   0.00000  -0.00003  -0.00003   0.00001
   D18       -3.14158   0.00000   0.00000  -0.00001  -0.00001  -3.14159
   D19        0.00003   0.00000   0.00000  -0.00004  -0.00004   0.00000
   D20       -3.14156   0.00000   0.00000  -0.00003  -0.00003  -3.14159
         Item               Value     Threshold  Converged?
 Maximum Force            0.000009     0.000015     YES
 RMS     Force            0.000002     0.000010     YES
 Maximum Displacement     0.000036     0.000060     YES
 RMS     Displacement     0.000011     0.000040     YES
 Predicted change in Energy=-1.764316D-10
 Optimization completed.
    -- Stationary point found.
                           ----------------------------
                           !   Optimized Parameters   !
                           ! (Angstroms and Degrees)  !
 --------------------------                            --------------------------
 ! Name  Definition              Value          Derivative Info.                !
 --------------------------------------------------------------------------------
 ! R1    R(1,2)                  1.2018         -DE/DX =    0.0                 !
 ! R2    R(1,3)                  1.5578         -DE/DX =    0.0                 !
 ! R3    R(1,4)                  1.4918         -DE/DX =    0.0                 !
 ! R4    R(3,5)                  1.2018         -DE/DX =    0.0                 !
 ! R5    R(3,6)                  1.4918         -DE/DX =    0.0                 !
 ! R6    R(4,6)                  1.3785         -DE/DX =    0.0                 !
 ! R7    R(4,7)                  1.3203         -DE/DX =    0.0                 !
 ! R8    R(6,8)                  1.3203         -DE/DX =    0.0                 !
 ! R9    R(7,9)                  0.9676         -DE/DX =    0.0                 !
 ! R10   R(8,10)                 0.9676         -DE/DX =    0.0                 !
 ! A1    A(2,1,3)              139.4739         -DE/DX =    0.0                 !
 ! A2    A(2,1,4)              133.9693         -DE/DX =    0.0                 !
 ! A3    A(3,1,4)               86.5568         -DE/DX =    0.0                 !
 ! A4    A(1,3,5)              139.4747         -DE/DX =    0.0                 !
 ! A5    A(1,3,6)               86.5557         -DE/DX =    0.0                 !
 ! A6    A(5,3,6)              133.9696         -DE/DX =    0.0                 !
 ! A7    A(1,4,6)               93.4442         -DE/DX =    0.0                 !
 ! A8    A(1,4,7)              132.9387         -DE/DX =    0.0                 !
 ! A9    A(6,4,7)              133.6171         -DE/DX =    0.0                 !
 ! A10   A(3,6,4)               93.4433         -DE/DX =    0.0                 !
 ! A11   A(3,6,8)              132.9418         -DE/DX =    0.0                 !
 ! A12   A(4,6,8)              133.6149         -DE/DX =    0.0                 !
 ! A13   A(4,7,9)              108.9705         -DE/DX =    0.0                 !
 ! A14   A(6,8,10)             108.972          -DE/DX =    0.0                 !
 ! D1    D(2,1,3,5)              0.0018         -DE/DX =    0.0                 !
 ! D2    D(2,1,3,6)           -179.9989         -DE/DX =    0.0                 !
 ! D3    D(4,1,3,5)           -179.9989         -DE/DX =    0.0                 !
 ! D4    D(4,1,3,6)              0.0004         -DE/DX =    0.0                 !
 ! D5    D(2,1,4,6)            179.9989         -DE/DX =    0.0                 !
 ! D6    D(2,1,4,7)             -0.002          -DE/DX =    0.0                 !
 ! D7    D(3,1,4,6)             -0.0004         -DE/DX =    0.0                 !
 ! D8    D(3,1,4,7)            179.9987         -DE/DX =    0.0                 !
 ! D9    D(1,3,6,4)             -0.0004         -DE/DX =    0.0                 !
 ! D10   D(1,3,6,8)           -180.0004         -DE/DX =    0.0                 !
 ! D11   D(5,3,6,4)            179.9989         -DE/DX =    0.0                 !
 ! D12   D(5,3,6,8)             -0.0011         -DE/DX =    0.0                 !
 ! D13   D(1,4,6,3)              0.0004         -DE/DX =    0.0                 !
 ! D14   D(1,4,6,8)            180.0004         -DE/DX =    0.0                 !
 ! D15   D(7,4,6,3)           -179.9986         -DE/DX =    0.0                 !
 ! D16   D(7,4,6,8)              0.0014         -DE/DX =    0.0                 !
 ! D17   D(1,4,7,9)              0.0021         -DE/DX =    0.0                 !
 ! D18   D(6,4,7,9)           -179.9992         -DE/DX =    0.0                 !
 ! D19   D(3,6,8,10)             0.002          -DE/DX =    0.0                 !
 ! D20   D(4,6,8,10)          -179.9981         -DE/DX =    0.0                 !
 --------------------------------------------------------------------------------
 GradGradGradGradGradGradGradGradGradGradGradGradGradGradGradGradGradGrad

 Leave Link  103 at Sun Apr 26 04:55:02 2015, MaxMem=   524288000 cpu:         0.1
 (Enter /opt/g09/l9999.exe)
 1\1\GINC-SISLEY\Freq\RB971\6-311+G(d,p)\C4H2O4\PB556\26-Apr-2015\0\\#P
  Geom=AllCheck Guess=TCheck SCRF=Check GenChk RB971/6-311+G(d,p) Freq\
 \freq-b971_2892-51-5.gau\\0,1\C,2.33491,1.21527,0.03805\O,2.44821,0.01
 883,0.04165\C,1.2157,2.2986,0.01806\C,3.30599,2.34761,0.05237\O,0.0163
 6,2.37274,-0.00176\C,2.31556,3.30632,0.03467\O,4.625,2.40105,0.07401\O
 ,2.32592,4.62654,0.0329\H,4.97627,1.49946,0.08109\H,1.41348,4.94827,0.
 01745\\Version=ES64L-G09RevD.01\HF=-454.4842738\RMSD=1.232e-09\RMSF=3.
 189e-06\ZeroPoint=0.0597847\Thermal=0.0667262\Dipole=0.9739694,1.00659
 64,0.0145545\DipoleDeriv=0.0218888,0.1860436,-0.0027966,0.0272315,2.11
 36329,-0.0023784,-0.0025604,0.0002408,0.1748601,-0.3628578,0.1435619,-
 0.0008928,0.0639601,-1.6134022,0.0029357,-0.0007773,0.0042415,-0.32137
 29,2.1038591,0.0953772,0.0315909,0.2542475,0.0309963,0.0043959,0.03135
 28,0.0017787,0.1754216,1.8337994,-0.1797771,0.0288293,-0.2661157,-0.75
 21719,-0.0031292,0.0289463,-0.0017211,0.0995655,-1.6185088,0.0228846,-
 0.0213752,0.1024788,-0.3574154,0.0017368,-0.0214827,0.000429,-0.321701
 7,-0.7344628,-0.350067,-0.0131921,-0.2638104,1.8171235,-0.0068757,-0.0
 133223,-0.0082713,0.0988821,-1.7151492,0.1340653,-0.0233535,0.0663338,
 -0.1450362,0.0008554,-0.0232577,0.0019733,-0.3090919,-0.153286,0.11733
 73,0.0023781,0.1850863,-1.7073678,0.0050999,0.0022766,0.0039843,-0.308
 6746,0.3968887,-0.0843291,0.0007938,-0.0795737,0.2222687,-0.0011154,0.
 0007948,-0.0011984,0.3560743,0.2278286,-0.0850967,-0.0019818,-0.089838
 2,0.3913721,-0.0015251,-0.0019702,-0.0014568,0.3560373\Polar=77.513286
 7,-6.0495993,77.1305508,0.7747672,-0.1670358,30.9608006\PG=C01 [X(C4H2
 O4)]\NImag=0\\0.36716005,-0.05112227,1.04142705,0.00371733,-0.00213938
 ,0.14597290,-0.10421608,0.06278601,-0.00088717,0.06360855,0.06740851,-
 0.75774406,0.00212666,-0.06340911,0.85399192,-0.00089429,0.00205079,-0
 .05581136,0.00071480,-0.00224488,0.02574689,-0.08778694,0.00123824,-0.
 00032271,0.01913885,-0.00354891,0.00006806,1.04370523,0.05892372,-0.08
 582695,0.00099452,0.01158973,-0.02721859,0.00025228,-0.02903395,0.3646
 0431,-0.00040700,0.00004535,-0.06843320,0.00004629,0.00000398,0.015322
 47,0.01479323,-0.00079490,0.14614495,-0.11871394,-0.05522837,-0.001130
 36,0.01110407,0.00542428,-0.00005818,-0.14601332,-0.02140666,-0.002094
 87,0.89190269,-0.05360472,-0.10823478,-0.00079305,-0.02276408,-0.06685
 905,-0.00025631,0.01877469,0.01892329,0.00025636,-0.10764106,0.5422374
 8,-0.00113282,-0.00081956,-0.04524767,-0.00001744,0.00020750,0.0141570
 2,-0.00215439,-0.00040356,-0.01666367,0.01305994,-0.00241013,0.1084460
 4,-0.02742313,-0.00507390,-0.00069551,-0.00301645,0.01884475,-0.000036
 26,-0.76109811,0.04592786,-0.01165063,0.01385914,-0.01020267,0.0000515
 5,0.85705547,0.01006770,0.01934864,0.00015867,-0.00071485,-0.00242405,
 -0.00001171,0.04130166,-0.10065875,0.00074441,0.00697814,-0.00650023,0
 .00014150,-0.03745467,0.06031003,-0.00071729,-0.00008923,0.01531008,-0
 .00000780,0.00030982,-0.00248327,-0.01164438,0.00082095,-0.05597919,0.
 00002640,-0.00014156,0.01161932,0.01371058,-0.00066620,0.02595218,0.01
 883170,0.02410244,0.00054859,-0.00637800,-0.01086366,-0.00027996,-0.10
 450481,-0.05314764,-0.00089760,-0.23164850,0.13283708,-0.00340293,-0.0
 6618206,-0.02529148,-0.00128394,0.54921895,-0.01605783,-0.14587175,-0.
 00007295,0.00631919,0.01373461,0.00010080,-0.05478588,-0.12229698,-0.0
 0078955,0.18507246,-0.22142989,0.00332174,0.00289282,0.01044644,0.0000
 5299,-0.11876864,0.88476272,0.00060672,0.00058508,-0.01661971,-0.00030
 523,-0.00018214,0.01161504,-0.00089409,-0.00076350,-0.04524233,-0.0034
 7916,0.00246516,-0.03723229,-0.00132502,-0.00041023,0.01413577,0.00743
 572,-0.00310045,0.10834965,-0.03336424,0.03087981,-0.00066303,0.012109
 38,-0.01437945,0.00022692,0.01458369,0.00416168,-0.00009803,-0.4002338
 4,-0.03931963,-0.00588959,-0.01331603,0.00051046,-0.00011341,-0.043324
 79,-0.02493941,-0.00073189,0.54990136,-0.01572272,0.01503586,-0.000275
 00,0.00128003,0.00099991,0.00001902,-0.00831757,-0.01388086,-0.0000868
 6,0.00865029,-0.11426388,0.00025200,0.00211780,0.00622575,0.00001626,0
 .03456211,0.01401782,0.00055338,-0.13803782,0.54143327,-0.00059455,0.0
 0049354,0.00415743,0.00020439,-0.00023886,-0.00041209,-0.00007856,0.00
 011789,0.02011581,-0.00595857,-0.00053911,-0.03887880,-0.00011620,-0.0
 0001005,-0.00645602,-0.00081851,-0.00042610,0.00334839,0.00876788,-0.0
 0300549,0.02910740,-0.01370737,-0.00924012,-0.00054261,0.00611577,0.00
 275295,0.00020271,0.01449141,-0.01415790,0.00019086,0.01364351,0.03642
 221,0.00011558,0.00143700,0.00093105,0.00002910,-0.11354777,0.01801479
 ,-0.00125591,0.00267908,-0.00294355,0.00009160,0.55026384,0.00323576,0
 .01441807,0.00006196,0.00114653,-0.01321171,0.00002864,0.03244503,-0.0
 3282608,0.00058735,-0.02307624,-0.04296538,-0.00031183,-0.01472971,0.0
 1167174,-0.00025977,-0.02995813,-0.40101463,0.00004201,0.01531733,0.00
 308464,0.00024384,-0.13803767,0.54101075,-0.00056079,-0.00014383,0.020
 10790,0.00020502,0.00005531,-0.00645094,0.00012166,-0.00017842,0.00417
 015,0.00020300,0.00066675,0.00336364,0.00005217,-0.00000239,-0.0004146
 9,-0.00118396,0.00082712,-0.03879550,0.00006483,-0.00005688,-0.0026234
 6,0.00875861,-0.00302131,0.02909252,0.00010236,0.00027462,0.00000117,0
 .00121336,-0.00086349,0.00004756,-0.00053081,0.00259133,-0.00002194,-0
 .03379068,0.04983191,-0.00058176,0.00078010,-0.00138621,0.00001631,-0.
 00368235,-0.00248687,-0.00010971,-0.08984073,0.11854570,-0.00151549,0.
 00027138,-0.00121119,0.00001082,0.12555755,-0.00570820,0.00784954,-0.0
 0010539,0.00516775,-0.00195936,0.00008561,0.00139456,-0.00075322,0.000
 02486,0.00359854,0.00299889,0.00005090,-0.00135092,0.00023072,-0.00002
 269,-0.00444941,-0.00033323,-0.00006817,0.16700065,-0.45288016,0.00338
 477,-0.00015188,0.00076234,-0.00000403,-0.16553026,0.44415616,0.000010
 17,-0.00000726,0.00000447,0.00003842,-0.00001372,-0.00160006,-0.000020
 15,0.00004459,0.00055907,-0.00051687,0.00081272,-0.00277336,0.00001620
 ,-0.00002329,-0.00008349,-0.00010698,-0.00003552,0.00320874,-0.0015832
 9,0.00258651,-0.00808376,0.00000915,-0.00002159,-0.00027505,0.00216388
 ,-0.00334726,0.00848682,-0.00088241,0.00138355,-0.00002570,0.00032056,
 -0.00136588,0.00000864,0.00801480,-0.00544817,0.00013970,-0.00010913,-
 0.00433372,-0.00004814,-0.00209594,0.00505819,-0.00001557,0.00121764,0
 .00473937,0.00005858,0.00080612,-0.00013427,0.00001800,-0.46164685,0.1
 5486828,-0.00767135,-0.00008019,0.00002916,-0.00001052,0.45445541,0.00
 258005,-0.00040161,0.00004395,-0.00140120,0.00069038,-0.00002423,0.000
 53213,-0.00006619,0.00000900,-0.00237139,-0.00390645,-0.00002855,-0.00
 097137,0.00134970,-0.00002057,0.05097731,-0.03201512,0.00087886,-0.001
 19361,0.00022765,-0.00002042,0.10641012,-0.08092974,0.00185768,0.00023
 447,-0.00007169,0.00000482,-0.15479651,0.11512305,-0.00002748,0.000024
 51,0.00055918,0.00000871,-0.00002365,-0.00008368,0.00013134,-0.0000898
 4,0.00000595,-0.00005131,-0.00006084,0.00320978,-0.00000688,0.00007929
 ,-0.00160068,-0.00001043,0.00012193,-0.00276775,0.00001961,-0.00000295
 ,-0.00027491,-0.00759908,0.00265070,-0.00817455,-0.00001084,0.00000139
 ,0.00055662,0.00754635,-0.00270054,0.00857006\\-0.00000085,0.00001031,
 0.00000089,-0.00000077,-0.00000852,-0.00000044,0.00000321,-0.00000049,
 0.00000059,-0.00000268,-0.00000187,-0.00000132,-0.00000402,0.00000040,
 -0.00000015,0.00000054,0.00000545,0.00000013,0.00000389,-0.00000165,0.
 00000086,-0.00000328,-0.00000196,-0.00000078,-0.00000033,-0.00000064,-
 0.00000032,0.00000429,-0.00000103,0.00000054\\\@


 "ANNA, YOU MUSN'T SPEAK OF OXIDIZED MURIATIC ACID
 ANYMORE, FROM NOW ON YOU MUST SAY CHLORINE."
   -- JENS JACOB BERZELIUS, IN 1820, TO HIS COOK, WHO HAD
 COMPLAINED OF THE SMELL OF THE FLASK SHE WAS CLEANING.
 Job cpu time:       0 days  0 hours 23 minutes 46.0 seconds.
 File lengths (MBytes):  RWF=     42 Int=      0 D2E=      0 Chk=      4 Scr=      1
 Normal termination of Gaussian 09 at Sun Apr 26 04:55:02 2015.
