 Entering Gaussian System, Link 0=g09
 Input=0_0freq-corr_b971_3315-37-5.gau
 Output=0_0freq-corr_b971_3315-37-5.log
 Initial command:
 /opt/g09/l1.exe "/scratch/pb556/g09_run/add_hco//Gau-17550.inp" -scrdir="/scratch/pb556/g09_run/add_hco//"
 Entering Link 1 = /opt/g09/l1.exe PID=     17559.
  
 Copyright (c) 1988,1990,1992,1993,1995,1998,2003,2009,2013,
            Gaussian, Inc.  All Rights Reserved.
  
 This is part of the Gaussian(R) 09 program.  It is based on
 the Gaussian(R) 03 system (copyright 2003, Gaussian, Inc.),
 the Gaussian(R) 98 system (copyright 1998, Gaussian, Inc.),
 the Gaussian(R) 94 system (copyright 1995, Gaussian, Inc.),
 the Gaussian 92(TM) system (copyright 1992, Gaussian, Inc.),
 the Gaussian 90(TM) system (copyright 1990, Gaussian, Inc.),
 the Gaussian 88(TM) system (copyright 1988, Gaussian, Inc.),
 the Gaussian 86(TM) system (copyright 1986, Carnegie Mellon
 University), and the Gaussian 82(TM) system (copyright 1983,
 Carnegie Mellon University). Gaussian is a federally registered
 trademark of Gaussian, Inc.
  
 This software contains proprietary and confidential information,
 including trade secrets, belonging to Gaussian, Inc.
  
 This software is provided under written license and may be
 used, copied, transmitted, or stored only in accord with that
 written license.
  
 The following legend is applicable only to US Government
 contracts under FAR:
  
                    RESTRICTED RIGHTS LEGEND
  
 Use, reproduction and disclosure by the US Government is
 subject to restrictions as set forth in subparagraphs (a)
 and (c) of the Commercial Computer Software - Restricted
 Rights clause in FAR 52.227-19.
  
 Gaussian, Inc.
 340 Quinnipiac St., Bldg. 40, Wallingford CT 06492
  
  
 ---------------------------------------------------------------
 Warning -- This program may not be used in any manner that
 competes with the business of Gaussian, Inc. or will provide
 assistance to any competitor of Gaussian, Inc.  The licensee
 of this program is prohibited from giving any competitor of
 Gaussian, Inc. access to this program.  By using this program,
 the user acknowledges that Gaussian, Inc. is engaged in the
 business of creating and licensing software in the field of
 computational chemistry and represents and warrants to the
 licensee that it is not a competitor of Gaussian, Inc. and that
 it will not use this program in any manner prohibited above.
 ---------------------------------------------------------------
  

 Cite this work as:
 Gaussian 09, Revision D.01,
 M. J. Frisch, G. W. Trucks, H. B. Schlegel, G. E. Scuseria, 
 M. A. Robb, J. R. Cheeseman, G. Scalmani, V. Barone, B. Mennucci, 
 G. A. Petersson, H. Nakatsuji, M. Caricato, X. Li, H. P. Hratchian, 
 A. F. Izmaylov, J. Bloino, G. Zheng, J. L. Sonnenberg, M. Hada, 
 M. Ehara, K. Toyota, R. Fukuda, J. Hasegawa, M. Ishida, T. Nakajima, 
 Y. Honda, O. Kitao, H. Nakai, T. Vreven, J. A. Montgomery, Jr., 
 J. E. Peralta, F. Ogliaro, M. Bearpark, J. J. Heyd, E. Brothers, 
 K. N. Kudin, V. N. Staroverov, T. Keith, R. Kobayashi, J. Normand, 
 K. Raghavachari, A. Rendell, J. C. Burant, S. S. Iyengar, J. Tomasi, 
 M. Cossi, N. Rega, J. M. Millam, M. Klene, J. E. Knox, J. B. Cross, 
 V. Bakken, C. Adamo, J. Jaramillo, R. Gomperts, R. E. Stratmann, 
 O. Yazyev, A. J. Austin, R. Cammi, C. Pomelli, J. W. Ochterski, 
 R. L. Martin, K. Morokuma, V. G. Zakrzewski, G. A. Voth, 
 P. Salvador, J. J. Dannenberg, S. Dapprich, A. D. Daniels, 
 O. Farkas, J. B. Foresman, J. V. Ortiz, J. Cioslowski, 
 and D. J. Fox, Gaussian, Inc., Wallingford CT, 2013.
 
 ******************************************
 Gaussian 09:  ES64L-G09RevD.01 24-Apr-2013
                27-Apr-2015 
 ******************************************
 %NProcShared=8
 Will use up to    8 processors via shared memory.
 %Mem=500MW
 ----------------------------------------------------------------------
 #p uB971/6-311+G(d,p) Opt=(Tight, CalcAll) Freq GFInput Population=Non
 e Integral(Grid=UltraFine) Guess=MIX NoSymmetry
 ----------------------------------------------------------------------
 1/7=10,10=4,14=-1,18=20,19=15,26=4,38=1/1,3;
 2/9=110,12=2,15=1,17=6,18=5,40=1/2;
 3/5=4,6=6,7=111,11=2,16=1,24=10,25=1,30=1,71=2,74=-20,75=-5,116=2,140=1/1,2,3;
 4/13=-1/1;
 5/5=2,38=5/2;
 8/6=4,10=90,11=11/1;
 11/6=1,8=1,9=11,15=111,16=1,31=1/1,2,10;
 10/6=1,31=1/2;
 7/10=1,25=1,30=1/1,2,3,16;
 1/7=10,10=4,14=-1,18=20,19=15,26=4/3(3);
 2/9=110,15=1/2;
 7/8=1,9=1,25=1,30=1,44=-1/16;
 99//99;
 2/9=110,15=1/2;
 3/5=4,6=6,7=111,11=2,16=1,25=1,30=1,71=2,74=-20,75=-5,116=2,140=1/1,2,3;
 4/5=5,16=3,69=1/1;
 5/5=2,38=5/2;
 8/6=4,10=90,11=11/1;
 11/6=1,8=1,9=11,15=111,16=1,31=1/1,2,10;
 10/6=1,31=1/2;
 7/10=1,25=1,30=1/1,2,3,16;
 1/7=10,10=4,14=-1,18=20,19=15,26=4/3(-8);
 2/9=110,15=1/2;
 7/8=1,9=1,25=1,30=1,44=-1/16;
 99//99;
 Leave Link    1 at Mon Apr 27 15:55:47 2015, MaxMem=   524288000 cpu:         0.6
 (Enter /opt/g09/l101.exe)
 ----------------------------------------------------------------------
 W:\Data\additional_hydrocarbons\nist\enthalpy_estimation\success\fine\
 corr_b971_3315-37-5.g09
 ----------------------------------------------------------------------
 Symbolic Z-matrix:
 Charge =  0 Multiplicity = 4
 H                     0.99404   0.        0. 
 C                    -0.10704   0.        0. 
 
 NAtoms=      2 NQM=        2 NQMF=       0 NMMI=      0 NMMIF=      0
                NMic=       0 NMicF=      0.
                    Isotopes and Nuclear Properties:
 (Nuclear quadrupole moments (NQMom) in fm**2, nuclear magnetic moments (NMagM)
  in nuclear magnetons)

  Atom         1           2
 IAtWgt=           1          12
 AtmWgt=   1.0078250  12.0000000
 NucSpn=           1           0
 AtZEff=   0.0000000   0.0000000
 NQMom=    0.0000000   0.0000000
 NMagM=    2.7928460   0.0000000
 AtZNuc=   1.0000000   6.0000000
 Leave Link  101 at Mon Apr 27 15:55:47 2015, MaxMem=   524288000 cpu:         1.8
 (Enter /opt/g09/l103.exe)

 GradGradGradGradGradGradGradGradGradGradGradGradGradGradGradGradGradGrad
 Berny optimization.
 Initialization pass.
                           ----------------------------
                           !    Initial Parameters    !
                           ! (Angstroms and Degrees)  !
 --------------------------                            --------------------------
 ! Name  Definition              Value          Derivative Info.                !
 --------------------------------------------------------------------------------
 ! R1    R(1,2)                  1.1011         calculate D2E/DX2 analytically  !
 --------------------------------------------------------------------------------
 Trust Radius=3.00D-01 FncErr=1.00D-07 GrdErr=1.00D-06
 Number of steps in this run=     20 maximum allowed number of steps=    100.
 GradGradGradGradGradGradGradGradGradGradGradGradGradGradGradGradGradGrad

 Leave Link  103 at Mon Apr 27 15:55:47 2015, MaxMem=   524288000 cpu:         0.1
 (Enter /opt/g09/l202.exe)
                          Input orientation:                          
 ---------------------------------------------------------------------
 Center     Atomic      Atomic             Coordinates (Angstroms)
 Number     Number       Type             X           Y           Z
 ---------------------------------------------------------------------
      1          1           0        0.994040    0.000000    0.000000
      2          6           0       -0.107040    0.000000    0.000000
 ---------------------------------------------------------------------
 Symmetry turned off by external request.
 Stoichiometry    CH(4)
 Framework group  C*V[C*(HC)]
 Deg. of freedom     1
 Full point group                 C*V     NOp   4
 Rotational constants (GHZ):      0.0000000    448.3505896    448.3505896
 Leave Link  202 at Mon Apr 27 15:55:47 2015, MaxMem=   524288000 cpu:         0.0
 (Enter /opt/g09/l301.exe)
 Standard basis: 6-311+G(d,p) (5D, 7F)
 Ernie: Thresh=  0.10000D-02 Tol=  0.10000D-05 Strict=F.
 AO basis set in the form of general basis input (Overlap normalization):
      1 0
 S   3 1.00       0.000000000000
      0.3386500000D+02  0.2549381454D-01
      0.5094790000D+01  0.1903731086D+00
      0.1158790000D+01  0.8521614860D+00
 S   1 1.00       0.000000000000
      0.3258400000D+00  0.1000000000D+01
 S   1 1.00       0.000000000000
      0.1027410000D+00  0.1000000000D+01
 P   1 1.00       0.000000000000
      0.7500000000D+00  0.1000000000D+01
 ****
      2 0
 S   6 1.00       0.000000000000
      0.4563240000D+04  0.1966650249D-02
      0.6820240000D+03  0.1523060193D-01
      0.1549730000D+03  0.7612690966D-01
      0.4445530000D+02  0.2608010331D+00
      0.1302900000D+02  0.6164620782D+00
      0.1827730000D+01  0.2210060280D+00
 SP   3 1.00       0.000000000000
      0.2096420000D+02  0.1146600807D+00  0.4024869267D-01
      0.4803310000D+01  0.9199996477D+00  0.2375939567D+00
      0.1459330000D+01 -0.3030682134D-02  0.8158538515D+00
 SP   1 1.00       0.000000000000
      0.4834560000D+00  0.1000000000D+01  0.1000000000D+01
 SP   1 1.00       0.000000000000
      0.1455850000D+00  0.1000000000D+01  0.1000000000D+01
 SP   1 1.00       0.000000000000
      0.4380000000D-01  0.1000000000D+01  0.1000000000D+01
 D   1 1.00       0.000000000000
      0.6260000000D+00  0.1000000000D+01
 ****

    28 basis functions,    44 primitive gaussians,    29 cartesian basis functions
     5 alpha electrons        2 beta electrons
       nuclear repulsion energy         2.8835899767 Hartrees.
 IExCor= 1614 DFT=T Ex+Corr=B971 ExCW=0 ScaHFX=  0.210000
 ScaDFX=  1.000000  1.000000  1.000000  1.000000 ScalE2=  1.000000  1.000000
 IRadAn=      5 IRanWt=     -1 IRanGd=            0 ICorTp=0 IEmpDi=  4
 NAtoms=    2 NActive=    2 NUniq=    2 SFac= 1.00D+00 NAtFMM=   60 NAOKFM=F Big=F
 Integral buffers will be    131072 words long.
 Raffenetti 2 integral format.
 Two-electron integral symmetry is turned off.
 Leave Link  301 at Mon Apr 27 15:55:47 2015, MaxMem=   524288000 cpu:         0.4
 (Enter /opt/g09/l302.exe)
 NPDir=0 NMtPBC=     1 NCelOv=     1 NCel=       1 NClECP=     1 NCelD=      1
         NCelK=      1 NCelE2=     1 NClLst=     1 CellRange=     0.0.
 One-electron integrals computed using PRISM.
 NBasis=    28 RedAO= T EigKep=  2.04D-02  NBF=    28
 NBsUse=    28 1.00D-06 EigRej= -1.00D+00 NBFU=    28
 Precomputing XC quadrature grid using
 IXCGrd= 4 IRadAn=           5 IRanWt=          -1 IRanGd=           0 AccXCQ= 0.00D+00.
 Generated NRdTot=       0 NPtTot=           0 NUsed=           0 NTot=          32
 NSgBfM=    29    29    29    29    29 MxSgAt=     2 MxSgA2=     2.
 Leave Link  302 at Mon Apr 27 15:55:48 2015, MaxMem=   524288000 cpu:         1.2
 (Enter /opt/g09/l303.exe)
 DipDrv:  MaxL=1.
 Leave Link  303 at Mon Apr 27 15:55:48 2015, MaxMem=   524288000 cpu:         0.4
 (Enter /opt/g09/l401.exe)
 ExpMin= 4.38D-02 ExpMax= 4.56D+03 ExpMxC= 6.82D+02 IAcc=3 IRadAn=         5 AccDes= 0.00D+00
 Harris functional with IExCor= 1614 and IRadAn=       5 diagonalized for initial guess.
 HarFok:  IExCor= 1614 AccDes= 0.00D+00 IRadAn=         5 IDoV= 1 UseB2=F ITyADJ=14
 ICtDFT=  3500011 ScaDFX=  1.000000  1.000000  1.000000  1.000000
 FoFCou: FMM=F IPFlag=           0 FMFlag=      100000 FMFlg1=           0
         NFxFlg=           0 DoJE=T BraDBF=F KetDBF=T FulRan=T
         wScrn=  0.000000 ICntrl=     500 IOpCl=  0 I1Cent=   200000004 NGrid=           0
         NMat0=    1 NMatS0=      1 NMatT0=    0 NMatD0=    1 NMtDS0=    0 NMtDT0=    0
 Symmetry not used in FoFCou.
 Harris En= -37.2439236225192    
 JPrj=0 DoOrth=F DoCkMO=T.
 Mixing orbitals, IMix= 1 IMixAn=  0 NRI=1 NE=    5 Coef=  7.07106781D-01  7.07106781D-01
 Mixing orbitals, IMix= 1 IMixAn=  0 NRI=1 NE=    2 Coef= -7.07106781D-01  7.07106781D-01
 Initial guess <Sx>= 0.0000 <Sy>= 0.0000 <Sz>= 1.5000 <S**2>= 3.7500 S= 1.5000
 Leave Link  401 at Mon Apr 27 15:55:48 2015, MaxMem=   524288000 cpu:         1.3
 (Enter /opt/g09/l502.exe)
 UHF open shell SCF:
 Using DIIS extrapolation, IDIIS=  1040.
 Two-electron integral symmetry not used.
 Keep R1 and R2 ints in memory in canonical form, NReq=1049005.
 IVT=       21483 IEndB=       21483 NGot=   524288000 MDV=   524101276
 LenX=   524101276 LenY=   524099994
 Requested convergence on RMS density matrix=1.00D-08 within 128 cycles.
 Requested convergence on MAX density matrix=1.00D-06.
 Requested convergence on             energy=1.00D-06.
 No special actions if energy rises.
 FoFCou: FMM=F IPFlag=           0 FMFlag=           0 FMFlg1=           0
         NFxFlg=           0 DoJE=F BraDBF=F KetDBF=F FulRan=T
         wScrn=  0.000000 ICntrl=     600 IOpCl=  0 I1Cent=           0 NGrid=           0
         NMat0=    1 NMatS0=    406 NMatT0=    0 NMatD0=    1 NMtDS0=    0 NMtDT0=    0
 Symmetry not used in FoFCou.

 Cycle   1  Pass 1  IDiag  1:
 E= -38.0726570330033    
 DIIS: error= 9.75D-02 at cycle   1 NSaved=   1.
 NSaved= 1 IEnMin= 1 EnMin= -38.0726570330033     IErMin= 1 ErrMin= 9.75D-02
 ErrMax= 9.75D-02  0.00D+00 EMaxC= 1.00D-01 BMatC= 6.48D-01 BMatP= 6.48D-01
 IDIUse=3 WtCom= 2.47D-02 WtEn= 9.75D-01
 Coeff-Com:  0.100D+01
 Coeff-En:   0.100D+01
 Coeff:      0.100D+01
 Gap=     0.050 Goal=   None    Shift=    0.000
 Gap=     0.086 Goal=   None    Shift=    0.000
 GapD=    0.050 DampG=0.500 DampE=0.500 DampFc=0.2500 IDamp=-1.
 Damping current iteration by 2.50D-01
 RMSDP=4.95D-02 MaxDP=1.14D+00              OVMax= 6.94D-01

 Cycle   2  Pass 1  IDiag  1:
 E= -38.1754583832985     Delta-E=       -0.102801350295 Rises=F Damp=T
 DIIS: error= 6.50D-02 at cycle   2 NSaved=   2.
 NSaved= 2 IEnMin= 2 EnMin= -38.1754583832985     IErMin= 2 ErrMin= 6.50D-02
 ErrMax= 6.50D-02  0.00D+00 EMaxC= 1.00D-01 BMatC= 2.73D-01 BMatP= 6.48D-01
 IDIUse=3 WtCom= 3.50D-01 WtEn= 6.50D-01
 Coeff-Com: -0.143D+01 0.243D+01
 Coeff-En:   0.000D+00 0.100D+01
 Coeff:     -0.502D+00 0.150D+01
 Gap=     0.321 Goal=   None    Shift=    0.000
 Gap=     0.301 Goal=   None    Shift=    0.000
 RMSDP=3.70D-02 MaxDP=8.57D-01 DE=-1.03D-01 OVMax= 2.31D-01

 Cycle   3  Pass 1  IDiag  1:
 E= -38.4086080233289     Delta-E=       -0.233149640030 Rises=F Damp=F
 DIIS: error= 3.72D-02 at cycle   3 NSaved=   3.
 NSaved= 3 IEnMin= 3 EnMin= -38.4086080233289     IErMin= 3 ErrMin= 3.72D-02
 ErrMax= 3.72D-02  0.00D+00 EMaxC= 1.00D-01 BMatC= 9.97D-02 BMatP= 2.73D-01
 IDIUse=3 WtCom= 6.28D-01 WtEn= 3.72D-01
 Coeff-Com: -0.376D+00 0.851D+00 0.525D+00
 Coeff-En:   0.000D+00 0.000D+00 0.100D+01
 Coeff:     -0.236D+00 0.534D+00 0.702D+00
 Gap=     0.245 Goal=   None    Shift=    0.000
 Gap=     0.365 Goal=   None    Shift=    0.000
 RMSDP=6.54D-03 MaxDP=8.02D-02 DE=-2.33D-01 OVMax= 1.43D-01

 Cycle   4  Pass 1  IDiag  1:
 E= -38.4393124713128     Delta-E=       -0.030704447984 Rises=F Damp=F
 DIIS: error= 9.63D-03 at cycle   4 NSaved=   4.
 NSaved= 4 IEnMin= 4 EnMin= -38.4393124713128     IErMin= 4 ErrMin= 9.63D-03
 ErrMax= 9.63D-03  0.00D+00 EMaxC= 1.00D-01 BMatC= 1.27D-02 BMatP= 9.97D-02
 IDIUse=3 WtCom= 9.04D-01 WtEn= 9.63D-02
 Coeff-Com: -0.350D+00 0.499D+00 0.844D-01 0.767D+00
 Coeff-En:   0.000D+00 0.000D+00 0.000D+00 0.100D+01
 Coeff:     -0.317D+00 0.451D+00 0.763D-01 0.790D+00
 Gap=     0.286 Goal=   None    Shift=    0.000
 Gap=     0.360 Goal=   None    Shift=    0.000
 RMSDP=2.39D-03 MaxDP=2.91D-02 DE=-3.07D-02 OVMax= 5.60D-02

 Cycle   5  Pass 1  IDiag  1:
 E= -38.4407380124046     Delta-E=       -0.001425541092 Rises=F Damp=F
 DIIS: error= 1.10D-02 at cycle   5 NSaved=   5.
 NSaved= 5 IEnMin= 5 EnMin= -38.4407380124046     IErMin= 4 ErrMin= 9.63D-03
 ErrMax= 1.10D-02  0.00D+00 EMaxC= 1.00D-01 BMatC= 4.80D-03 BMatP= 1.27D-02
 IDIUse=3 WtCom= 8.90D-01 WtEn= 1.10D-01
 Coeff-Com: -0.255D+00 0.370D+00-0.246D+00-0.381D-01 0.117D+01
 Coeff-En:   0.000D+00 0.000D+00 0.000D+00 0.187D+00 0.813D+00
 Coeff:     -0.227D+00 0.329D+00-0.219D+00-0.134D-01 0.113D+01
 Gap=     0.286 Goal=   None    Shift=    0.000
 Gap=     0.370 Goal=   None    Shift=    0.000
 RMSDP=7.75D-04 MaxDP=1.53D-02 DE=-1.43D-03 OVMax= 2.41D-02

 Cycle   6  Pass 1  IDiag  1:
 E= -38.4421035865172     Delta-E=       -0.001365574113 Rises=F Damp=F
 DIIS: error= 7.39D-03 at cycle   6 NSaved=   6.
 NSaved= 6 IEnMin= 6 EnMin= -38.4421035865172     IErMin= 6 ErrMin= 7.39D-03
 ErrMax= 7.39D-03  0.00D+00 EMaxC= 1.00D-01 BMatC= 1.62D-03 BMatP= 4.80D-03
 IDIUse=3 WtCom= 9.26D-01 WtEn= 7.39D-02
 Coeff-Com: -0.580D-01 0.914D-01-0.169D+00-0.283D+00-0.735D-01 0.149D+01
 Coeff-En:   0.000D+00 0.000D+00 0.000D+00 0.000D+00 0.000D+00 0.100D+01
 Coeff:     -0.537D-01 0.846D-01-0.156D+00-0.262D+00-0.681D-01 0.146D+01
 Gap=     0.286 Goal=   None    Shift=    0.000
 Gap=     0.370 Goal=   None    Shift=    0.000
 RMSDP=7.55D-04 MaxDP=1.49D-02 DE=-1.37D-03 OVMax= 2.42D-02

 Cycle   7  Pass 1  IDiag  1:
 E= -38.4427409781591     Delta-E=       -0.000637391642 Rises=F Damp=F
 DIIS: error= 2.17D-03 at cycle   7 NSaved=   7.
 NSaved= 7 IEnMin= 7 EnMin= -38.4427409781591     IErMin= 7 ErrMin= 2.17D-03
 ErrMax= 2.17D-03  0.00D+00 EMaxC= 1.00D-01 BMatC= 1.10D-04 BMatP= 1.62D-03
 IDIUse=3 WtCom= 9.78D-01 WtEn= 2.17D-02
 Coeff-Com: -0.151D-01 0.211D-01 0.229D-01 0.517D-01 0.145D+00-0.735D+00
 Coeff-Com:  0.151D+01
 Coeff-En:   0.000D+00 0.000D+00 0.000D+00 0.000D+00 0.000D+00 0.000D+00
 Coeff-En:   0.100D+01
 Coeff:     -0.148D-01 0.206D-01 0.224D-01 0.506D-01 0.142D+00-0.719D+00
 Coeff:      0.150D+01
 Gap=     0.286 Goal=   None    Shift=    0.000
 Gap=     0.370 Goal=   None    Shift=    0.000
 RMSDP=2.42D-04 MaxDP=3.40D-03 DE=-6.37D-04 OVMax= 8.39D-03

 Cycle   8  Pass 1  IDiag  1:
 E= -38.4428045617590     Delta-E=       -0.000063583600 Rises=F Damp=F
 DIIS: error= 5.86D-04 at cycle   8 NSaved=   8.
 NSaved= 8 IEnMin= 8 EnMin= -38.4428045617590     IErMin= 8 ErrMin= 5.86D-04
 ErrMax= 5.86D-04  0.00D+00 EMaxC= 1.00D-01 BMatC= 7.07D-06 BMatP= 1.10D-04
 IDIUse=3 WtCom= 9.94D-01 WtEn= 5.86D-03
 Coeff-Com:  0.668D-03-0.101D-02 0.171D-02 0.307D-02-0.379D-01 0.399D-01
 Coeff-Com: -0.297D+00 0.129D+01
 Coeff-En:   0.000D+00 0.000D+00 0.000D+00 0.000D+00 0.000D+00 0.000D+00
 Coeff-En:   0.000D+00 0.100D+01
 Coeff:      0.664D-03-0.101D-02 0.170D-02 0.305D-02-0.376D-01 0.397D-01
 Coeff:     -0.296D+00 0.129D+01
 Gap=     0.287 Goal=   None    Shift=    0.000
 Gap=     0.371 Goal=   None    Shift=    0.000
 RMSDP=8.35D-05 MaxDP=1.53D-03 DE=-6.36D-05 OVMax= 3.31D-03

 Cycle   9  Pass 1  IDiag  1:
 E= -38.4428092492703     Delta-E=       -0.000004687511 Rises=F Damp=F
 DIIS: error= 2.49D-05 at cycle   9 NSaved=   9.
 NSaved= 9 IEnMin= 9 EnMin= -38.4428092492703     IErMin= 9 ErrMin= 2.49D-05
 ErrMax= 2.49D-05  0.00D+00 EMaxC= 1.00D-01 BMatC= 4.85D-08 BMatP= 7.07D-06
 IDIUse=1 WtCom= 1.00D+00 WtEn= 0.00D+00
 Coeff-Com:  0.158D-03-0.218D-03-0.625D-03-0.107D-02-0.101D-02 0.186D-01
 Coeff-Com: -0.389D-01 0.680D-02 0.102D+01
 Coeff:      0.158D-03-0.218D-03-0.625D-03-0.107D-02-0.101D-02 0.186D-01
 Coeff:     -0.389D-01 0.680D-02 0.102D+01
 Gap=     0.287 Goal=   None    Shift=    0.000
 Gap=     0.371 Goal=   None    Shift=    0.000
 RMSDP=5.24D-06 MaxDP=5.91D-05 DE=-4.69D-06 OVMax= 9.05D-05

 Cycle  10  Pass 1  IDiag  1:
 E= -38.4428092671496     Delta-E=       -0.000000017879 Rises=F Damp=F
 DIIS: error= 3.56D-06 at cycle  10 NSaved=  10.
 NSaved=10 IEnMin=10 EnMin= -38.4428092671496     IErMin=10 ErrMin= 3.56D-06
 ErrMax= 3.56D-06  0.00D+00 EMaxC= 1.00D-01 BMatC= 1.07D-09 BMatP= 4.85D-08
 IDIUse=1 WtCom= 1.00D+00 WtEn= 0.00D+00
 Coeff-Com:  0.748D-05-0.162D-04-0.548D-04-0.633D-04 0.550D-03 0.614D-03
 Coeff-Com:  0.228D-02-0.168D-01 0.240D-01 0.990D+00
 Coeff:      0.748D-05-0.162D-04-0.548D-04-0.633D-04 0.550D-03 0.614D-03
 Coeff:      0.228D-02-0.168D-01 0.240D-01 0.990D+00
 Gap=     0.287 Goal=   None    Shift=    0.000
 Gap=     0.371 Goal=   None    Shift=    0.000
 RMSDP=7.74D-07 MaxDP=8.87D-06 DE=-1.79D-08 OVMax= 2.30D-05

 Cycle  11  Pass 1  IDiag  1:
 E= -38.4428092676642     Delta-E=       -0.000000000515 Rises=F Damp=F
 DIIS: error= 7.06D-07 at cycle  11 NSaved=  11.
 NSaved=11 IEnMin=11 EnMin= -38.4428092676642     IErMin=11 ErrMin= 7.06D-07
 ErrMax= 7.06D-07  0.00D+00 EMaxC= 1.00D-01 BMatC= 4.18D-11 BMatP= 1.07D-09
 IDIUse=1 WtCom= 1.00D+00 WtEn= 0.00D+00
 Coeff-Com: -0.253D-06-0.144D-05 0.177D-04 0.258D-04-0.374D-05-0.503D-03
 Coeff-Com:  0.172D-02-0.221D-02-0.436D-01 0.799D-01 0.965D+00
 Coeff:     -0.253D-06-0.144D-05 0.177D-04 0.258D-04-0.374D-05-0.503D-03
 Coeff:      0.172D-02-0.221D-02-0.436D-01 0.799D-01 0.965D+00
 Gap=     0.287 Goal=   None    Shift=    0.000
 Gap=     0.371 Goal=   None    Shift=    0.000
 RMSDP=1.57D-07 MaxDP=1.36D-06 DE=-5.15D-10 OVMax= 4.09D-06

 Cycle  12  Pass 1  IDiag  1:
 E= -38.4428092676844     Delta-E=       -0.000000000020 Rises=F Damp=F
 DIIS: error= 1.10D-07 at cycle  12 NSaved=  12.
 NSaved=12 IEnMin=12 EnMin= -38.4428092676844     IErMin=12 ErrMin= 1.10D-07
 ErrMax= 1.10D-07  0.00D+00 EMaxC= 1.00D-01 BMatC= 1.22D-12 BMatP= 4.18D-11
 IDIUse=1 WtCom= 1.00D+00 WtEn= 0.00D+00
 Coeff-Com: -0.188D-06 0.415D-06-0.181D-06-0.136D-05-0.207D-04 0.877D-04
 Coeff-Com: -0.289D-03 0.331D-03 0.782D-02-0.494D-01-0.899D-01 0.113D+01
 Coeff:     -0.188D-06 0.415D-06-0.181D-06-0.136D-05-0.207D-04 0.877D-04
 Coeff:     -0.289D-03 0.331D-03 0.782D-02-0.494D-01-0.899D-01 0.113D+01
 Gap=     0.287 Goal=   None    Shift=    0.000
 Gap=     0.371 Goal=   None    Shift=    0.000
 RMSDP=4.04D-08 MaxDP=3.35D-07 DE=-2.02D-11 OVMax= 6.31D-07

 Cycle  13  Pass 1  IDiag  1:
 E= -38.4428092676850     Delta-E=       -0.000000000001 Rises=F Damp=F
 DIIS: error= 1.51D-08 at cycle  13 NSaved=  13.
 NSaved=13 IEnMin=13 EnMin= -38.4428092676850     IErMin=13 ErrMin= 1.51D-08
 ErrMax= 1.51D-08  0.00D+00 EMaxC= 1.00D-01 BMatC= 1.91D-14 BMatP= 1.22D-12
 IDIUse=1 WtCom= 1.00D+00 WtEn= 0.00D+00
 Coeff-Com:  0.622D-07-0.758D-07-0.213D-06-0.312D-06 0.713D-06-0.637D-05
 Coeff-Com:  0.166D-04 0.116D-04-0.722D-03 0.418D-02 0.137D-01-0.208D+00
 Coeff-Com:  0.119D+01
 Coeff:      0.622D-07-0.758D-07-0.213D-06-0.312D-06 0.713D-06-0.637D-05
 Coeff:      0.166D-04 0.116D-04-0.722D-03 0.418D-02 0.137D-01-0.208D+00
 Coeff:      0.119D+01
 Gap=     0.287 Goal=   None    Shift=    0.000
 Gap=     0.371 Goal=   None    Shift=    0.000
 RMSDP=5.85D-09 MaxDP=5.41D-08 DE=-6.61D-13 OVMax= 9.88D-08

 SCF Done:  E(UB971) =  -38.4428092677     A.U. after   13 cycles
            NFock= 13  Conv=0.58D-08     -V/T= 2.0024
 <Sx>= 0.0000 <Sy>= 0.0000 <Sz>= 1.5000 <S**2>= 3.7529 S= 1.5007
 <L.S>= 0.000000000000E+00
 KE= 3.835139953986D+01 PE=-9.512199901771D+01 EE= 1.544420023347D+01
 Annihilation of the first spin contaminant:
 S**2 before annihilation     3.7529,   after     3.7500
 Leave Link  502 at Mon Apr 27 15:55:49 2015, MaxMem=   524288000 cpu:         9.3
 (Enter /opt/g09/l801.exe)
 DoSCS=F DFT=T ScalE2(SS,OS)=  1.000000  1.000000
 Range of M.O.s used for correlation:     1    28
 NBasis=    28 NAE=     5 NBE=     2 NFC=     0 NFV=     0
 NROrb=     28 NOA=     5 NOB=     2 NVA=    23 NVB=    26
 Leave Link  801 at Mon Apr 27 15:55:49 2015, MaxMem=   524288000 cpu:         0.2
 (Enter /opt/g09/l1101.exe)
 Using compressed storage, NAtomX=     2.
 Will process      3 centers per pass.
 Leave Link 1101 at Mon Apr 27 15:55:50 2015, MaxMem=   524288000 cpu:         1.2
 (Enter /opt/g09/l1102.exe)
 Symmetrizing basis deriv contribution to polar:
 IMax=3 JMax=2 DiffMx= 0.00D+00
 Leave Link 1102 at Mon Apr 27 15:55:50 2015, MaxMem=   524288000 cpu:         0.3
 (Enter /opt/g09/l1110.exe)
 Forming Gx(P) for the SCF density, NAtomX=     2.
 Integral derivatives from FoFJK, PRISM(SPDF).
 Do as many integral derivatives as possible in FoFJK.
 G2DrvN: MDV=     524287880.
 G2DrvN: will do     3 centers at a time, making    1 passes.
 Calling FoFCou, ICntrl=  3107 FMM=F I1Cent=   0 AccDes= 0.00D+00.
 FoFJK:  IHMeth= 1 ICntrl=    3107 DoSepK=F KAlg= 0 I1Cent=   0 FoldK=F
 IRaf=         0 NMat=   1 IRICut=       1 DoRegI=T DoRafI=F ISym2E= 0.
 FoFCou: FMM=F IPFlag=           0 FMFlag=      100000 FMFlg1=           0
         NFxFlg=           0 DoJE=F BraDBF=F KetDBF=F FulRan=T
         wScrn=  0.000000 ICntrl=    3107 IOpCl=  1 I1Cent=           0 NGrid=           0
         NMat0=    1 NMatS0=      1 NMatT0=    0 NMatD0=    1 NMtDS0=    0 NMtDT0=    0
 Symmetry not used in FoFCou.
 End of G2Drv F.D. properties file   721 does not exist.
 End of G2Drv F.D. properties file   722 does not exist.
 End of G2Drv F.D. properties file   788 does not exist.
 Leave Link 1110 at Mon Apr 27 15:55:50 2015, MaxMem=   524288000 cpu:         4.5
 (Enter /opt/g09/l1002.exe)
 Minotr:  UHF open shell wavefunction.
          IDoAtm=11
          Direct CPHF calculation.
          Differentiating once with respect to electric field.
                with respect to dipole field.
          Differentiating once with respect to nuclear coordinates.
          Requested convergence is 1.0D-08 RMS, and 1.0D-07 maximum.
          Secondary convergence is 1.0D-12 RMS, and 1.0D-12 maximum.
          NewPWx=T KeepS1=F KeepF1=F KeepIn=T MapXYZ=F SortEE=F KeepMc=T.
          MDV=     524287920 using IRadAn=       1.
 Generate precomputed XC quadrature information.
 Keep R1 and R2 ints in memory in canonical form, NReq=1025228.
 FoFCou: FMM=F IPFlag=           0 FMFlag=           0 FMFlg1=           0
         NFxFlg=           0 DoJE=F BraDBF=F KetDBF=F FulRan=T
         wScrn=  0.000000 ICntrl=     600 IOpCl=  0 I1Cent=           0 NGrid=           0
         NMat0=    1 NMatS0=    406 NMatT0=    0 NMatD0=    1 NMtDS0=    0 NMtDT0=    0
 Symmetry not used in FoFCou.
          Solving linear equations simultaneously, MaxMat=       0.
          There are     9 degrees of freedom in the 1st order CPHF.  IDoFFX=6 NUNeed=     3.
      6 vectors produced by pass  0 Test12= 1.86D-15 1.11D-08 XBig12= 1.24D+01 2.44D+00.
 AX will form     6 AO Fock derivatives at one time.
      6 vectors produced by pass  1 Test12= 1.86D-15 1.11D-08 XBig12= 1.16D+00 4.31D-01.
      6 vectors produced by pass  2 Test12= 1.86D-15 1.11D-08 XBig12= 6.37D-03 3.95D-02.
      6 vectors produced by pass  3 Test12= 1.86D-15 1.11D-08 XBig12= 6.82D-05 3.49D-03.
      6 vectors produced by pass  4 Test12= 1.86D-15 1.11D-08 XBig12= 4.93D-07 4.34D-04.
      6 vectors produced by pass  5 Test12= 1.86D-15 1.11D-08 XBig12= 3.84D-09 3.02D-05.
      4 vectors produced by pass  6 Test12= 1.86D-15 1.11D-08 XBig12= 1.45D-11 1.45D-06.
      1 vectors produced by pass  7 Test12= 1.86D-15 1.11D-08 XBig12= 7.66D-14 1.03D-07.
      1 vectors produced by pass  8 Test12= 1.86D-15 1.11D-08 XBig12= 7.14D-16 1.11D-08.
 InvSVY:  IOpt=1 It=  1 EMax= 2.22D-16
 Solved reduced A of dimension    42 with     6 vectors.
 FullF1:  Do perturbations    1 to     3.
 Isotropic polarizability for W=    0.000000        8.90 Bohr**3.
 End of Minotr F.D. properties file   721 does not exist.
 End of Minotr F.D. properties file   722 does not exist.
 End of Minotr F.D. properties file   788 does not exist.
 Leave Link 1002 at Mon Apr 27 15:55:51 2015, MaxMem=   524288000 cpu:         3.8
 (Enter /opt/g09/l701.exe)
 Compute integral second derivatives.
 ... and contract with generalized density number  0.
 Leave Link  701 at Mon Apr 27 15:55:51 2015, MaxMem=   524288000 cpu:         2.1
 (Enter /opt/g09/l702.exe)
 L702 exits ... SP integral derivatives will be done elsewhere.
 Leave Link  702 at Mon Apr 27 15:55:51 2015, MaxMem=   524288000 cpu:         0.3
 (Enter /opt/g09/l703.exe)
 Compute integral second derivatives, UseDBF=F ICtDFT=           0.
 Integral derivatives from FoFJK, PRISM(SPDF).
 Calling FoFJK, ICntrl=    100127 FMM=F ISym2X=0 I1Cent= 0 IOpClX= 1 NMat=1 NMatS=1 NMatT=0.
 FoFJK:  IHMeth= 1 ICntrl=  100127 DoSepK=F KAlg= 0 I1Cent=   0 FoldK=F
 IRaf=         0 NMat=   1 IRICut=       1 DoRegI=T DoRafI=F ISym2E= 0.
 FoFCou: FMM=F IPFlag=           0 FMFlag=      100000 FMFlg1=         800
         NFxFlg=           0 DoJE=F BraDBF=F KetDBF=F FulRan=T
         wScrn=  0.000000 ICntrl=  100127 IOpCl=  1 I1Cent=           0 NGrid=           0
         NMat0=    1 NMatS0=      1 NMatT0=    0 NMatD0=    1 NMtDS0=    0 NMtDT0=    0
 Symmetry not used in FoFCou.
 Leave Link  703 at Mon Apr 27 15:55:52 2015, MaxMem=   524288000 cpu:         8.6
 (Enter /opt/g09/l716.exe)
 Dipole        = 3.30075174D-01 8.85587946D-10-3.07100191D-09
 Polarizability= 1.01406853D+01 1.20795944D-10 8.27476855D+00
                -4.17936835D-10 2.65571767D-08 8.27476846D+00
 -------------------------------------------------------------------
 Center     Atomic                   Forces (Hartrees/Bohr)
 Number     Number              X              Y              Z
 -------------------------------------------------------------------
      1        1          -0.000001054    0.000000000    0.000000002
      2        6           0.000001054    0.000000000   -0.000000002
 -------------------------------------------------------------------
 Cartesian Forces:  Max     0.000001054 RMS     0.000000608
 Force constants in Cartesian coordinates: 
                1             2             3             4             5 
      1  0.322065D+00
      2  0.000000D+00 -0.793481D-05
      3  0.000000D+00  0.000000D+00 -0.793480D-05
      4 -0.322065D+00  0.000000D+00  0.000000D+00  0.322065D+00
      5  0.000000D+00  0.793481D-05  0.000000D+00  0.000000D+00 -0.793481D-05
      6  0.000000D+00  0.000000D+00  0.793480D-05  0.000000D+00  0.000000D+00
                6 
      6 -0.793480D-05
 FormGI is forming the generalized inverse of G from B-inverse, IUseBI=4.
 Force constants in internal coordinates: 
                1 
      1  0.322065D+00
 Leave Link  716 at Mon Apr 27 15:55:52 2015, MaxMem=   524288000 cpu:         0.3
 (Enter /opt/g09/l103.exe)

 GradGradGradGradGradGradGradGradGradGradGradGradGradGradGradGradGradGrad
 Berny optimization.
 Red2BG is reusing G-inverse.
 Internal  Forces:  Max     0.000001054 RMS     0.000001054
 Search for a local minimum.
 Step number   1 out of a maximum of   20
 All quantities printed in internal units (Hartrees-Bohrs-Radians)
 RMS Force = .10536D-05 SwitMx=.10000D-02 MixMth= 2
 Mixed Optimization -- En-DIIS/RFO-DIIS
 Second derivative matrix not updated -- analytic derivatives used.
 The second derivative matrix:
                          R1
           R1           0.32206
 ITU=  0
     Eigenvalues ---    0.32206
 RFO step:  Lambda=-3.44640982D-12 EMin= 3.22064665D-01
 Linear search not attempted -- first point.
 Iteration  1 RMS(Cart)=  0.00000231 RMS(Int)=  0.00000000
 Iteration  2 RMS(Cart)=  0.00000000 RMS(Int)=  0.00000000
 ITry= 1 IFail=0 DXMaxC= 1.64D-06 DCOld= 1.00D+10 DXMaxT= 3.00D-01 DXLimC= 3.00D+00 Rises=F
 Variable       Old X    -DE/DX   Delta X   Delta X   Delta X     New X
                                 (Linear)    (Quad)   (Total)
    R1        2.08074   0.00000   0.00000   0.00000   0.00000   2.08074
         Item               Value     Threshold  Converged?
 Maximum Force            0.000001     0.000015     YES
 RMS     Force            0.000001     0.000010     YES
 Maximum Displacement     0.000002     0.000060     YES
 RMS     Displacement     0.000002     0.000040     YES
 Predicted change in Energy=-1.723212D-12
 Optimization completed.
    -- Stationary point found.
                           ----------------------------
                           !   Optimized Parameters   !
                           ! (Angstroms and Degrees)  !
 --------------------------                            --------------------------
 ! Name  Definition              Value          Derivative Info.                !
 --------------------------------------------------------------------------------
 ! R1    R(1,2)                  1.1011         -DE/DX =    0.0                 !
 --------------------------------------------------------------------------------
 Lowest energy point so far.  Saving SCF results.
 GradGradGradGradGradGradGradGradGradGradGradGradGradGradGradGradGradGrad

 Largest change from initial coordinates is atom    0       0.000 Angstoms.
 Leave Link  103 at Mon Apr 27 15:55:52 2015, MaxMem=   524288000 cpu:         0.0
 (Enter /opt/g09/l202.exe)
                          Input orientation:                          
 ---------------------------------------------------------------------
 Center     Atomic      Atomic             Coordinates (Angstroms)
 Number     Number       Type             X           Y           Z
 ---------------------------------------------------------------------
      1          1           0        0.994040    0.000000    0.000000
      2          6           0       -0.107040    0.000000    0.000000
 ---------------------------------------------------------------------
 Symmetry turned off by external request.
 Stoichiometry    CH(4)
 Framework group  C*V[C*(HC)]
 Deg. of freedom     1
 Full point group                 C*V     NOp   4
 Rotational constants (GHZ):      0.0000000    448.3505896    448.3505896
 Leave Link  202 at Mon Apr 27 15:55:52 2015, MaxMem=   524288000 cpu:         0.0
 (Enter /opt/g09/l716.exe)
 Dipole        = 3.30075174D-01 8.85587946D-10-3.07100191D-09
 Polarizability= 1.01406853D+01 1.20795944D-10 8.27476855D+00
                -4.17936835D-10 2.65571767D-08 8.27476846D+00
 Full mass-weighted force constant matrix:
 Low frequencies ---  -15.0173  -15.0173    0.0005    0.0012    0.0013 3025.4847
 Diagonal vibrational polarizability:
        0.1666917       0.0000000       0.0000000
 Harmonic frequencies (cm**-1), IR intensities (KM/Mole), Raman scattering
 activities (A**4/AMU), depolarization ratios for plane and unpolarized
 incident light, reduced masses (AMU), force constants (mDyne/A),
 and normal coordinates:
                      1
                      A
 Frequencies --   3025.4847
 Red. masses --      1.0848
 Frc consts  --      5.8505
 IR Inten    --     56.6984
  Atom  AN      X      Y      Z
     1   1     1.00   0.00   0.00
     2   6    -0.08   0.00   0.00

 -------------------
 - Thermochemistry -
 -------------------
 Temperature   298.150 Kelvin.  Pressure   1.00000 Atm.
 Atom     1 has atomic number  1 and mass   1.00783
 Atom     2 has atomic number  6 and mass  12.00000
 Molecular mass:    13.00783 amu.
 Principal axes and moments of inertia in atomic units:
                           1         2         3
     Eigenvalues --     0.00000   4.02529   4.02529
           X            1.00000   0.00000   0.00000
           Y            0.00000   1.00000   0.00000
           Z            0.00000   0.00000   1.00000
 This molecule is a prolate symmetric top.
 Rotational symmetry number  1.
 Rotational temperature (Kelvin)     21.51741
 Rotational constant (GHZ):         448.350590
 Zero-point vibrational energy      18096.4 (Joules/Mol)
                                    4.32515 (Kcal/Mol)
 Vibrational temperatures:   4352.99
          (Kelvin)
 
 Zero-point correction=                           0.006893 (Hartree/Particle)
 Thermal correction to Energy=                    0.009253
 Thermal correction to Enthalpy=                  0.010197
 Thermal correction to Gibbs Free Energy=        -0.010521
 Sum of electronic and zero-point Energies=            -38.435917
 Sum of electronic and thermal Energies=               -38.433556
 Sum of electronic and thermal Enthalpies=             -38.432612
 Sum of electronic and thermal Free Energies=          -38.453330
 
                     E (Thermal)             CV                S
                      KCal/Mol        Cal/Mol-Kelvin    Cal/Mol-Kelvin
 Total                    5.806              4.968             43.604
 Electronic               0.000              0.000              2.755
 Translational            0.889              2.981             33.638
 Rotational               0.592              1.987              7.211
 Vibrational              4.325              0.000              0.000
                       Q            Log10(Q)             Ln(Q)
 Total Bot       0.690424D+05          4.839116         11.142476
 Total V=0       0.102204D+09          8.009467         18.442480
 Vib (Bot)       0.675537D-03         -3.170351         -7.300003
 Vib (V=0)       0.100000D+01          0.000000          0.000000
 Electronic      0.400000D+01          0.602060          1.386294
 Translational   0.184401D+07          6.265762         14.427451
 Rotational      0.138562D+02          1.141645          2.628734
 -------------------------------------------------------------------
 Center     Atomic                   Forces (Hartrees/Bohr)
 Number     Number              X              Y              Z
 -------------------------------------------------------------------
      1        1          -0.000001054    0.000000000    0.000000002
      2        6           0.000001054    0.000000000   -0.000000002
 -------------------------------------------------------------------
 Cartesian Forces:  Max     0.000001054 RMS     0.000000608
 Force constants in Cartesian coordinates: 
                1             2             3             4             5 
      1  0.322065D+00
      2  0.000000D+00 -0.793481D-05
      3  0.000000D+00  0.000000D+00 -0.793480D-05
      4 -0.322065D+00  0.000000D+00  0.000000D+00  0.322065D+00
      5  0.000000D+00  0.793481D-05  0.000000D+00  0.000000D+00 -0.793481D-05
      6  0.000000D+00  0.000000D+00  0.793480D-05  0.000000D+00  0.000000D+00
                6 
      6 -0.793480D-05
 Red2BG is reusing G-inverse.
 Force constants in internal coordinates: 
                1 
      1  0.322065D+00
 Leave Link  716 at Mon Apr 27 15:55:53 2015, MaxMem=   524288000 cpu:         0.3
 (Enter /opt/g09/l9999.exe)
 1\1\GINC-RENOIR\Freq\UB971\6-311+G(d,p)\C1H1(4)\PB556\27-Apr-2015\0\\#
 p uB971/6-311+G(d,p) Opt=(Tight, CalcAll) Freq GFInput Population=None
  Integral(Grid=UltraFine) Guess=MIX NoSymmetry\\W:\Data\additional_hyd
 rocarbons\nist\enthalpy_estimation\success\fine\corr_b971_3315-37-5.g0
 9\\0,4\H,0.99404,0.,0.\C,-0.10704,0.,0.\\Version=ES64L-G09RevD.01\HF=-
 38.4428093\S2=3.752904\S2-1=0.\S2A=3.75\RMSD=5.848e-09\RMSF=6.083e-07\
 ZeroPoint=0.0068926\Thermal=0.009253\Dipole=0.3300752,0.,0.\DipoleDeri
 v=0.2325362,0.,0.,0.,0.158523,0.,0.,0.,0.158523,-0.2325362,0.,0.,0.,-0
 .158523,0.,0.,0.,-0.158523\Polar=10.1406853,0.,8.2747685,0.,0.,8.27476
 85\PG=C*V [C*(H1C1)]\NImag=0\\0.32206466,0.,-0.00000793,0.,0.,-0.00000
 793,-0.32206466,0.,0.,0.32206466,0.,0.00000793,0.,0.,-0.00000793,0.,0.
 ,0.00000793,0.,0.,-0.00000793\\0.00000105,0.,0.,-0.00000105,0.,0.\\\@


 FROM AN ANONYMOUS WRITER, ON PERSPECTIVE:

 MAN, DESPITE HIS ARTISTIC PRETENSIONS, HIS SOPHISTICATION AND MANY 
 ACCOMPLISHMENTS, OWES THE FACT OF HIS EXISTENCE TO A SIX-INCH LAYER OF 
 TOPSOIL AND THE FACT THAT IT RAINS.
 Leave Link 9999 at Mon Apr 27 15:55:53 2015, MaxMem=   524288000 cpu:         0.3
 Job cpu time:       0 days  0 hours  0 minutes 41.6 seconds.
 File lengths (MBytes):  RWF=      5 Int=      0 D2E=      0 Chk=      1 Scr=      1
 Normal termination of Gaussian 09 at Mon Apr 27 15:55:53 2015.
 (Enter /opt/g09/l1.exe)
 Link1:  Proceeding to internal job step number  2.
 ----------------------------------------------------------------------
 #P Geom=AllCheck Guess=TCheck SCRF=Check GenChk UB971/6-311+G(d,p) Fre
 q
 ----------------------------------------------------------------------
 1/7=10,10=4,29=7,30=1,38=1,40=1/1,3;
 2/12=2,15=1,40=1/2;
 3/5=4,6=6,7=111,11=2,14=-4,16=1,24=10,25=1,30=1,70=2,71=2,74=-20,75=-5,116=2,140=1/1,2,3;
 4/5=101/1;
 5/5=2,98=1/2;
 8/6=4,10=90,11=11/1;
 11/6=1,8=1,9=11,15=111,16=1,31=1/1,2,10;
 10/6=1,31=1/2;
 7/8=1,10=1,25=1,30=1/1,2,3,16;
 1/7=10,10=4,30=1/3;
 99//99;
 Leave Link    1 at Mon Apr 27 15:55:53 2015, MaxMem=   524288000 cpu:         0.4
 (Enter /opt/g09/l101.exe)
 Structure from the checkpoint file:  "/scratch/pb556/g09_run/add_hco//Gau-17559.chk"
 ----------------------------------------------------------------------
 W:\Data\additional_hydrocarbons\nist\enthalpy_estimation\success\fine\
 corr_b971_3315-37-5.g09
 ----------------------------------------------------------------------
 Charge =  0 Multiplicity = 4
 Redundant internal coordinates found in file.
 H,0,0.99404,0.,0.
 C,0,-0.10704,0.,0.
 Recover connectivity data from disk.
 NAtoms=      2 NQM=        2 NQMF=       0 NMMI=      0 NMMIF=      0
                NMic=       0 NMicF=      0.
                    Isotopes and Nuclear Properties:
 (Nuclear quadrupole moments (NQMom) in fm**2, nuclear magnetic moments (NMagM)
  in nuclear magnetons)

  Atom         1           2
 IAtWgt=           1          12
 AtmWgt=   1.0078250  12.0000000
 NucSpn=           1           0
 AtZEff=  -1.0000000  -3.6000000
 NQMom=    0.0000000   0.0000000
 NMagM=    2.7928460   0.0000000
 AtZNuc=   1.0000000   6.0000000
 Leave Link  101 at Mon Apr 27 15:55:53 2015, MaxMem=   524288000 cpu:         1.8
 (Enter /opt/g09/l103.exe)

 GradGradGradGradGradGradGradGradGradGradGradGradGradGradGradGradGradGrad
 Berny optimization.
 Initialization pass.
                           ----------------------------
                           !    Initial Parameters    !
                           ! (Angstroms and Degrees)  !
 --------------------------                            --------------------------
 ! Name  Definition              Value          Derivative Info.                !
 --------------------------------------------------------------------------------
 ! R1    R(1,2)                  1.1011         calculate D2E/DX2 analytically  !
 --------------------------------------------------------------------------------
 Trust Radius=3.00D-01 FncErr=1.00D-07 GrdErr=1.00D-07
 Number of steps in this run=      2 maximum allowed number of steps=      2.
 GradGradGradGradGradGradGradGradGradGradGradGradGradGradGradGradGradGrad

 Leave Link  103 at Mon Apr 27 15:55:53 2015, MaxMem=   524288000 cpu:         0.1
 (Enter /opt/g09/l202.exe)
                          Input orientation:                          
 ---------------------------------------------------------------------
 Center     Atomic      Atomic             Coordinates (Angstroms)
 Number     Number       Type             X           Y           Z
 ---------------------------------------------------------------------
      1          1           0        0.994040    0.000000    0.000000
      2          6           0       -0.107040    0.000000    0.000000
 ---------------------------------------------------------------------
 Symmetry turned off by external request.
 Stoichiometry    CH(4)
 Framework group  C*V[C*(HC)]
 Deg. of freedom     1
 Full point group                 C*V     NOp   4
 Rotational constants (GHZ):      0.0000000    448.3505896    448.3505896
 Leave Link  202 at Mon Apr 27 15:55:53 2015, MaxMem=   524288000 cpu:         0.0
 (Enter /opt/g09/l301.exe)
 Standard basis: 6-311+G(d,p) (5D, 7F)
 Ernie: Thresh=  0.10000D-02 Tol=  0.10000D-05 Strict=F.
 AO basis set in the form of general basis input (Overlap normalization):
      1 0
 S   3 1.00       0.000000000000
      0.3386500000D+02  0.2549381454D-01
      0.5094790000D+01  0.1903731086D+00
      0.1158790000D+01  0.8521614860D+00
 S   1 1.00       0.000000000000
      0.3258400000D+00  0.1000000000D+01
 S   1 1.00       0.000000000000
      0.1027410000D+00  0.1000000000D+01
 P   1 1.00       0.000000000000
      0.7500000000D+00  0.1000000000D+01
 ****
      2 0
 S   6 1.00       0.000000000000
      0.4563240000D+04  0.1966650249D-02
      0.6820240000D+03  0.1523060193D-01
      0.1549730000D+03  0.7612690966D-01
      0.4445530000D+02  0.2608010331D+00
      0.1302900000D+02  0.6164620782D+00
      0.1827730000D+01  0.2210060280D+00
 SP   3 1.00       0.000000000000
      0.2096420000D+02  0.1146600807D+00  0.4024869267D-01
      0.4803310000D+01  0.9199996477D+00  0.2375939567D+00
      0.1459330000D+01 -0.3030682134D-02  0.8158538515D+00
 SP   1 1.00       0.000000000000
      0.4834560000D+00  0.1000000000D+01  0.1000000000D+01
 SP   1 1.00       0.000000000000
      0.1455850000D+00  0.1000000000D+01  0.1000000000D+01
 SP   1 1.00       0.000000000000
      0.4380000000D-01  0.1000000000D+01  0.1000000000D+01
 D   1 1.00       0.000000000000
      0.6260000000D+00  0.1000000000D+01
 ****

    28 basis functions,    44 primitive gaussians,    29 cartesian basis functions
     5 alpha electrons        2 beta electrons
       nuclear repulsion energy         2.8835899767 Hartrees.
 IExCor= 1614 DFT=T Ex+Corr=B971 ExCW=0 ScaHFX=  0.210000
 ScaDFX=  1.000000  1.000000  1.000000  1.000000 ScalE2=  1.000000  1.000000
 IRadAn=      5 IRanWt=     -1 IRanGd=            0 ICorTp=0 IEmpDi=  4
 NAtoms=    2 NActive=    2 NUniq=    2 SFac= 1.00D+00 NAtFMM=   60 NAOKFM=F Big=F
 Integral buffers will be    131072 words long.
 Raffenetti 2 integral format.
 Two-electron integral symmetry is turned off.
 Leave Link  301 at Mon Apr 27 15:55:53 2015, MaxMem=   524288000 cpu:         0.4
 (Enter /opt/g09/l302.exe)
 NPDir=0 NMtPBC=     1 NCelOv=     1 NCel=       1 NClECP=     1 NCelD=      1
         NCelK=      1 NCelE2=     1 NClLst=     1 CellRange=     0.0.
 One-electron integrals computed using PRISM.
 NBasis=    28 RedAO= T EigKep=  2.04D-02  NBF=    28
 NBsUse=    28 1.00D-06 EigRej= -1.00D+00 NBFU=    28
 Precomputing XC quadrature grid using
 IXCGrd= 4 IRadAn=           5 IRanWt=          -1 IRanGd=           0 AccXCQ= 0.00D+00.
 Generated NRdTot=       0 NPtTot=           0 NUsed=           0 NTot=          32
 NSgBfM=    29    29    29    29    29 MxSgAt=     2 MxSgA2=     2.
 Leave Link  302 at Mon Apr 27 15:55:53 2015, MaxMem=   524288000 cpu:         1.2
 (Enter /opt/g09/l303.exe)
 DipDrv:  MaxL=1.
 Leave Link  303 at Mon Apr 27 15:55:54 2015, MaxMem=   524288000 cpu:         0.3
 (Enter /opt/g09/l401.exe)
 Initial guess from the checkpoint file:  "/scratch/pb556/g09_run/add_hco//Gau-17559.chk"
 B after Tr=     0.000000    0.000000    0.000000
         Rot=    1.000000    0.000000    0.000000    0.000000 Ang=   0.00 deg.
 Guess basis will be translated and rotated to current coordinates.
 JPrj=2 DoOrth=T DoCkMO=T.
 Initial guess <Sx>= 0.0000 <Sy>= 0.0000 <Sz>= 1.5000 <S**2>= 3.7529 S= 1.5007
 Leave Link  401 at Mon Apr 27 15:55:54 2015, MaxMem=   524288000 cpu:         0.8
 (Enter /opt/g09/l502.exe)
 UHF open shell SCF:
 Using DIIS extrapolation, IDIIS=  1040.
 Two-electron integral symmetry not used.
 Keep R1 and R2 ints in memory in canonical form, NReq=1049005.
 IVT=       21483 IEndB=       21483 NGot=   524288000 MDV=   524101276
 LenX=   524101276 LenY=   524099994
 Requested convergence on RMS density matrix=1.00D-08 within 128 cycles.
 Requested convergence on MAX density matrix=1.00D-06.
 Requested convergence on             energy=1.00D-06.
 No special actions if energy rises.
 FoFCou: FMM=F IPFlag=           0 FMFlag=           0 FMFlg1=           0
         NFxFlg=           0 DoJE=F BraDBF=F KetDBF=F FulRan=T
         wScrn=  0.000000 ICntrl=     600 IOpCl=  0 I1Cent=           0 NGrid=           0
         NMat0=    1 NMatS0=    406 NMatT0=    0 NMatD0=    1 NMtDS0=    0 NMtDT0=    0
 Symmetry not used in FoFCou.

 Cycle   1  Pass 1  IDiag  1:
 E= -38.4428092676850    
 DIIS: error= 1.73D-09 at cycle   1 NSaved=   1.
 NSaved= 1 IEnMin= 1 EnMin= -38.4428092676850     IErMin= 1 ErrMin= 1.73D-09
 ErrMax= 1.73D-09  0.00D+00 EMaxC= 1.00D-01 BMatC= 3.09D-16 BMatP= 3.09D-16
 IDIUse=1 WtCom= 1.00D+00 WtEn= 0.00D+00
 Coeff-Com:  0.100D+01
 Coeff:      0.100D+01
 Gap=     0.287 Goal=   None    Shift=    0.000
 Gap=     0.371 Goal=   None    Shift=    0.000
 RMSDP=5.83D-10 MaxDP=9.08D-09              OVMax= 1.26D-08

 SCF Done:  E(UB971) =  -38.4428092677     A.U. after    1 cycles
            NFock=  1  Conv=0.58D-09     -V/T= 2.0024
 <Sx>= 0.0000 <Sy>= 0.0000 <Sz>= 1.5000 <S**2>= 3.7529 S= 1.5007
 <L.S>= 0.000000000000E+00
 KE= 3.835139953100D+01 PE=-9.512199900334D+01 EE= 1.544420022796D+01
 Annihilation of the first spin contaminant:
 S**2 before annihilation     3.7529,   after     3.7500
 Leave Link  502 at Mon Apr 27 15:55:54 2015, MaxMem=   524288000 cpu:         1.6
 (Enter /opt/g09/l801.exe)
 DoSCS=F DFT=T ScalE2(SS,OS)=  1.000000  1.000000
 Range of M.O.s used for correlation:     1    28
 NBasis=    28 NAE=     5 NBE=     2 NFC=     0 NFV=     0
 NROrb=     28 NOA=     5 NOB=     2 NVA=    23 NVB=    26
 Leave Link  801 at Mon Apr 27 15:55:54 2015, MaxMem=   524288000 cpu:         0.3
 (Enter /opt/g09/l1101.exe)
 Using compressed storage, NAtomX=     2.
 Will process      3 centers per pass.
 Leave Link 1101 at Mon Apr 27 15:55:54 2015, MaxMem=   524288000 cpu:         1.2
 (Enter /opt/g09/l1102.exe)
 Symmetrizing basis deriv contribution to polar:
 IMax=3 JMax=2 DiffMx= 0.00D+00
 Leave Link 1102 at Mon Apr 27 15:55:54 2015, MaxMem=   524288000 cpu:         0.3
 (Enter /opt/g09/l1110.exe)
 Forming Gx(P) for the SCF density, NAtomX=     2.
 Integral derivatives from FoFJK, PRISM(SPDF).
 Do as many integral derivatives as possible in FoFJK.
 G2DrvN: MDV=     524287880.
 G2DrvN: will do     3 centers at a time, making    1 passes.
 Calling FoFCou, ICntrl=  3107 FMM=F I1Cent=   0 AccDes= 0.00D+00.
 FoFJK:  IHMeth= 1 ICntrl=    3107 DoSepK=F KAlg= 0 I1Cent=   0 FoldK=F
 IRaf=         0 NMat=   1 IRICut=       1 DoRegI=T DoRafI=F ISym2E= 0.
 FoFCou: FMM=F IPFlag=           0 FMFlag=      100000 FMFlg1=           0
         NFxFlg=           0 DoJE=F BraDBF=F KetDBF=F FulRan=T
         wScrn=  0.000000 ICntrl=    3107 IOpCl=  1 I1Cent=           0 NGrid=           0
         NMat0=    1 NMatS0=      1 NMatT0=    0 NMatD0=    1 NMtDS0=    0 NMtDT0=    0
 Symmetry not used in FoFCou.
 End of G2Drv F.D. properties file   721 does not exist.
 End of G2Drv F.D. properties file   722 does not exist.
 End of G2Drv F.D. properties file   788 does not exist.
 Leave Link 1110 at Mon Apr 27 15:55:55 2015, MaxMem=   524288000 cpu:         4.5
 (Enter /opt/g09/l1002.exe)
 Minotr:  UHF open shell wavefunction.
          IDoAtm=11
          Direct CPHF calculation.
          Differentiating once with respect to electric field.
                with respect to dipole field.
          Differentiating once with respect to nuclear coordinates.
          Requested convergence is 1.0D-08 RMS, and 1.0D-07 maximum.
          Secondary convergence is 1.0D-12 RMS, and 1.0D-12 maximum.
          NewPWx=T KeepS1=F KeepF1=F KeepIn=T MapXYZ=F SortEE=F KeepMc=T.
          MDV=     524287920 using IRadAn=       1.
 Generate precomputed XC quadrature information.
 Keep R1 and R2 ints in memory in canonical form, NReq=1025228.
 FoFCou: FMM=F IPFlag=           0 FMFlag=           0 FMFlg1=           0
         NFxFlg=           0 DoJE=F BraDBF=F KetDBF=F FulRan=T
         wScrn=  0.000000 ICntrl=     600 IOpCl=  0 I1Cent=           0 NGrid=           0
         NMat0=    1 NMatS0=    406 NMatT0=    0 NMatD0=    1 NMtDS0=    0 NMtDT0=    0
 Symmetry not used in FoFCou.
          Solving linear equations simultaneously, MaxMat=       0.
          There are     9 degrees of freedom in the 1st order CPHF.  IDoFFX=6 NUNeed=     3.
      6 vectors produced by pass  0 Test12= 1.86D-15 1.11D-08 XBig12= 1.24D+01 2.44D+00.
 AX will form     6 AO Fock derivatives at one time.
      6 vectors produced by pass  1 Test12= 1.86D-15 1.11D-08 XBig12= 1.16D+00 4.31D-01.
      6 vectors produced by pass  2 Test12= 1.86D-15 1.11D-08 XBig12= 6.37D-03 3.95D-02.
      6 vectors produced by pass  3 Test12= 1.86D-15 1.11D-08 XBig12= 6.82D-05 3.49D-03.
      6 vectors produced by pass  4 Test12= 1.86D-15 1.11D-08 XBig12= 4.93D-07 4.34D-04.
      6 vectors produced by pass  5 Test12= 1.86D-15 1.11D-08 XBig12= 3.84D-09 3.02D-05.
      4 vectors produced by pass  6 Test12= 1.86D-15 1.11D-08 XBig12= 1.45D-11 1.45D-06.
      1 vectors produced by pass  7 Test12= 1.86D-15 1.11D-08 XBig12= 7.66D-14 1.03D-07.
      1 vectors produced by pass  8 Test12= 1.86D-15 1.11D-08 XBig12= 7.14D-16 1.11D-08.
 InvSVY:  IOpt=1 It=  1 EMax= 6.66D-16
 Solved reduced A of dimension    42 with     6 vectors.
 FullF1:  Do perturbations    1 to     3.
 Isotropic polarizability for W=    0.000000        8.90 Bohr**3.
 End of Minotr F.D. properties file   721 does not exist.
 End of Minotr F.D. properties file   722 does not exist.
 End of Minotr F.D. properties file   788 does not exist.
 Leave Link 1002 at Mon Apr 27 15:55:55 2015, MaxMem=   524288000 cpu:         3.8
 (Enter /opt/g09/l701.exe)
 Compute integral second derivatives.
 ... and contract with generalized density number  0.
 Leave Link  701 at Mon Apr 27 15:55:56 2015, MaxMem=   524288000 cpu:         2.1
 (Enter /opt/g09/l702.exe)
 L702 exits ... SP integral derivatives will be done elsewhere.
 Leave Link  702 at Mon Apr 27 15:55:56 2015, MaxMem=   524288000 cpu:         0.2
 (Enter /opt/g09/l703.exe)
 Compute integral second derivatives, UseDBF=F ICtDFT=           0.
 Integral derivatives from FoFJK, PRISM(SPDF).
 Calling FoFJK, ICntrl=    100127 FMM=F ISym2X=0 I1Cent= 0 IOpClX= 1 NMat=1 NMatS=1 NMatT=0.
 FoFJK:  IHMeth= 1 ICntrl=  100127 DoSepK=F KAlg= 0 I1Cent=   0 FoldK=F
 IRaf=         0 NMat=   1 IRICut=       1 DoRegI=T DoRafI=F ISym2E= 0.
 FoFCou: FMM=F IPFlag=           0 FMFlag=      100000 FMFlg1=         800
         NFxFlg=           0 DoJE=F BraDBF=F KetDBF=F FulRan=T
         wScrn=  0.000000 ICntrl=  100127 IOpCl=  1 I1Cent=           0 NGrid=           0
         NMat0=    1 NMatS0=      1 NMatT0=    0 NMatD0=    1 NMtDS0=    0 NMtDT0=    0
 Symmetry not used in FoFCou.
 Leave Link  703 at Mon Apr 27 15:55:57 2015, MaxMem=   524288000 cpu:         7.8
 (Enter /opt/g09/l716.exe)
 Dipole        = 3.30075191D-01 1.05014752D-09-3.64201088D-09
 Polarizability= 1.01406854D+01 6.42403870D-10 8.27476862D+00
                -2.22608288D-09 6.29314460D-09 8.27476860D+00
 Full mass-weighted force constant matrix:
 Low frequencies ---  -15.0187  -15.0187    0.0003    0.0004    0.0010 3025.4847
 Diagonal vibrational polarizability:
        0.1666917       0.0000000       0.0000000
 Harmonic frequencies (cm**-1), IR intensities (KM/Mole), Raman scattering
 activities (A**4/AMU), depolarization ratios for plane and unpolarized
 incident light, reduced masses (AMU), force constants (mDyne/A),
 and normal coordinates:
                      1
                      A
 Frequencies --   3025.4847
 Red. masses --      1.0848
 Frc consts  --      5.8505
 IR Inten    --     56.6984
  Atom  AN      X      Y      Z
     1   1     1.00   0.00   0.00
     2   6    -0.08   0.00   0.00

 -------------------
 - Thermochemistry -
 -------------------
 Temperature   298.150 Kelvin.  Pressure   1.00000 Atm.
 Atom     1 has atomic number  1 and mass   1.00783
 Atom     2 has atomic number  6 and mass  12.00000
 Molecular mass:    13.00783 amu.
 Principal axes and moments of inertia in atomic units:
                           1         2         3
     Eigenvalues --     0.00000   4.02529   4.02529
           X            1.00000   0.00000   0.00000
           Y            0.00000   1.00000   0.00000
           Z            0.00000   0.00000   1.00000
 This molecule is a prolate symmetric top.
 Rotational symmetry number  1.
 Rotational temperature (Kelvin)     21.51741
 Rotational constant (GHZ):         448.350590
 Zero-point vibrational energy      18096.4 (Joules/Mol)
                                    4.32515 (Kcal/Mol)
 Vibrational temperatures:   4352.99
          (Kelvin)
 
 Zero-point correction=                           0.006893 (Hartree/Particle)
 Thermal correction to Energy=                    0.009253
 Thermal correction to Enthalpy=                  0.010197
 Thermal correction to Gibbs Free Energy=        -0.010521
 Sum of electronic and zero-point Energies=            -38.435917
 Sum of electronic and thermal Energies=               -38.433556
 Sum of electronic and thermal Enthalpies=             -38.432612
 Sum of electronic and thermal Free Energies=          -38.453330
 
                     E (Thermal)             CV                S
                      KCal/Mol        Cal/Mol-Kelvin    Cal/Mol-Kelvin
 Total                    5.806              4.968             43.604
 Electronic               0.000              0.000              2.755
 Translational            0.889              2.981             33.638
 Rotational               0.592              1.987              7.211
 Vibrational              4.325              0.000              0.000
                       Q            Log10(Q)             Ln(Q)
 Total Bot       0.690424D+05          4.839116         11.142476
 Total V=0       0.102204D+09          8.009467         18.442480
 Vib (Bot)       0.675537D-03         -3.170351         -7.300003
 Vib (V=0)       0.100000D+01          0.000000          0.000000
 Electronic      0.400000D+01          0.602060          1.386294
 Translational   0.184401D+07          6.265762         14.427451
 Rotational      0.138562D+02          1.141645          2.628734
 -------------------------------------------------------------------
 Center     Atomic                   Forces (Hartrees/Bohr)
 Number     Number              X              Y              Z
 -------------------------------------------------------------------
      1        1          -0.000001053    0.000000000    0.000000001
      2        6           0.000001053    0.000000000   -0.000000001
 -------------------------------------------------------------------
 Cartesian Forces:  Max     0.000001053 RMS     0.000000608
 Force constants in Cartesian coordinates: 
                1             2             3             4             5 
      1  0.322065D+00
      2  0.000000D+00 -0.793626D-05
      3  0.000000D+00  0.000000D+00 -0.793624D-05
      4 -0.322065D+00  0.000000D+00  0.000000D+00  0.322065D+00
      5  0.000000D+00  0.793626D-05  0.000000D+00  0.000000D+00 -0.793626D-05
      6  0.000000D+00  0.000000D+00  0.793624D-05  0.000000D+00  0.000000D+00
                6 
      6 -0.793624D-05
 FormGI is forming the generalized inverse of G from B-inverse, IUseBI=4.
 Force constants in internal coordinates: 
                1 
      1  0.322065D+00
 Leave Link  716 at Mon Apr 27 15:55:57 2015, MaxMem=   524288000 cpu:         0.3
 (Enter /opt/g09/l103.exe)

 GradGradGradGradGradGradGradGradGradGradGradGradGradGradGradGradGradGrad
 Berny optimization.
 Red2BG is reusing G-inverse.
 Internal  Forces:  Max     0.000001053 RMS     0.000001053
 Search for a local minimum.
 Step number   1 out of a maximum of    2
 All quantities printed in internal units (Hartrees-Bohrs-Radians)
 Second derivative matrix not updated -- analytic derivatives used.
 The second derivative matrix:
                          R1
           R1           0.32206
 ITU=  0
     Eigenvalues ---    0.32206
 Angle between quadratic step and forces=   0.00 degrees.
 Linear search not attempted -- first point.
 Iteration  1 RMS(Cart)=  0.00000231 RMS(Int)=  0.00000000
 Iteration  2 RMS(Cart)=  0.00000000 RMS(Int)=  0.00000000
 ITry= 1 IFail=0 DXMaxC= 1.63D-06 DCOld= 1.00D+10 DXMaxT= 3.00D-01 DXLimC= 3.00D+00 Rises=F
 Variable       Old X    -DE/DX   Delta X   Delta X   Delta X     New X
                                 (Linear)    (Quad)   (Total)
    R1        2.08074   0.00000   0.00000   0.00000   0.00000   2.08074
         Item               Value     Threshold  Converged?
 Maximum Force            0.000001     0.000015     YES
 RMS     Force            0.000001     0.000010     YES
 Maximum Displacement     0.000002     0.000060     YES
 RMS     Displacement     0.000002     0.000040     YES
 Predicted change in Energy=-1.720438D-12
 Optimization completed.
    -- Stationary point found.
                           ----------------------------
                           !   Optimized Parameters   !
                           ! (Angstroms and Degrees)  !
 --------------------------                            --------------------------
 ! Name  Definition              Value          Derivative Info.                !
 --------------------------------------------------------------------------------
 ! R1    R(1,2)                  1.1011         -DE/DX =    0.0                 !
 --------------------------------------------------------------------------------
 GradGradGradGradGradGradGradGradGradGradGradGradGradGradGradGradGradGrad

 Leave Link  103 at Mon Apr 27 15:55:57 2015, MaxMem=   524288000 cpu:         0.0
 (Enter /opt/g09/l9999.exe)
 1\1\GINC-RENOIR\Freq\UB971\6-311+G(d,p)\C1H1(4)\PB556\27-Apr-2015\0\\#
 P Geom=AllCheck Guess=TCheck SCRF=Check GenChk UB971/6-311+G(d,p) Freq
 \\W:\Data\additional_hydrocarbons\nist\enthalpy_estimation\success\fin
 e\corr_b971_3315-37-5.g09\\0,4\H,0.99404,0.,0.\C,-0.10704,0.,0.\\Versi
 on=ES64L-G09RevD.01\HF=-38.4428093\S2=3.752904\S2-1=0.\S2A=3.75\RMSD=5
 .826e-10\RMSF=6.078e-07\ZeroPoint=0.0068926\Thermal=0.009253\Dipole=0.
 3300752,0.,0.\DipoleDeriv=0.2325362,0.,0.,0.,0.158523,0.,0.,0.,0.15852
 3,-0.2325362,0.,0.,0.,-0.158523,0.,0.,0.,-0.158523\Polar=10.1406854,0.
 ,8.2747686,0.,0.,8.2747686\PG=C*V [C*(H1C1)]\NImag=0\\0.32206466,0.,-0
 .00000794,0.,0.,-0.00000794,-0.32206466,0.,0.,0.32206466,0.,0.00000794
 ,0.,0.,-0.00000794,0.,0.,0.00000794,0.,0.,-0.00000794\\0.00000105,0.,0
 .,-0.00000105,0.,0.\\\@


 THOSE WHO TRY TO PASS CHEMISTRY OFF AS A NEW SCIENCE
 SHOW HOW LITTLE KNOWLEDGE THEY HAVE OF THE CHARACTER
 AND LITERATURE OF THE ANCIENTS.
   -- NICOLAS LEFEVRE
 "COURS DE CHYMIE" J.-N.LELOUP, PARIS, 1751
 Job cpu time:       0 days  0 hours  0 minutes 31.9 seconds.
 File lengths (MBytes):  RWF=      5 Int=      0 D2E=      0 Chk=      1 Scr=      1
 Normal termination of Gaussian 09 at Mon Apr 27 15:55:57 2015.
