 Entering Gaussian System, Link 0=g09
 Input=0_0freq-0_0corr_b971_50-00-0.gau
 Output=0_0freq-0_0corr_b971_50-00-0.log
 Initial command:
 /opt/g09/l1.exe "/scratch/pb556/g09_run/add_hco//Gau-20260.inp" -scrdir="/scratch/pb556/g09_run/add_hco//"
 Entering Link 1 = /opt/g09/l1.exe PID=     20269.
  
 Copyright (c) 1988,1990,1992,1993,1995,1998,2003,2009,2013,
            Gaussian, Inc.  All Rights Reserved.
  
 This is part of the Gaussian(R) 09 program.  It is based on
 the Gaussian(R) 03 system (copyright 2003, Gaussian, Inc.),
 the Gaussian(R) 98 system (copyright 1998, Gaussian, Inc.),
 the Gaussian(R) 94 system (copyright 1995, Gaussian, Inc.),
 the Gaussian 92(TM) system (copyright 1992, Gaussian, Inc.),
 the Gaussian 90(TM) system (copyright 1990, Gaussian, Inc.),
 the Gaussian 88(TM) system (copyright 1988, Gaussian, Inc.),
 the Gaussian 86(TM) system (copyright 1986, Carnegie Mellon
 University), and the Gaussian 82(TM) system (copyright 1983,
 Carnegie Mellon University). Gaussian is a federally registered
 trademark of Gaussian, Inc.
  
 This software contains proprietary and confidential information,
 including trade secrets, belonging to Gaussian, Inc.
  
 This software is provided under written license and may be
 used, copied, transmitted, or stored only in accord with that
 written license.
  
 The following legend is applicable only to US Government
 contracts under FAR:
  
                    RESTRICTED RIGHTS LEGEND
  
 Use, reproduction and disclosure by the US Government is
 subject to restrictions as set forth in subparagraphs (a)
 and (c) of the Commercial Computer Software - Restricted
 Rights clause in FAR 52.227-19.
  
 Gaussian, Inc.
 340 Quinnipiac St., Bldg. 40, Wallingford CT 06492
  
  
 ---------------------------------------------------------------
 Warning -- This program may not be used in any manner that
 competes with the business of Gaussian, Inc. or will provide
 assistance to any competitor of Gaussian, Inc.  The licensee
 of this program is prohibited from giving any competitor of
 Gaussian, Inc. access to this program.  By using this program,
 the user acknowledges that Gaussian, Inc. is engaged in the
 business of creating and licensing software in the field of
 computational chemistry and represents and warrants to the
 licensee that it is not a competitor of Gaussian, Inc. and that
 it will not use this program in any manner prohibited above.
 ---------------------------------------------------------------
  

 Cite this work as:
 Gaussian 09, Revision D.01,
 M. J. Frisch, G. W. Trucks, H. B. Schlegel, G. E. Scuseria, 
 M. A. Robb, J. R. Cheeseman, G. Scalmani, V. Barone, B. Mennucci, 
 G. A. Petersson, H. Nakatsuji, M. Caricato, X. Li, H. P. Hratchian, 
 A. F. Izmaylov, J. Bloino, G. Zheng, J. L. Sonnenberg, M. Hada, 
 M. Ehara, K. Toyota, R. Fukuda, J. Hasegawa, M. Ishida, T. Nakajima, 
 Y. Honda, O. Kitao, H. Nakai, T. Vreven, J. A. Montgomery, Jr., 
 J. E. Peralta, F. Ogliaro, M. Bearpark, J. J. Heyd, E. Brothers, 
 K. N. Kudin, V. N. Staroverov, T. Keith, R. Kobayashi, J. Normand, 
 K. Raghavachari, A. Rendell, J. C. Burant, S. S. Iyengar, J. Tomasi, 
 M. Cossi, N. Rega, J. M. Millam, M. Klene, J. E. Knox, J. B. Cross, 
 V. Bakken, C. Adamo, J. Jaramillo, R. Gomperts, R. E. Stratmann, 
 O. Yazyev, A. J. Austin, R. Cammi, C. Pomelli, J. W. Ochterski, 
 R. L. Martin, K. Morokuma, V. G. Zakrzewski, G. A. Voth, 
 P. Salvador, J. J. Dannenberg, S. Dapprich, A. D. Daniels, 
 O. Farkas, J. B. Foresman, J. V. Ortiz, J. Cioslowski, 
 and D. J. Fox, Gaussian, Inc., Wallingford CT, 2013.
 
 ******************************************
 Gaussian 09:  ES64L-G09RevD.01 24-Apr-2013
                25-Apr-2015 
 ******************************************
 %NProcShared=8
 Will use up to    8 processors via shared memory.
 %Mem=500MW
 ----------------------------------------------------------------------
 #p rB971/6-311+G(d,p) Opt=(Tight, CalcAll) Freq GFInput Population=Non
 e Integral(Grid=UltraFine) Guess=MIX NoSymmetry
 ----------------------------------------------------------------------
 1/7=10,10=4,14=-1,18=20,19=15,26=4,38=1/1,3;
 2/9=110,12=2,15=1,17=6,18=5,40=1/2;
 3/5=4,6=6,7=111,11=2,16=1,24=10,25=1,30=1,71=2,74=-20,75=-5,116=1,140=1/1,2,3;
 4/13=-1/1;
 5/5=2,38=5/2;
 8/6=4,10=90,11=11/1;
 11/6=1,8=1,9=11,15=111,16=1,31=1/1,2,10;
 10/6=1,31=1/2;
 7/10=1,25=1,30=1/1,2,3,16;
 1/7=10,10=4,14=-1,18=20,19=15,26=4/3(3);
 2/9=110,15=1/2;
 7/8=1,9=1,25=1,30=1,44=-1/16;
 99//99;
 2/9=110,15=1/2;
 3/5=4,6=6,7=111,11=2,16=1,25=1,30=1,71=2,74=-20,75=-5,116=1,140=1/1,2,3;
 4/5=5,16=3,69=1/1;
 5/5=2,38=5/2;
 8/6=4,10=90,11=11/1;
 11/6=1,8=1,9=11,15=111,16=1,31=1/1,2,10;
 10/6=1,31=1/2;
 7/10=1,25=1,30=1/1,2,3,16;
 1/7=10,10=4,14=-1,18=20,19=15,26=4/3(-8);
 2/9=110,15=1/2;
 7/8=1,9=1,25=1,30=1,44=-1/16;
 99//99;
 Leave Link    1 at Sat Apr 25 21:00:41 2015, MaxMem=   524288000 cpu:         0.6
 (Enter /opt/g09/l101.exe)
 ----------------------------------------------------------------------
 W:\Data\additional_hydrocarbons\nist\enthalpy_estimation\success\fine\
 0_0corr_b971_50-00-0.g09
 ----------------------------------------------------------------------
 Symbolic Z-matrix:
 Charge =  0 Multiplicity = 1
 O                     17.       30.01162   0. 
 C                     17.       28.80941   0. 
 H                     16.0587   28.22103   0. 
 H                     17.9413   28.22103   0. 
 
 NAtoms=      4 NQM=        4 NQMF=       0 NMMI=      0 NMMIF=      0
                NMic=       0 NMicF=      0.
                    Isotopes and Nuclear Properties:
 (Nuclear quadrupole moments (NQMom) in fm**2, nuclear magnetic moments (NMagM)
  in nuclear magnetons)

  Atom         1           2           3           4
 IAtWgt=          16          12           1           1
 AtmWgt=  15.9949146  12.0000000   1.0078250   1.0078250
 NucSpn=           0           0           1           1
 AtZEff=   0.0000000   0.0000000   0.0000000   0.0000000
 NQMom=    0.0000000   0.0000000   0.0000000   0.0000000
 NMagM=    0.0000000   0.0000000   2.7928460   2.7928460
 AtZNuc=   8.0000000   6.0000000   1.0000000   1.0000000
 Leave Link  101 at Sat Apr 25 21:00:41 2015, MaxMem=   524288000 cpu:         1.9
 (Enter /opt/g09/l103.exe)

 GradGradGradGradGradGradGradGradGradGradGradGradGradGradGradGradGradGrad
 Berny optimization.
 Initialization pass.
                           ----------------------------
                           !    Initial Parameters    !
                           ! (Angstroms and Degrees)  !
 --------------------------                            --------------------------
 ! Name  Definition              Value          Derivative Info.                !
 --------------------------------------------------------------------------------
 ! R1    R(1,2)                  1.2022         calculate D2E/DX2 analytically  !
 ! R2    R(2,3)                  1.1101         calculate D2E/DX2 analytically  !
 ! R3    R(2,4)                  1.1101         calculate D2E/DX2 analytically  !
 ! A1    A(1,2,3)              122.0083         calculate D2E/DX2 analytically  !
 ! A2    A(1,2,4)              122.0083         calculate D2E/DX2 analytically  !
 ! A3    A(3,2,4)              115.9833         calculate D2E/DX2 analytically  !
 ! D1    D(1,2,4,3)            180.0            calculate D2E/DX2 analytically  !
 --------------------------------------------------------------------------------
 Trust Radius=3.00D-01 FncErr=1.00D-07 GrdErr=1.00D-06
 Number of steps in this run=     20 maximum allowed number of steps=    100.
 GradGradGradGradGradGradGradGradGradGradGradGradGradGradGradGradGradGrad

 Leave Link  103 at Sat Apr 25 21:00:41 2015, MaxMem=   524288000 cpu:         0.1
 (Enter /opt/g09/l202.exe)
                          Input orientation:                          
 ---------------------------------------------------------------------
 Center     Atomic      Atomic             Coordinates (Angstroms)
 Number     Number       Type             X           Y           Z
 ---------------------------------------------------------------------
      1          8           0       17.000000   30.011620    0.000000
      2          6           0       17.000000   28.809410    0.000000
      3          1           0       16.058700   28.221030    0.000000
      4          1           0       17.941300   28.221030    0.000000
 ---------------------------------------------------------------------
                    Distance matrix (angstroms):
                    1          2          3          4
     1  O    0.000000
     2  C    1.202210   0.000000
     3  H    2.022933   1.110062   0.000000
     4  H    2.022933   1.110062   1.882600   0.000000
 Symmetry turned off by external request.
 Stoichiometry    CH2O
 Framework group  C2V[C2(CO),SGV(H2)]
 Deg. of freedom     3
 Full point group                 C2V     NOp   4
 Rotational constants (GHZ):    282.9736130     38.9735927     34.2556113
 Leave Link  202 at Sat Apr 25 21:00:41 2015, MaxMem=   524288000 cpu:         0.1
 (Enter /opt/g09/l301.exe)
 Standard basis: 6-311+G(d,p) (5D, 7F)
 Ernie: Thresh=  0.10000D-02 Tol=  0.10000D-05 Strict=F.
 AO basis set in the form of general basis input (Overlap normalization):
      1 0
 S   6 1.00       0.000000000000
      0.8588500000D+04  0.1895150083D-02
      0.1297230000D+04  0.1438590063D-01
      0.2992960000D+03  0.7073200310D-01
      0.8737710000D+02  0.2400010105D+00
      0.2567890000D+02  0.5947970261D+00
      0.3740040000D+01  0.2808020123D+00
 SP   3 1.00       0.000000000000
      0.4211750000D+02  0.1138890124D+00  0.3651139738D-01
      0.9628370000D+01  0.9208111006D+00  0.2371529830D+00
      0.2853320000D+01 -0.3274470358D-02  0.8197019412D+00
 SP   1 1.00       0.000000000000
      0.9056610000D+00  0.1000000000D+01  0.1000000000D+01
 SP   1 1.00       0.000000000000
      0.2556110000D+00  0.1000000000D+01  0.1000000000D+01
 SP   1 1.00       0.000000000000
      0.8450000000D-01  0.1000000000D+01  0.1000000000D+01
 D   1 1.00       0.000000000000
      0.1292000000D+01  0.1000000000D+01
 ****
      2 0
 S   6 1.00       0.000000000000
      0.4563240000D+04  0.1966650249D-02
      0.6820240000D+03  0.1523060193D-01
      0.1549730000D+03  0.7612690966D-01
      0.4445530000D+02  0.2608010331D+00
      0.1302900000D+02  0.6164620782D+00
      0.1827730000D+01  0.2210060280D+00
 SP   3 1.00       0.000000000000
      0.2096420000D+02  0.1146600807D+00  0.4024869267D-01
      0.4803310000D+01  0.9199996477D+00  0.2375939567D+00
      0.1459330000D+01 -0.3030682134D-02  0.8158538515D+00
 SP   1 1.00       0.000000000000
      0.4834560000D+00  0.1000000000D+01  0.1000000000D+01
 SP   1 1.00       0.000000000000
      0.1455850000D+00  0.1000000000D+01  0.1000000000D+01
 SP   1 1.00       0.000000000000
      0.4380000000D-01  0.1000000000D+01  0.1000000000D+01
 D   1 1.00       0.000000000000
      0.6260000000D+00  0.1000000000D+01
 ****
      3 0
 S   3 1.00       0.000000000000
      0.3386500000D+02  0.2549381454D-01
      0.5094790000D+01  0.1903731086D+00
      0.1158790000D+01  0.8521614860D+00
 S   1 1.00       0.000000000000
      0.3258400000D+00  0.1000000000D+01
 S   1 1.00       0.000000000000
      0.1027410000D+00  0.1000000000D+01
 P   1 1.00       0.000000000000
      0.7500000000D+00  0.1000000000D+01
 ****
      4 0
 S   3 1.00       0.000000000000
      0.3386500000D+02  0.2549381454D-01
      0.5094790000D+01  0.1903731086D+00
      0.1158790000D+01  0.8521614860D+00
 S   1 1.00       0.000000000000
      0.3258400000D+00  0.1000000000D+01
 S   1 1.00       0.000000000000
      0.1027410000D+00  0.1000000000D+01
 P   1 1.00       0.000000000000
      0.7500000000D+00  0.1000000000D+01
 ****

    56 basis functions,    88 primitive gaussians,    58 cartesian basis functions
     8 alpha electrons        8 beta electrons
       nuclear repulsion energy        31.3152084295 Hartrees.
 IExCor= 1614 DFT=T Ex+Corr=B971 ExCW=0 ScaHFX=  0.210000
 ScaDFX=  1.000000  1.000000  1.000000  1.000000 ScalE2=  1.000000  1.000000
 IRadAn=      5 IRanWt=     -1 IRanGd=            0 ICorTp=0 IEmpDi=  4
 NAtoms=    4 NActive=    4 NUniq=    4 SFac= 1.00D+00 NAtFMM=   60 NAOKFM=F Big=F
 Integral buffers will be    131072 words long.
 Raffenetti 2 integral format.
 Two-electron integral symmetry is turned off.
 Leave Link  301 at Sat Apr 25 21:00:41 2015, MaxMem=   524288000 cpu:         0.4
 (Enter /opt/g09/l302.exe)
 NPDir=0 NMtPBC=     1 NCelOv=     1 NCel=       1 NClECP=     1 NCelD=      1
         NCelK=      1 NCelE2=     1 NClLst=     1 CellRange=     0.0.
 One-electron integrals computed using PRISM.
 NBasis=    56 RedAO= T EigKep=  3.97D-03  NBF=    56
 NBsUse=    56 1.00D-06 EigRej= -1.00D+00 NBFU=    56
 Precomputing XC quadrature grid using
 IXCGrd= 4 IRadAn=           5 IRanWt=          -1 IRanGd=           0 AccXCQ= 0.00D+00.
 Generated NRdTot=       0 NPtTot=           0 NUsed=           0 NTot=          32
 NSgBfM=    58    58    58    58    58 MxSgAt=     4 MxSgA2=     4.
 Leave Link  302 at Sat Apr 25 21:00:41 2015, MaxMem=   524288000 cpu:         1.3
 (Enter /opt/g09/l303.exe)
 DipDrv:  MaxL=1.
 Leave Link  303 at Sat Apr 25 21:00:41 2015, MaxMem=   524288000 cpu:         0.3
 (Enter /opt/g09/l401.exe)
 ExpMin= 4.38D-02 ExpMax= 8.59D+03 ExpMxC= 1.30D+03 IAcc=3 IRadAn=         5 AccDes= 0.00D+00
 Harris functional with IExCor= 1614 and IRadAn=       5 diagonalized for initial guess.
 HarFok:  IExCor= 1614 AccDes= 0.00D+00 IRadAn=         5 IDoV= 1 UseB2=F ITyADJ=14
 ICtDFT=  3500011 ScaDFX=  1.000000  1.000000  1.000000  1.000000
 FoFCou: FMM=F IPFlag=           0 FMFlag=      100000 FMFlg1=           0
         NFxFlg=           0 DoJE=T BraDBF=F KetDBF=T FulRan=T
         wScrn=  0.000000 ICntrl=     500 IOpCl=  0 I1Cent=   200000004 NGrid=           0
         NMat0=    1 NMatS0=      1 NMatT0=    0 NMatD0=    1 NMtDS0=    0 NMtDT0=    0
 Symmetry not used in FoFCou.
 Harris En= -111.585859943103    
 JPrj=0 DoOrth=F DoCkMO=T.
 Mixing orbitals, IMix= 1 IMixAn=  0 NRI=1 NE=    8 Coef=  7.07106781D-01  7.07106781D-01
 Leave Link  401 at Sat Apr 25 21:00:42 2015, MaxMem=   524288000 cpu:         1.7
 (Enter /opt/g09/l502.exe)
 Closed shell SCF:
 Using DIIS extrapolation, IDIIS=  1040.
 Two-electron integral symmetry not used.
 Keep R1 ints in memory in canonical form, NReq=2183610.
 IVT=       29462 IEndB=       29462 NGot=   524288000 MDV=   522984133
 LenX=   522984133 LenY=   522980328
 Requested convergence on RMS density matrix=1.00D-08 within 128 cycles.
 Requested convergence on MAX density matrix=1.00D-06.
 Requested convergence on             energy=1.00D-06.
 No special actions if energy rises.
 FoFCou: FMM=F IPFlag=           0 FMFlag=           0 FMFlg1=           0
         NFxFlg=           0 DoJE=F BraDBF=F KetDBF=F FulRan=T
         wScrn=  0.000000 ICntrl=     600 IOpCl=  0 I1Cent=           0 NGrid=           0
         NMat0=    1 NMatS0=   1596 NMatT0=    0 NMatD0=    1 NMtDS0=    0 NMtDT0=    0
 Symmetry not used in FoFCou.

 Cycle   1  Pass 1  IDiag  1:
 E= -114.280095262563    
 DIIS: error= 8.84D-02 at cycle   1 NSaved=   1.
 NSaved= 1 IEnMin= 1 EnMin= -114.280095262563     IErMin= 1 ErrMin= 8.84D-02
 ErrMax= 8.84D-02  0.00D+00 EMaxC= 1.00D-01 BMatC= 2.58D-01 BMatP= 2.58D-01
 IDIUse=3 WtCom= 1.16D-01 WtEn= 8.84D-01
 Coeff-Com:  0.100D+01
 Coeff-En:   0.100D+01
 Coeff:      0.100D+01
 Gap=     0.064 Goal=   None    Shift=    0.000
 GapD=    0.064 DampG=0.500 DampE=0.500 DampFc=0.2500 IDamp=-1.
 Damping current iteration by 2.50D-01
 RMSDP=1.20D-02 MaxDP=1.61D-01              OVMax= 5.77D-01

 Cycle   2  Pass 1  IDiag  1:
 E= -114.336800415150     Delta-E=       -0.056705152587 Rises=F Damp=T
 DIIS: error= 6.28D-02 at cycle   2 NSaved=   2.
 NSaved= 2 IEnMin= 2 EnMin= -114.336800415150     IErMin= 2 ErrMin= 6.28D-02
 ErrMax= 6.28D-02  0.00D+00 EMaxC= 1.00D-01 BMatC= 1.04D-01 BMatP= 2.58D-01
 IDIUse=3 WtCom= 3.72D-01 WtEn= 6.28D-01
 Coeff-Com: -0.781D+00 0.178D+01
 Coeff-En:   0.000D+00 0.100D+01
 Coeff:     -0.291D+00 0.129D+01
 Gap=     0.213 Goal=   None    Shift=    0.000
 RMSDP=8.62D-03 MaxDP=1.01D-01 DE=-5.67D-02 OVMax= 2.22D-01

 Cycle   3  Pass 1  IDiag  1:
 E= -114.496694375629     Delta-E=       -0.159893960479 Rises=F Damp=F
 DIIS: error= 7.25D-03 at cycle   3 NSaved=   3.
 NSaved= 3 IEnMin= 3 EnMin= -114.496694375629     IErMin= 3 ErrMin= 7.25D-03
 ErrMax= 7.25D-03  0.00D+00 EMaxC= 1.00D-01 BMatC= 2.31D-03 BMatP= 1.04D-01
 IDIUse=3 WtCom= 9.27D-01 WtEn= 7.25D-02
 Coeff-Com:  0.856D-01-0.733D-01 0.988D+00
 Coeff-En:   0.000D+00 0.000D+00 0.100D+01
 Coeff:      0.794D-01-0.680D-01 0.989D+00
 Gap=     0.213 Goal=   None    Shift=    0.000
 RMSDP=1.55D-03 MaxDP=1.74D-02 DE=-1.60D-01 OVMax= 8.47D-02

 Cycle   4  Pass 1  IDiag  1:
 E= -114.502683752053     Delta-E=       -0.005989376424 Rises=F Damp=F
 DIIS: error= 2.85D-03 at cycle   4 NSaved=   4.
 NSaved= 4 IEnMin= 4 EnMin= -114.502683752053     IErMin= 4 ErrMin= 2.85D-03
 ErrMax= 2.85D-03  0.00D+00 EMaxC= 1.00D-01 BMatC= 3.65D-04 BMatP= 2.31D-03
 IDIUse=3 WtCom= 9.72D-01 WtEn= 2.85D-02
 Coeff-Com: -0.620D-01 0.829D-01 0.331D-01 0.946D+00
 Coeff-En:   0.000D+00 0.000D+00 0.000D+00 0.100D+01
 Coeff:     -0.602D-01 0.806D-01 0.322D-01 0.947D+00
 Gap=     0.221 Goal=   None    Shift=    0.000
 RMSDP=5.35D-04 MaxDP=5.87D-03 DE=-5.99D-03 OVMax= 2.96D-02

 Cycle   5  Pass 1  IDiag  1:
 E= -114.503428633125     Delta-E=       -0.000744881072 Rises=F Damp=F
 DIIS: error= 8.97D-04 at cycle   5 NSaved=   5.
 NSaved= 5 IEnMin= 5 EnMin= -114.503428633125     IErMin= 5 ErrMin= 8.97D-04
 ErrMax= 8.97D-04  0.00D+00 EMaxC= 1.00D-01 BMatC= 3.77D-05 BMatP= 3.65D-04
 IDIUse=3 WtCom= 9.91D-01 WtEn= 8.97D-03
 Coeff-Com: -0.152D-01 0.192D-01-0.750D-01 0.200D+00 0.871D+00
 Coeff-En:   0.000D+00 0.000D+00 0.000D+00 0.000D+00 0.100D+01
 Coeff:     -0.151D-01 0.191D-01-0.743D-01 0.198D+00 0.872D+00
 Gap=     0.223 Goal=   None    Shift=    0.000
 RMSDP=2.04D-04 MaxDP=2.24D-03 DE=-7.45D-04 OVMax= 1.12D-02

 Cycle   6  Pass 1  IDiag  1:
 E= -114.503518279636     Delta-E=       -0.000089646511 Rises=F Damp=F
 DIIS: error= 4.47D-04 at cycle   6 NSaved=   6.
 NSaved= 6 IEnMin= 6 EnMin= -114.503518279636     IErMin= 6 ErrMin= 4.47D-04
 ErrMax= 4.47D-04  0.00D+00 EMaxC= 1.00D-01 BMatC= 6.12D-06 BMatP= 3.77D-05
 IDIUse=3 WtCom= 9.96D-01 WtEn= 4.47D-03
 Coeff-Com:  0.323D-02-0.602D-02-0.264D-01-0.346D-01 0.293D+00 0.770D+00
 Coeff-En:   0.000D+00 0.000D+00 0.000D+00 0.000D+00 0.000D+00 0.100D+01
 Coeff:      0.321D-02-0.599D-02-0.263D-01-0.345D-01 0.292D+00 0.771D+00
 Gap=     0.222 Goal=   None    Shift=    0.000
 RMSDP=6.50D-05 MaxDP=7.92D-04 DE=-8.96D-05 OVMax= 3.43D-03

 Cycle   7  Pass 1  IDiag  1:
 E= -114.503528368945     Delta-E=       -0.000010089309 Rises=F Damp=F
 DIIS: error= 1.04D-04 at cycle   7 NSaved=   7.
 NSaved= 7 IEnMin= 7 EnMin= -114.503528368945     IErMin= 7 ErrMin= 1.04D-04
 ErrMax= 1.04D-04  0.00D+00 EMaxC= 1.00D-01 BMatC= 3.95D-07 BMatP= 6.12D-06
 IDIUse=3 WtCom= 9.99D-01 WtEn= 1.04D-03
 Coeff-Com: -0.158D-03 0.343D-03 0.404D-02-0.210D-01-0.414D-01 0.131D+00
 Coeff-Com:  0.928D+00
 Coeff-En:   0.000D+00 0.000D+00 0.000D+00 0.000D+00 0.000D+00 0.000D+00
 Coeff-En:   0.100D+01
 Coeff:     -0.158D-03 0.343D-03 0.403D-02-0.210D-01-0.414D-01 0.130D+00
 Coeff:      0.928D+00
 Gap=     0.222 Goal=   None    Shift=    0.000
 RMSDP=1.18D-05 MaxDP=1.46D-04 DE=-1.01D-05 OVMax= 5.92D-04

 Cycle   8  Pass 1  IDiag  1:
 E= -114.503528853773     Delta-E=       -0.000000484829 Rises=F Damp=F
 DIIS: error= 1.96D-05 at cycle   8 NSaved=   8.
 NSaved= 8 IEnMin= 8 EnMin= -114.503528853773     IErMin= 8 ErrMin= 1.96D-05
 ErrMax= 1.96D-05  0.00D+00 EMaxC= 1.00D-01 BMatC= 1.05D-08 BMatP= 3.95D-07
 IDIUse=1 WtCom= 1.00D+00 WtEn= 0.00D+00
 Coeff-Com:  0.873D-04-0.100D-03 0.575D-03 0.193D-03-0.971D-02-0.720D-02
 Coeff-Com:  0.122D+00 0.894D+00
 Coeff:      0.873D-04-0.100D-03 0.575D-03 0.193D-03-0.971D-02-0.720D-02
 Coeff:      0.122D+00 0.894D+00
 Gap=     0.222 Goal=   None    Shift=    0.000
 RMSDP=1.84D-06 MaxDP=1.55D-05 DE=-4.85D-07 OVMax= 4.62D-05

 Cycle   9  Pass 1  IDiag  1:
 E= -114.503528863202     Delta-E=       -0.000000009429 Rises=F Damp=F
 DIIS: error= 2.52D-06 at cycle   9 NSaved=   9.
 NSaved= 9 IEnMin= 9 EnMin= -114.503528863202     IErMin= 9 ErrMin= 2.52D-06
 ErrMax= 2.52D-06  0.00D+00 EMaxC= 1.00D-01 BMatC= 1.97D-10 BMatP= 1.05D-08
 IDIUse=1 WtCom= 1.00D+00 WtEn= 0.00D+00
 Coeff-Com: -0.185D-04 0.256D-04-0.279D-04 0.626D-03-0.761D-03-0.661D-02
 Coeff-Com:  0.874D-03 0.191D+00 0.815D+00
 Coeff:     -0.185D-04 0.256D-04-0.279D-04 0.626D-03-0.761D-03-0.661D-02
 Coeff:      0.874D-03 0.191D+00 0.815D+00
 Gap=     0.222 Goal=   None    Shift=    0.000
 RMSDP=2.37D-07 MaxDP=2.58D-06 DE=-9.43D-09 OVMax= 7.49D-06

 Cycle  10  Pass 1  IDiag  1:
 E= -114.503528863391     Delta-E=       -0.000000000189 Rises=F Damp=F
 DIIS: error= 1.52D-07 at cycle  10 NSaved=  10.
 NSaved=10 IEnMin=10 EnMin= -114.503528863391     IErMin=10 ErrMin= 1.52D-07
 ErrMax= 1.52D-07  0.00D+00 EMaxC= 1.00D-01 BMatC= 9.21D-13 BMatP= 1.97D-10
 IDIUse=1 WtCom= 1.00D+00 WtEn= 0.00D+00
 Coeff-Com:  0.163D-05-0.242D-05-0.127D-04 0.527D-04 0.167D-03-0.514D-03
 Coeff-Com: -0.283D-02-0.241D-02 0.236D-01 0.982D+00
 Coeff:      0.163D-05-0.242D-05-0.127D-04 0.527D-04 0.167D-03-0.514D-03
 Coeff:     -0.283D-02-0.241D-02 0.236D-01 0.982D+00
 Gap=     0.222 Goal=   None    Shift=    0.000
 RMSDP=2.30D-08 MaxDP=2.43D-07 DE=-1.89D-10 OVMax= 7.23D-07

 Cycle  11  Pass 1  IDiag  1:
 E= -114.503528863392     Delta-E=       -0.000000000001 Rises=F Damp=F
 DIIS: error= 8.50D-08 at cycle  11 NSaved=  11.
 NSaved=11 IEnMin=11 EnMin= -114.503528863392     IErMin=11 ErrMin= 8.50D-08
 ErrMax= 8.50D-08  0.00D+00 EMaxC= 1.00D-01 BMatC= 1.84D-13 BMatP= 9.21D-13
 IDIUse=1 WtCom= 1.00D+00 WtEn= 0.00D+00
 Coeff-Com: -0.277D-07 0.866D-08-0.519D-06 0.417D-05 0.972D-05-0.936D-06
 Coeff-Com: -0.123D-03-0.407D-02 0.219D-02 0.234D-01 0.979D+00
 Coeff:     -0.277D-07 0.866D-08-0.519D-06 0.417D-05 0.972D-05-0.936D-06
 Coeff:     -0.123D-03-0.407D-02 0.219D-02 0.234D-01 0.979D+00
 Gap=     0.222 Goal=   None    Shift=    0.000
 RMSDP=7.48D-09 MaxDP=6.36D-08 DE=-1.19D-12 OVMax= 1.35D-07

 SCF Done:  E(RB971) =  -114.503528863     A.U. after   11 cycles
            NFock= 11  Conv=0.75D-08     -V/T= 2.0030
 KE= 1.141608006084D+02 PE=-3.316731999564D+02 EE= 7.169366205501D+01
 Leave Link  502 at Sat Apr 25 21:00:43 2015, MaxMem=   524288000 cpu:        11.9
 (Enter /opt/g09/l801.exe)
 DoSCS=F DFT=T ScalE2(SS,OS)=  1.000000  1.000000
 Range of M.O.s used for correlation:     1    56
 NBasis=    56 NAE=     8 NBE=     8 NFC=     0 NFV=     0
 NROrb=     56 NOA=     8 NOB=     8 NVA=    48 NVB=    48
 Leave Link  801 at Sat Apr 25 21:00:43 2015, MaxMem=   524288000 cpu:         0.4
 (Enter /opt/g09/l1101.exe)
 Using compressed storage, NAtomX=     4.
 Will process      5 centers per pass.
 Leave Link 1101 at Sat Apr 25 21:00:44 2015, MaxMem=   524288000 cpu:         1.2
 (Enter /opt/g09/l1102.exe)
 Symmetrizing basis deriv contribution to polar:
 IMax=3 JMax=2 DiffMx= 0.00D+00
 Leave Link 1102 at Sat Apr 25 21:00:44 2015, MaxMem=   524288000 cpu:         0.3
 (Enter /opt/g09/l1110.exe)
 Forming Gx(P) for the SCF density, NAtomX=     4.
 Integral derivatives from FoFJK, PRISM(SPDF).
 Do as many integral derivatives as possible in FoFJK.
 G2DrvN: MDV=     524287864.
 G2DrvN: will do     5 centers at a time, making    1 passes.
 Calling FoFCou, ICntrl=  3107 FMM=F I1Cent=   0 AccDes= 0.00D+00.
 FoFJK:  IHMeth= 1 ICntrl=    3107 DoSepK=F KAlg= 0 I1Cent=   0 FoldK=F
 IRaf=         0 NMat=   1 IRICut=       1 DoRegI=T DoRafI=F ISym2E= 0.
 FoFCou: FMM=F IPFlag=           0 FMFlag=      100000 FMFlg1=           0
         NFxFlg=           0 DoJE=F BraDBF=F KetDBF=F FulRan=T
         wScrn=  0.000000 ICntrl=    3107 IOpCl=  0 I1Cent=           0 NGrid=           0
         NMat0=    1 NMatS0=      1 NMatT0=    0 NMatD0=    1 NMtDS0=    0 NMtDT0=    0
 Symmetry not used in FoFCou.
 End of G2Drv F.D. properties file   721 does not exist.
 End of G2Drv F.D. properties file   722 does not exist.
 End of G2Drv F.D. properties file   788 does not exist.
 Leave Link 1110 at Sat Apr 25 21:00:45 2015, MaxMem=   524288000 cpu:        11.5
 (Enter /opt/g09/l1002.exe)
 Minotr:  Closed shell wavefunction.
          IDoAtm=1111
          Direct CPHF calculation.
          Differentiating once with respect to electric field.
                with respect to dipole field.
          Differentiating once with respect to nuclear coordinates.
          Requested convergence is 1.0D-08 RMS, and 1.0D-07 maximum.
          Secondary convergence is 1.0D-12 RMS, and 1.0D-12 maximum.
          NewPWx=T KeepS1=F KeepF1=F KeepIn=T MapXYZ=F SortEE=F KeepMc=T.
          MDV=     524287900 using IRadAn=       1.
 Generate precomputed XC quadrature information.
 Keep R1 ints in memory in canonical form, NReq=2152698.
 FoFCou: FMM=F IPFlag=           0 FMFlag=           0 FMFlg1=           0
         NFxFlg=           0 DoJE=F BraDBF=F KetDBF=F FulRan=T
         wScrn=  0.000000 ICntrl=     600 IOpCl=  0 I1Cent=           0 NGrid=           0
         NMat0=    1 NMatS0=   1596 NMatT0=    0 NMatD0=    1 NMtDS0=    0 NMtDT0=    0
 Symmetry not used in FoFCou.
          Solving linear equations simultaneously, MaxMat=       0.
          There are    15 degrees of freedom in the 1st order CPHF.  IDoFFX=6 NUNeed=     3.
     12 vectors produced by pass  0 Test12= 2.56D-15 6.67D-09 XBig12= 1.78D+01 3.15D+00.
 AX will form    12 AO Fock derivatives at one time.
     12 vectors produced by pass  1 Test12= 2.56D-15 6.67D-09 XBig12= 6.72D+00 1.03D+00.
     12 vectors produced by pass  2 Test12= 2.56D-15 6.67D-09 XBig12= 3.46D-02 5.60D-02.
     12 vectors produced by pass  3 Test12= 2.56D-15 6.67D-09 XBig12= 1.07D-04 3.67D-03.
     12 vectors produced by pass  4 Test12= 2.56D-15 6.67D-09 XBig12= 2.38D-07 1.62D-04.
     10 vectors produced by pass  5 Test12= 2.56D-15 6.67D-09 XBig12= 4.25D-10 6.48D-06.
      1 vectors produced by pass  6 Test12= 2.56D-15 6.67D-09 XBig12= 6.93D-13 2.61D-07.
      1 vectors produced by pass  7 Test12= 2.56D-15 6.67D-09 XBig12= 7.90D-16 9.78D-09.
 InvSVY:  IOpt=1 It=  1 EMax= 6.66D-16
 Solved reduced A of dimension    72 with    12 vectors.
 FullF1:  Do perturbations    1 to     3.
 Isotropic polarizability for W=    0.000000       15.39 Bohr**3.
 End of Minotr F.D. properties file   721 does not exist.
 End of Minotr F.D. properties file   722 does not exist.
 End of Minotr F.D. properties file   788 does not exist.
 Leave Link 1002 at Sat Apr 25 21:00:47 2015, MaxMem=   524288000 cpu:        14.0
 (Enter /opt/g09/l701.exe)
 Compute integral second derivatives.
 ... and contract with generalized density number  0.
 Leave Link  701 at Sat Apr 25 21:00:47 2015, MaxMem=   524288000 cpu:         2.3
 (Enter /opt/g09/l702.exe)
 L702 exits ... SP integral derivatives will be done elsewhere.
 Leave Link  702 at Sat Apr 25 21:00:47 2015, MaxMem=   524288000 cpu:         0.2
 (Enter /opt/g09/l703.exe)
 Compute integral second derivatives, UseDBF=F ICtDFT=           0.
 Integral derivatives from FoFJK, PRISM(SPDF).
 Calling FoFJK, ICntrl=    100127 FMM=F ISym2X=0 I1Cent= 0 IOpClX= 0 NMat=1 NMatS=1 NMatT=0.
 FoFJK:  IHMeth= 1 ICntrl=  100127 DoSepK=F KAlg= 0 I1Cent=   0 FoldK=F
 IRaf=         0 NMat=   1 IRICut=       1 DoRegI=T DoRafI=F ISym2E= 0.
 FoFCou: FMM=F IPFlag=           0 FMFlag=      100000 FMFlg1=         800
         NFxFlg=           0 DoJE=F BraDBF=F KetDBF=F FulRan=T
         wScrn=  0.000000 ICntrl=  100127 IOpCl=  0 I1Cent=           0 NGrid=           0
         NMat0=    1 NMatS0=      1 NMatT0=    0 NMatD0=    1 NMtDS0=    0 NMtDT0=    0
 Symmetry not used in FoFCou.
 Leave Link  703 at Sat Apr 25 21:00:50 2015, MaxMem=   524288000 cpu:        20.3
 (Enter /opt/g09/l716.exe)
 Dipole        =-5.68434189D-13-9.67924300D-01-4.13273299D-16
 Polarizability= 1.55103902D+01-2.23970085D-11 2.15036375D+01
                -1.98228908D-08-6.37660872D-11 9.14483977D+00
 -------------------------------------------------------------------
 Center     Atomic                   Forces (Hartrees/Bohr)
 Number     Number              X              Y              Z
 -------------------------------------------------------------------
      1        8           0.000000000   -0.000008413    0.000000000
      2        6           0.000000000    0.000015067    0.000000000
      3        1           0.000001258   -0.000003327    0.000000000
      4        1          -0.000001258   -0.000003327    0.000000000
 -------------------------------------------------------------------
 Cartesian Forces:  Max     0.000015067 RMS     0.000005189
 Force constants in Cartesian coordinates: 
                1             2             3             4             5 
      1  0.722789D-01
      2  0.000000D+00  0.888620D+00
      3  0.000000D+00  0.000000D+00  0.186523D-01
      4 -0.103667D+00  0.000000D+00  0.000000D+00  0.571974D+00
      5  0.000000D+00 -0.803383D+00  0.000000D+00  0.000000D+00  0.993808D+00
      6  0.000000D+00  0.000000D+00 -0.567478D-01  0.000000D+00  0.000000D+00
      7  0.156942D-01 -0.172393D-01  0.000000D+00 -0.234153D+00 -0.764463D-01
      8 -0.363348D-01 -0.426187D-01  0.000000D+00 -0.801582D-01 -0.952126D-01
      9  0.000000D+00  0.000000D+00  0.190478D-01  0.000000D+00  0.000000D+00
     10  0.156942D-01  0.172393D-01  0.000000D+00 -0.234153D+00  0.764463D-01
     11  0.363348D-01 -0.426187D-01  0.000000D+00  0.801582D-01 -0.952126D-01
     12  0.000000D+00  0.000000D+00  0.190478D-01  0.000000D+00  0.000000D+00
                6             7             8             9            10 
      6  0.172690D+00
      7  0.000000D+00  0.237110D+00
      8  0.000000D+00  0.105089D+00  0.128526D+00
      9 -0.579713D-01  0.000000D+00  0.000000D+00  0.194661D-01
     10  0.000000D+00 -0.186505D-01  0.114037D-01  0.000000D+00  0.237110D+00
     11  0.000000D+00 -0.114037D-01  0.930514D-02  0.000000D+00 -0.105089D+00
     12 -0.579713D-01  0.000000D+00  0.000000D+00  0.194575D-01  0.000000D+00
               11            12 
     11  0.128526D+00
     12  0.000000D+00  0.194661D-01
 FormGI is forming the generalized inverse of G from B-inverse, IUseBI=4.
 Force constants in internal coordinates: 
                1             2             3             4             5 
      1  0.888620D+00
      2  0.372082D-01  0.301071D+00
      3  0.372082D-01  0.577401D-02  0.301071D+00
      4  0.188807D-01  0.257245D-02 -0.109364D-01  0.114455D+00
      5  0.188807D-01 -0.109364D-01  0.257245D-02 -0.720419D-01  0.114455D+00
      6 -0.377614D-01  0.836398D-02  0.836398D-02 -0.424136D-01 -0.424136D-01
      7  0.000000D+00  0.000000D+00  0.000000D+00  0.000000D+00  0.000000D+00
                6             7 
      6  0.848271D-01
      7  0.000000D+00  0.691997D-01
 Leave Link  716 at Sat Apr 25 21:00:50 2015, MaxMem=   524288000 cpu:         0.3
 (Enter /opt/g09/l103.exe)

 GradGradGradGradGradGradGradGradGradGradGradGradGradGradGradGradGradGrad
 Berny optimization.
 Red2BG is reusing G-inverse.
 Internal  Forces:  Max     0.000008413 RMS     0.000003918
 Search for a local minimum.
 Step number   1 out of a maximum of   20
 All quantities printed in internal units (Hartrees-Bohrs-Radians)
 RMS Force = .39177D-05 SwitMx=.10000D-02 MixMth= 2
 Mixed Optimization -- En-DIIS/RFO-DIIS
 Second derivative matrix not updated -- analytic derivatives used.
 The second derivative matrix:
                          R1        R2        R3        A1        A2
           R1           0.88862
           R2           0.03721   0.30107
           R3           0.03721   0.00577   0.30107
           A1           0.01888   0.00257  -0.01094   0.11446
           A2           0.01888  -0.01094   0.00257  -0.07204   0.11446
           A3          -0.03776   0.00836   0.00836  -0.04241  -0.04241
           D1           0.00000   0.00000   0.00000   0.00000   0.00000
                          A3        D1
           A3           0.08483
           D1           0.00000   0.06920
 ITU=  0
     Eigenvalues ---    0.06920   0.12272   0.18485   0.29695   0.30404
     Eigenvalues ---    0.89595
 RFO step:  Lambda= 0.00000000D+00 EMin= 6.91997127D-02
 Linear search not attempted -- first point.
 Iteration  1 RMS(Cart)=  0.00001696 RMS(Int)=  0.00000000
 Iteration  2 RMS(Cart)=  0.00000000 RMS(Int)=  0.00000000
 ITry= 1 IFail=0 DXMaxC= 2.37D-05 DCOld= 1.00D+10 DXMaxT= 3.00D-01 DXLimC= 3.00D+00 Rises=F
 Variable       Old X    -DE/DX   Delta X   Delta X   Delta X     New X
                                 (Linear)    (Quad)   (Total)
    R1        2.27185  -0.00001   0.00000  -0.00001  -0.00001   2.27183
    R2        2.09771   0.00000   0.00000   0.00001   0.00001   2.09772
    R3        2.09771   0.00000   0.00000   0.00001   0.00001   2.09772
    A1        2.12945   0.00000   0.00000   0.00002   0.00002   2.12947
    A2        2.12945   0.00000   0.00000   0.00002   0.00002   2.12947
    A3        2.02429   0.00000   0.00000  -0.00004  -0.00004   2.02425
    D1        3.14159   0.00000   0.00000   0.00000   0.00000   3.14159
         Item               Value     Threshold  Converged?
 Maximum Force            0.000008     0.000015     YES
 RMS     Force            0.000004     0.000010     YES
 Maximum Displacement     0.000024     0.000060     YES
 RMS     Displacement     0.000017     0.000040     YES
 Predicted change in Energy=-2.138145D-10
 Optimization completed.
    -- Stationary point found.
                           ----------------------------
                           !   Optimized Parameters   !
                           ! (Angstroms and Degrees)  !
 --------------------------                            --------------------------
 ! Name  Definition              Value          Derivative Info.                !
 --------------------------------------------------------------------------------
 ! R1    R(1,2)                  1.2022         -DE/DX =    0.0                 !
 ! R2    R(2,3)                  1.1101         -DE/DX =    0.0                 !
 ! R3    R(2,4)                  1.1101         -DE/DX =    0.0                 !
 ! A1    A(1,2,3)              122.0083         -DE/DX =    0.0                 !
 ! A2    A(1,2,4)              122.0083         -DE/DX =    0.0                 !
 ! A3    A(3,2,4)              115.9833         -DE/DX =    0.0                 !
 ! D1    D(1,2,4,3)            180.0            -DE/DX =    0.0                 !
 --------------------------------------------------------------------------------
 Lowest energy point so far.  Saving SCF results.
 GradGradGradGradGradGradGradGradGradGradGradGradGradGradGradGradGradGrad

 Largest change from initial coordinates is atom    0       0.000 Angstoms.
 Leave Link  103 at Sat Apr 25 21:00:50 2015, MaxMem=   524288000 cpu:         0.1
 (Enter /opt/g09/l202.exe)
                          Input orientation:                          
 ---------------------------------------------------------------------
 Center     Atomic      Atomic             Coordinates (Angstroms)
 Number     Number       Type             X           Y           Z
 ---------------------------------------------------------------------
      1          8           0       17.000000   30.011620    0.000000
      2          6           0       17.000000   28.809410    0.000000
      3          1           0       16.058700   28.221030    0.000000
      4          1           0       17.941300   28.221030    0.000000
 ---------------------------------------------------------------------
                    Distance matrix (angstroms):
                    1          2          3          4
     1  O    0.000000
     2  C    1.202210   0.000000
     3  H    2.022933   1.110062   0.000000
     4  H    2.022933   1.110062   1.882600   0.000000
 Symmetry turned off by external request.
 Stoichiometry    CH2O
 Framework group  C2V[C2(CO),SGV(H2)]
 Deg. of freedom     3
 Full point group                 C2V     NOp   4
 Rotational constants (GHZ):    282.9736130     38.9735927     34.2556113
 Leave Link  202 at Sat Apr 25 21:00:50 2015, MaxMem=   524288000 cpu:         0.0
 (Enter /opt/g09/l716.exe)
 Dipole        =-5.68434189D-13-9.67924300D-01-4.13273299D-16
 Polarizability= 1.55103902D+01-2.23970085D-11 2.15036375D+01
                -1.98228908D-08-6.37660872D-11 9.14483977D+00
 Full mass-weighted force constant matrix:
 Low frequencies ---   -0.0015   -0.0012   -0.0001    5.3589    8.5918   15.0102
 Low frequencies --- 1196.5004 1257.8165 1529.4083
 Diagonal vibrational polarizability:
        0.5697418       1.3119525       0.0974455
 Harmonic frequencies (cm**-1), IR intensities (KM/Mole), Raman scattering
 activities (A**4/AMU), depolarization ratios for plane and unpolarized
 incident light, reduced masses (AMU), force constants (mDyne/A),
 and normal coordinates:
                      1                      2                      3
                      A                      A                      A
 Frequencies --   1196.5004              1257.8165              1529.4083
 Red. masses --      1.3684                 1.3449                 1.0994
 Frc consts  --      1.1542                 1.2537                 1.5152
 IR Inten    --      5.1839                 9.3715                 8.2622
  Atom  AN      X      Y      Z        X      Y      Z        X      Y      Z
     1   8     0.00   0.00   0.04     0.08   0.00   0.00     0.00   0.08   0.00
     2   6     0.00   0.00  -0.17    -0.15   0.00   0.00     0.00   0.00   0.00
     3   1     0.00   0.00   0.70     0.25  -0.65   0.00     0.35  -0.61   0.00
     4   1     0.00   0.00   0.70     0.25   0.65   0.00    -0.35  -0.61   0.00
                      4                      5                      6
                      A                      A                      A
 Frequencies --   1825.4412              2881.8221              2941.1794
 Red. masses --      7.7081                 1.0441                 1.1204
 Frc consts  --     15.1333                 5.1090                 5.7103
 IR Inten    --    122.6503                69.8586               131.9011
  Atom  AN      X      Y      Z        X      Y      Z        X      Y      Z
     1   8     0.00   0.43   0.00     0.00   0.00   0.00     0.00   0.00   0.00
     2   6     0.00  -0.60   0.00     0.00  -0.06   0.00     0.10   0.00   0.00
     3   1    -0.44   0.19   0.00     0.61   0.35   0.00    -0.60  -0.37   0.00
     4   1     0.44   0.19   0.00    -0.61   0.35   0.00    -0.60   0.37   0.00

 -------------------
 - Thermochemistry -
 -------------------
 Temperature   298.150 Kelvin.  Pressure   1.00000 Atm.
 Atom     1 has atomic number  8 and mass  15.99491
 Atom     2 has atomic number  6 and mass  12.00000
 Atom     3 has atomic number  1 and mass   1.00783
 Atom     4 has atomic number  1 and mass   1.00783
 Molecular mass:    30.01056 amu.
 Principal axes and moments of inertia in atomic units:
                           1         2         3
     Eigenvalues --     6.37777  46.30677  52.68454
           X            0.00000   1.00000   0.00000
           Y            1.00000   0.00000   0.00000
           Z            0.00000   0.00000   1.00000
 This molecule is an asymmetric top.
 Rotational symmetry number  2.
 Rotational temperatures (Kelvin)     13.58058     1.87044     1.64401
 Rotational constants (GHZ):         282.97361    38.97359    34.25561
 Zero-point vibrational energy      69575.8 (Joules/Mol)
                                   16.62902 (Kcal/Mol)
 Vibrational temperatures:   1721.50  1809.72  2200.47  2626.40  4146.29
          (Kelvin)           4231.70
 
 Zero-point correction=                           0.026500 (Hartree/Particle)
 Thermal correction to Energy=                    0.029368
 Thermal correction to Enthalpy=                  0.030313
 Thermal correction to Gibbs Free Energy=         0.005494
 Sum of electronic and zero-point Energies=           -114.477029
 Sum of electronic and thermal Energies=              -114.474160
 Sum of electronic and thermal Enthalpies=            -114.473216
 Sum of electronic and thermal Free Energies=         -114.498034
 
                     E (Thermal)             CV                S
                      KCal/Mol        Cal/Mol-Kelvin    Cal/Mol-Kelvin
 Total                   18.429              6.430             52.234
 Electronic               0.000              0.000              0.000
 Translational            0.889              2.981             36.130
 Rotational               0.889              2.981             16.016
 Vibrational             16.652              0.468              0.088
                       Q            Log10(Q)             Ln(Q)
 Total Bot       0.296984D-02         -2.527267         -5.819246
 Total V=0       0.459065D+10          9.661874         22.247288
 Vib (Bot)       0.650957D-12        -12.186448        -28.060333
 Vib (V=0)       0.100622D+01          0.002693          0.006201
 Electronic      0.100000D+01          0.000000          0.000000
 Translational   0.646199D+07          6.810366         15.681448
 Rotational      0.706016D+03          2.848815          6.559638
 
                    W:\Data\additional_hydrocarbons\nist\enthalpy_estimation\succ
 ess\fine\0_0corr_b971_50-00-0.g09
                                                             IR Spectrum
 
     2  2                                             1           1           1  1                                                   
     9  8                                             8           5           2  1                                                   
     4  8                                             2           2           5  9                                                   
     1  2                                             5           9           8  7                                                   
 
     X  X                                             X           X           X  X                                                   
     X  X                                             X                                                                              
     X  X                                             X                                                                              
     X  X                                             X                                                                              
     X  X                                             X                                                                              
     X  X                                             X                                                                              
     X  X                                             X                                                                              
     X  X                                             X                                                                              
     X  X                                             X                                                                              
     X  X                                             X                                                                              
     X  X                                             X                                                                              
     X                                                X                                                                              
     X                                                X                                                                              
     X                                                X                                                                              
     X                                                X                                                                              
     X                                                X                                                                              
     X                                                X                                                                              
     X                                                X                                                                              
     X                                                X                                                                              
     X                                                                                                                               
 
 -------------------------------------------------------------------
 Center     Atomic                   Forces (Hartrees/Bohr)
 Number     Number              X              Y              Z
 -------------------------------------------------------------------
      1        8           0.000000000   -0.000008413    0.000000000
      2        6           0.000000000    0.000015067    0.000000000
      3        1           0.000001258   -0.000003327    0.000000000
      4        1          -0.000001258   -0.000003327    0.000000000
 -------------------------------------------------------------------
 Cartesian Forces:  Max     0.000015067 RMS     0.000005189
 Force constants in Cartesian coordinates: 
                1             2             3             4             5 
      1  0.722789D-01
      2  0.000000D+00  0.888620D+00
      3  0.000000D+00  0.000000D+00  0.186523D-01
      4 -0.103667D+00  0.000000D+00  0.000000D+00  0.571974D+00
      5  0.000000D+00 -0.803383D+00  0.000000D+00  0.000000D+00  0.993808D+00
      6  0.000000D+00  0.000000D+00 -0.567478D-01  0.000000D+00  0.000000D+00
      7  0.156942D-01 -0.172393D-01  0.000000D+00 -0.234153D+00 -0.764463D-01
      8 -0.363348D-01 -0.426187D-01  0.000000D+00 -0.801582D-01 -0.952126D-01
      9  0.000000D+00  0.000000D+00  0.190478D-01  0.000000D+00  0.000000D+00
     10  0.156942D-01  0.172393D-01  0.000000D+00 -0.234153D+00  0.764463D-01
     11  0.363348D-01 -0.426187D-01  0.000000D+00  0.801582D-01 -0.952126D-01
     12  0.000000D+00  0.000000D+00  0.190478D-01  0.000000D+00  0.000000D+00
                6             7             8             9            10 
      6  0.172690D+00
      7  0.000000D+00  0.237110D+00
      8  0.000000D+00  0.105089D+00  0.128526D+00
      9 -0.579713D-01  0.000000D+00  0.000000D+00  0.194661D-01
     10  0.000000D+00 -0.186505D-01  0.114037D-01  0.000000D+00  0.237110D+00
     11  0.000000D+00 -0.114037D-01  0.930514D-02  0.000000D+00 -0.105089D+00
     12 -0.579713D-01  0.000000D+00  0.000000D+00  0.194575D-01  0.000000D+00
               11            12 
     11  0.128526D+00
     12  0.000000D+00  0.194661D-01
 Red2BG is reusing G-inverse.
 Force constants in internal coordinates: 
                1             2             3             4             5 
      1  0.888620D+00
      2  0.372082D-01  0.301071D+00
      3  0.372082D-01  0.577401D-02  0.301071D+00
      4  0.188807D-01  0.257245D-02 -0.109364D-01  0.114455D+00
      5  0.188807D-01 -0.109364D-01  0.257245D-02 -0.720419D-01  0.114455D+00
      6 -0.377614D-01  0.836398D-02  0.836398D-02 -0.424136D-01 -0.424136D-01
      7  0.000000D+00  0.000000D+00  0.000000D+00  0.000000D+00  0.000000D+00
                6             7 
      6  0.848271D-01
      7  0.000000D+00  0.691997D-01
 Leave Link  716 at Sat Apr 25 21:00:50 2015, MaxMem=   524288000 cpu:         1.4
 (Enter /opt/g09/l9999.exe)
 1\1\GINC-PICASSO\Freq\RB971\6-311+G(d,p)\C1H2O1\PB556\25-Apr-2015\0\\#
 p rB971/6-311+G(d,p) Opt=(Tight, CalcAll) Freq GFInput Population=None
  Integral(Grid=UltraFine) Guess=MIX NoSymmetry\\W:\Data\additional_hyd
 rocarbons\nist\enthalpy_estimation\success\fine\0_0corr_b971_50-00-0.g
 09\\0,1\O,17.,30.01162,0.\C,17.,28.80941,0.\H,16.0587,28.22103,0.\H,17
 .9413,28.22103,0.\\Version=ES64L-G09RevD.01\HF=-114.5035289\RMSD=7.476
 e-09\RMSF=5.189e-06\ZeroPoint=0.0265\Thermal=0.0293685\Dipole=0.,-0.96
 79243,0.\DipoleDeriv=-0.444166,0.,0.,0.,-0.9770859,0.,0.,0.,-0.3369208
 ,0.8230714,0.,0.,0.,1.1034836,0.,0.,0.,0.1547956,-0.1894527,-0.1362829
 ,0.,-0.1069288,-0.0631988,0.,0.,0.,0.0910626,-0.1894527,0.1362829,0.,0
 .1069288,-0.0631988,0.,0.,0.,0.0910626\Polar=15.5103902,0.,21.5036375,
 0.,0.,9.1448398\PG=C02V [C2(C1O1),SGV(H2)]\NImag=0\\0.07227889,0.,0.88
 862023,0.,0.,0.01865230,-0.10366721,0.,0.,0.57197405,0.,-0.80338275,0.
 ,0.,0.99380786,0.,0.,-0.05674782,0.,0.,0.17269047,0.01569416,-0.017239
 33,0.,-0.23415342,-0.07644630,0.,0.23710980,-0.03633477,-0.04261874,0.
 ,-0.08015823,-0.09521255,0.,0.10508931,0.12852615,0.,0.,0.01904776,0.,
 0.,-0.05797133,0.,0.,0.01946608,0.01569416,0.01723933,0.,-0.23415342,0
 .07644630,0.,-0.01865054,0.01140369,0.,0.23710980,0.03633477,-0.042618
 74,0.,0.08015823,-0.09521255,0.,-0.01140369,0.00930514,0.,-0.10508931,
 0.12852615,0.,0.,0.01904776,0.,0.,-0.05797133,0.,0.,0.01945749,0.,0.,0
 .01946608\\0.,0.00000841,0.,0.,-0.00001507,0.,-0.00000126,0.00000333,0
 .,0.00000126,0.00000333,0.\\\@


 ALTHOUGH J.J. COULD DIAGNOSE THE FAULTS OF AN
 APPARATUS WITH UNCANNY ACCURACY, IT WAS JUST AS
 WELL NOT TO LET HIM HANDLE IT.
   -- GEORGE THOMPSON, ABOUT HIS FATHER
 Leave Link 9999 at Sat Apr 25 21:00:50 2015, MaxMem=   524288000 cpu:         0.3
 Job cpu time:       0 days  0 hours  1 minutes 14.3 seconds.
 File lengths (MBytes):  RWF=      5 Int=      0 D2E=      0 Chk=      1 Scr=      1
 Normal termination of Gaussian 09 at Sat Apr 25 21:00:50 2015.
 (Enter /opt/g09/l1.exe)
 Link1:  Proceeding to internal job step number  2.
 ----------------------------------------------------------------------
 #P Geom=AllCheck Guess=TCheck SCRF=Check GenChk RB971/6-311+G(d,p) Fre
 q
 ----------------------------------------------------------------------
 1/7=10,10=4,29=7,30=1,38=1,40=1/1,3;
 2/12=2,15=1,40=1/2;
 3/5=4,6=6,7=111,11=2,14=-4,16=1,24=10,25=1,30=1,70=2,71=2,74=-20,75=-5,116=1,140=1/1,2,3;
 4/5=101/1;
 5/5=2,98=1/2;
 8/6=4,10=90,11=11/1;
 11/6=1,8=1,9=11,15=111,16=1,31=1/1,2,10;
 10/6=1,31=1/2;
 7/8=1,10=1,25=1,30=1/1,2,3,16;
 1/7=10,10=4,30=1/3;
 99//99;
 Leave Link    1 at Sat Apr 25 21:00:51 2015, MaxMem=   524288000 cpu:         0.4
 (Enter /opt/g09/l101.exe)
 Structure from the checkpoint file:  "/scratch/pb556/g09_run/add_hco//Gau-20269.chk"
 ----------------------------------------------------------------------
 W:\Data\additional_hydrocarbons\nist\enthalpy_estimation\success\fine\
 0_0corr_b971_50-00-0.g09
 ----------------------------------------------------------------------
 Charge =  0 Multiplicity = 1
 Redundant internal coordinates found in file.
 O,0,17.,30.01162,0.
 C,0,17.,28.80941,0.
 H,0,16.0587,28.22103,0.
 H,0,17.9413,28.22103,0.
 Recover connectivity data from disk.
 NAtoms=      4 NQM=        4 NQMF=       0 NMMI=      0 NMMIF=      0
                NMic=       0 NMicF=      0.
                    Isotopes and Nuclear Properties:
 (Nuclear quadrupole moments (NQMom) in fm**2, nuclear magnetic moments (NMagM)
  in nuclear magnetons)

  Atom         1           2           3           4
 IAtWgt=          16          12           1           1
 AtmWgt=  15.9949146  12.0000000   1.0078250   1.0078250
 NucSpn=           0           0           1           1
 AtZEff=  -5.6000000  -3.6000000  -1.0000000  -1.0000000
 NQMom=    0.0000000   0.0000000   0.0000000   0.0000000
 NMagM=    0.0000000   0.0000000   2.7928460   2.7928460
 AtZNuc=   8.0000000   6.0000000   1.0000000   1.0000000
 Leave Link  101 at Sat Apr 25 21:00:51 2015, MaxMem=   524288000 cpu:         1.8
 (Enter /opt/g09/l103.exe)

 GradGradGradGradGradGradGradGradGradGradGradGradGradGradGradGradGradGrad
 Berny optimization.
 Initialization pass.
                           ----------------------------
                           !    Initial Parameters    !
                           ! (Angstroms and Degrees)  !
 --------------------------                            --------------------------
 ! Name  Definition              Value          Derivative Info.                !
 --------------------------------------------------------------------------------
 ! R1    R(1,2)                  1.2022         calculate D2E/DX2 analytically  !
 ! R2    R(2,3)                  1.1101         calculate D2E/DX2 analytically  !
 ! R3    R(2,4)                  1.1101         calculate D2E/DX2 analytically  !
 ! A1    A(1,2,3)              122.0083         calculate D2E/DX2 analytically  !
 ! A2    A(1,2,4)              122.0083         calculate D2E/DX2 analytically  !
 ! A3    A(3,2,4)              115.9833         calculate D2E/DX2 analytically  !
 ! D1    D(1,2,4,3)            180.0            calculate D2E/DX2 analytically  !
 --------------------------------------------------------------------------------
 Trust Radius=3.00D-01 FncErr=1.00D-07 GrdErr=1.00D-07
 Number of steps in this run=      2 maximum allowed number of steps=      2.
 GradGradGradGradGradGradGradGradGradGradGradGradGradGradGradGradGradGrad

 Leave Link  103 at Sat Apr 25 21:00:51 2015, MaxMem=   524288000 cpu:         0.1
 (Enter /opt/g09/l202.exe)
                          Input orientation:                          
 ---------------------------------------------------------------------
 Center     Atomic      Atomic             Coordinates (Angstroms)
 Number     Number       Type             X           Y           Z
 ---------------------------------------------------------------------
      1          8           0       17.000000   30.011620    0.000000
      2          6           0       17.000000   28.809410    0.000000
      3          1           0       16.058700   28.221030    0.000000
      4          1           0       17.941300   28.221030    0.000000
 ---------------------------------------------------------------------
                    Distance matrix (angstroms):
                    1          2          3          4
     1  O    0.000000
     2  C    1.202210   0.000000
     3  H    2.022933   1.110062   0.000000
     4  H    2.022933   1.110062   1.882600   0.000000
 Symmetry turned off by external request.
 Stoichiometry    CH2O
 Framework group  C2V[C2(CO),SGV(H2)]
 Deg. of freedom     3
 Full point group                 C2V     NOp   4
 Rotational constants (GHZ):    282.9736130     38.9735927     34.2556113
 Leave Link  202 at Sat Apr 25 21:00:51 2015, MaxMem=   524288000 cpu:         0.1
 (Enter /opt/g09/l301.exe)
 Standard basis: 6-311+G(d,p) (5D, 7F)
 Ernie: Thresh=  0.10000D-02 Tol=  0.10000D-05 Strict=F.
 AO basis set in the form of general basis input (Overlap normalization):
      1 0
 S   6 1.00       0.000000000000
      0.8588500000D+04  0.1895150083D-02
      0.1297230000D+04  0.1438590063D-01
      0.2992960000D+03  0.7073200310D-01
      0.8737710000D+02  0.2400010105D+00
      0.2567890000D+02  0.5947970261D+00
      0.3740040000D+01  0.2808020123D+00
 SP   3 1.00       0.000000000000
      0.4211750000D+02  0.1138890124D+00  0.3651139738D-01
      0.9628370000D+01  0.9208111006D+00  0.2371529830D+00
      0.2853320000D+01 -0.3274470358D-02  0.8197019412D+00
 SP   1 1.00       0.000000000000
      0.9056610000D+00  0.1000000000D+01  0.1000000000D+01
 SP   1 1.00       0.000000000000
      0.2556110000D+00  0.1000000000D+01  0.1000000000D+01
 SP   1 1.00       0.000000000000
      0.8450000000D-01  0.1000000000D+01  0.1000000000D+01
 D   1 1.00       0.000000000000
      0.1292000000D+01  0.1000000000D+01
 ****
      2 0
 S   6 1.00       0.000000000000
      0.4563240000D+04  0.1966650249D-02
      0.6820240000D+03  0.1523060193D-01
      0.1549730000D+03  0.7612690966D-01
      0.4445530000D+02  0.2608010331D+00
      0.1302900000D+02  0.6164620782D+00
      0.1827730000D+01  0.2210060280D+00
 SP   3 1.00       0.000000000000
      0.2096420000D+02  0.1146600807D+00  0.4024869267D-01
      0.4803310000D+01  0.9199996477D+00  0.2375939567D+00
      0.1459330000D+01 -0.3030682134D-02  0.8158538515D+00
 SP   1 1.00       0.000000000000
      0.4834560000D+00  0.1000000000D+01  0.1000000000D+01
 SP   1 1.00       0.000000000000
      0.1455850000D+00  0.1000000000D+01  0.1000000000D+01
 SP   1 1.00       0.000000000000
      0.4380000000D-01  0.1000000000D+01  0.1000000000D+01
 D   1 1.00       0.000000000000
      0.6260000000D+00  0.1000000000D+01
 ****
      3 0
 S   3 1.00       0.000000000000
      0.3386500000D+02  0.2549381454D-01
      0.5094790000D+01  0.1903731086D+00
      0.1158790000D+01  0.8521614860D+00
 S   1 1.00       0.000000000000
      0.3258400000D+00  0.1000000000D+01
 S   1 1.00       0.000000000000
      0.1027410000D+00  0.1000000000D+01
 P   1 1.00       0.000000000000
      0.7500000000D+00  0.1000000000D+01
 ****
      4 0
 S   3 1.00       0.000000000000
      0.3386500000D+02  0.2549381454D-01
      0.5094790000D+01  0.1903731086D+00
      0.1158790000D+01  0.8521614860D+00
 S   1 1.00       0.000000000000
      0.3258400000D+00  0.1000000000D+01
 S   1 1.00       0.000000000000
      0.1027410000D+00  0.1000000000D+01
 P   1 1.00       0.000000000000
      0.7500000000D+00  0.1000000000D+01
 ****

    56 basis functions,    88 primitive gaussians,    58 cartesian basis functions
     8 alpha electrons        8 beta electrons
       nuclear repulsion energy        31.3152084295 Hartrees.
 IExCor= 1614 DFT=T Ex+Corr=B971 ExCW=0 ScaHFX=  0.210000
 ScaDFX=  1.000000  1.000000  1.000000  1.000000 ScalE2=  1.000000  1.000000
 IRadAn=      5 IRanWt=     -1 IRanGd=            0 ICorTp=0 IEmpDi=  4
 NAtoms=    4 NActive=    4 NUniq=    4 SFac= 1.00D+00 NAtFMM=   60 NAOKFM=F Big=F
 Integral buffers will be    131072 words long.
 Raffenetti 2 integral format.
 Two-electron integral symmetry is turned off.
 Leave Link  301 at Sat Apr 25 21:00:51 2015, MaxMem=   524288000 cpu:         0.4
 (Enter /opt/g09/l302.exe)
 NPDir=0 NMtPBC=     1 NCelOv=     1 NCel=       1 NClECP=     1 NCelD=      1
         NCelK=      1 NCelE2=     1 NClLst=     1 CellRange=     0.0.
 One-electron integrals computed using PRISM.
 NBasis=    56 RedAO= T EigKep=  3.97D-03  NBF=    56
 NBsUse=    56 1.00D-06 EigRej= -1.00D+00 NBFU=    56
 Precomputing XC quadrature grid using
 IXCGrd= 4 IRadAn=           5 IRanWt=          -1 IRanGd=           0 AccXCQ= 0.00D+00.
 Generated NRdTot=       0 NPtTot=           0 NUsed=           0 NTot=          32
 NSgBfM=    58    58    58    58    58 MxSgAt=     4 MxSgA2=     4.
 Leave Link  302 at Sat Apr 25 21:00:51 2015, MaxMem=   524288000 cpu:         1.3
 (Enter /opt/g09/l303.exe)
 DipDrv:  MaxL=1.
 Leave Link  303 at Sat Apr 25 21:00:51 2015, MaxMem=   524288000 cpu:         0.3
 (Enter /opt/g09/l401.exe)
 Initial guess from the checkpoint file:  "/scratch/pb556/g09_run/add_hco//Gau-20269.chk"
 B after Tr=     0.000000    0.000000    0.000000
         Rot=    1.000000    0.000000    0.000000    0.000000 Ang=   0.00 deg.
 Guess basis will be translated and rotated to current coordinates.
 JPrj=2 DoOrth=T DoCkMO=T.
 Leave Link  401 at Sat Apr 25 21:00:51 2015, MaxMem=   524288000 cpu:         0.8
 (Enter /opt/g09/l502.exe)
 Closed shell SCF:
 Using DIIS extrapolation, IDIIS=  1040.
 Two-electron integral symmetry not used.
 Keep R1 ints in memory in canonical form, NReq=2183610.
 IVT=       29462 IEndB=       29462 NGot=   524288000 MDV=   522984133
 LenX=   522984133 LenY=   522980328
 Requested convergence on RMS density matrix=1.00D-08 within 128 cycles.
 Requested convergence on MAX density matrix=1.00D-06.
 Requested convergence on             energy=1.00D-06.
 No special actions if energy rises.
 FoFCou: FMM=F IPFlag=           0 FMFlag=           0 FMFlg1=           0
         NFxFlg=           0 DoJE=F BraDBF=F KetDBF=F FulRan=T
         wScrn=  0.000000 ICntrl=     600 IOpCl=  0 I1Cent=           0 NGrid=           0
         NMat0=    1 NMatS0=   1596 NMatT0=    0 NMatD0=    1 NMtDS0=    0 NMtDT0=    0
 Symmetry not used in FoFCou.

 Cycle   1  Pass 1  IDiag  1:
 E= -114.503528863392    
 DIIS: error= 1.94D-09 at cycle   1 NSaved=   1.
 NSaved= 1 IEnMin= 1 EnMin= -114.503528863392     IErMin= 1 ErrMin= 1.94D-09
 ErrMax= 1.94D-09  0.00D+00 EMaxC= 1.00D-01 BMatC= 9.16D-17 BMatP= 9.16D-17
 IDIUse=1 WtCom= 1.00D+00 WtEn= 0.00D+00
 Coeff-Com:  0.100D+01
 Coeff:      0.100D+01
 Gap=     0.222 Goal=   None    Shift=    0.000
 RMSDP=3.11D-10 MaxDP=3.43D-09              OVMax= 5.30D-09

 SCF Done:  E(RB971) =  -114.503528863     A.U. after    1 cycles
            NFock=  1  Conv=0.31D-09     -V/T= 2.0030
 KE= 1.141608005507D+02 PE=-3.316731983437D+02 EE= 7.169366050007D+01
 Leave Link  502 at Sat Apr 25 21:00:52 2015, MaxMem=   524288000 cpu:         2.1
 (Enter /opt/g09/l801.exe)
 DoSCS=F DFT=T ScalE2(SS,OS)=  1.000000  1.000000
 Range of M.O.s used for correlation:     1    56
 NBasis=    56 NAE=     8 NBE=     8 NFC=     0 NFV=     0
 NROrb=     56 NOA=     8 NOB=     8 NVA=    48 NVB=    48
 Leave Link  801 at Sat Apr 25 21:00:52 2015, MaxMem=   524288000 cpu:         0.3
 (Enter /opt/g09/l1101.exe)
 Using compressed storage, NAtomX=     4.
 Will process      5 centers per pass.
 Leave Link 1101 at Sat Apr 25 21:00:52 2015, MaxMem=   524288000 cpu:         1.3
 (Enter /opt/g09/l1102.exe)
 Symmetrizing basis deriv contribution to polar:
 IMax=3 JMax=2 DiffMx= 0.00D+00
 Leave Link 1102 at Sat Apr 25 21:00:52 2015, MaxMem=   524288000 cpu:         0.3
 (Enter /opt/g09/l1110.exe)
 Forming Gx(P) for the SCF density, NAtomX=     4.
 Integral derivatives from FoFJK, PRISM(SPDF).
 Do as many integral derivatives as possible in FoFJK.
 G2DrvN: MDV=     524287864.
 G2DrvN: will do     5 centers at a time, making    1 passes.
 Calling FoFCou, ICntrl=  3107 FMM=F I1Cent=   0 AccDes= 0.00D+00.
 FoFJK:  IHMeth= 1 ICntrl=    3107 DoSepK=F KAlg= 0 I1Cent=   0 FoldK=F
 IRaf=         0 NMat=   1 IRICut=       1 DoRegI=T DoRafI=F ISym2E= 0.
 FoFCou: FMM=F IPFlag=           0 FMFlag=      100000 FMFlg1=           0
         NFxFlg=           0 DoJE=F BraDBF=F KetDBF=F FulRan=T
         wScrn=  0.000000 ICntrl=    3107 IOpCl=  0 I1Cent=           0 NGrid=           0
         NMat0=    1 NMatS0=      1 NMatT0=    0 NMatD0=    1 NMtDS0=    0 NMtDT0=    0
 Symmetry not used in FoFCou.
 End of G2Drv F.D. properties file   721 does not exist.
 End of G2Drv F.D. properties file   722 does not exist.
 End of G2Drv F.D. properties file   788 does not exist.
 Leave Link 1110 at Sat Apr 25 21:00:53 2015, MaxMem=   524288000 cpu:        11.5
 (Enter /opt/g09/l1002.exe)
 Minotr:  Closed shell wavefunction.
          IDoAtm=1111
          Direct CPHF calculation.
          Differentiating once with respect to electric field.
                with respect to dipole field.
          Differentiating once with respect to nuclear coordinates.
          Requested convergence is 1.0D-08 RMS, and 1.0D-07 maximum.
          Secondary convergence is 1.0D-12 RMS, and 1.0D-12 maximum.
          NewPWx=T KeepS1=F KeepF1=F KeepIn=T MapXYZ=F SortEE=F KeepMc=T.
          MDV=     524287900 using IRadAn=       1.
 Generate precomputed XC quadrature information.
 Keep R1 ints in memory in canonical form, NReq=2152698.
 FoFCou: FMM=F IPFlag=           0 FMFlag=           0 FMFlg1=           0
         NFxFlg=           0 DoJE=F BraDBF=F KetDBF=F FulRan=T
         wScrn=  0.000000 ICntrl=     600 IOpCl=  0 I1Cent=           0 NGrid=           0
         NMat0=    1 NMatS0=   1596 NMatT0=    0 NMatD0=    1 NMtDS0=    0 NMtDT0=    0
 Symmetry not used in FoFCou.
          Solving linear equations simultaneously, MaxMat=       0.
          There are    15 degrees of freedom in the 1st order CPHF.  IDoFFX=6 NUNeed=     3.
     12 vectors produced by pass  0 Test12= 2.56D-15 6.67D-09 XBig12= 1.78D+01 3.15D+00.
 AX will form    12 AO Fock derivatives at one time.
     12 vectors produced by pass  1 Test12= 2.56D-15 6.67D-09 XBig12= 6.72D+00 1.03D+00.
     12 vectors produced by pass  2 Test12= 2.56D-15 6.67D-09 XBig12= 3.46D-02 5.60D-02.
     12 vectors produced by pass  3 Test12= 2.56D-15 6.67D-09 XBig12= 1.07D-04 3.67D-03.
     12 vectors produced by pass  4 Test12= 2.56D-15 6.67D-09 XBig12= 2.38D-07 1.62D-04.
     10 vectors produced by pass  5 Test12= 2.56D-15 6.67D-09 XBig12= 4.25D-10 6.48D-06.
      1 vectors produced by pass  6 Test12= 2.56D-15 6.67D-09 XBig12= 6.93D-13 2.61D-07.
      1 vectors produced by pass  7 Test12= 2.56D-15 6.67D-09 XBig12= 7.90D-16 9.78D-09.
 InvSVY:  IOpt=1 It=  1 EMax= 6.66D-16
 Solved reduced A of dimension    72 with    12 vectors.
 FullF1:  Do perturbations    1 to     3.
 Isotropic polarizability for W=    0.000000       15.39 Bohr**3.
 End of Minotr F.D. properties file   721 does not exist.
 End of Minotr F.D. properties file   722 does not exist.
 End of Minotr F.D. properties file   788 does not exist.
 Leave Link 1002 at Sat Apr 25 21:00:55 2015, MaxMem=   524288000 cpu:        13.9
 (Enter /opt/g09/l701.exe)
 Compute integral second derivatives.
 ... and contract with generalized density number  0.
 Leave Link  701 at Sat Apr 25 21:00:56 2015, MaxMem=   524288000 cpu:         2.1
 (Enter /opt/g09/l702.exe)
 L702 exits ... SP integral derivatives will be done elsewhere.
 Leave Link  702 at Sat Apr 25 21:00:56 2015, MaxMem=   524288000 cpu:         0.3
 (Enter /opt/g09/l703.exe)
 Compute integral second derivatives, UseDBF=F ICtDFT=           0.
 Integral derivatives from FoFJK, PRISM(SPDF).
 Calling FoFJK, ICntrl=    100127 FMM=F ISym2X=0 I1Cent= 0 IOpClX= 0 NMat=1 NMatS=1 NMatT=0.
 FoFJK:  IHMeth= 1 ICntrl=  100127 DoSepK=F KAlg= 0 I1Cent=   0 FoldK=F
 IRaf=         0 NMat=   1 IRICut=       1 DoRegI=T DoRafI=F ISym2E= 0.
 FoFCou: FMM=F IPFlag=           0 FMFlag=      100000 FMFlg1=         800
         NFxFlg=           0 DoJE=F BraDBF=F KetDBF=F FulRan=T
         wScrn=  0.000000 ICntrl=  100127 IOpCl=  0 I1Cent=           0 NGrid=           0
         NMat0=    1 NMatS0=      1 NMatT0=    0 NMatD0=    1 NMtDS0=    0 NMtDT0=    0
 Symmetry not used in FoFCou.
 Leave Link  703 at Sat Apr 25 21:00:58 2015, MaxMem=   524288000 cpu:        19.7
 (Enter /opt/g09/l716.exe)
 Dipole        =-3.41060513D-13-9.67924261D-01 2.11753438D-15
 Polarizability= 1.55103903D+01-3.84800515D-11 2.15036376D+01
                -1.87954656D-09-6.93341650D-11 9.14483980D+00
 Full mass-weighted force constant matrix:
 Low frequencies ---   -0.0016   -0.0008   -0.0006    5.3587    8.5915   15.0100
 Low frequencies --- 1196.5004 1257.8164 1529.4083
 Diagonal vibrational polarizability:
        0.5697417       1.3119524       0.0974455
 Harmonic frequencies (cm**-1), IR intensities (KM/Mole), Raman scattering
 activities (A**4/AMU), depolarization ratios for plane and unpolarized
 incident light, reduced masses (AMU), force constants (mDyne/A),
 and normal coordinates:
                      1                      2                      3
                      A                      A                      A
 Frequencies --   1196.5004              1257.8164              1529.4083
 Red. masses --      1.3684                 1.3449                 1.0994
 Frc consts  --      1.1542                 1.2537                 1.5152
 IR Inten    --      5.1839                 9.3715                 8.2622
  Atom  AN      X      Y      Z        X      Y      Z        X      Y      Z
     1   8     0.00   0.00   0.04     0.08   0.00   0.00     0.00   0.08   0.00
     2   6     0.00   0.00  -0.17    -0.15   0.00   0.00     0.00   0.00   0.00
     3   1     0.00   0.00   0.70     0.25  -0.65   0.00     0.35  -0.61   0.00
     4   1     0.00   0.00   0.70     0.25   0.65   0.00    -0.35  -0.61   0.00
                      4                      5                      6
                      A                      A                      A
 Frequencies --   1825.4412              2881.8221              2941.1794
 Red. masses --      7.7081                 1.0441                 1.1204
 Frc consts  --     15.1333                 5.1090                 5.7103
 IR Inten    --    122.6503                69.8586               131.9011
  Atom  AN      X      Y      Z        X      Y      Z        X      Y      Z
     1   8     0.00   0.43   0.00     0.00   0.00   0.00     0.00   0.00   0.00
     2   6     0.00  -0.60   0.00     0.00  -0.06   0.00     0.10   0.00   0.00
     3   1    -0.44   0.19   0.00     0.61   0.35   0.00    -0.60  -0.37   0.00
     4   1     0.44   0.19   0.00    -0.61   0.35   0.00    -0.60   0.37   0.00

 -------------------
 - Thermochemistry -
 -------------------
 Temperature   298.150 Kelvin.  Pressure   1.00000 Atm.
 Atom     1 has atomic number  8 and mass  15.99491
 Atom     2 has atomic number  6 and mass  12.00000
 Atom     3 has atomic number  1 and mass   1.00783
 Atom     4 has atomic number  1 and mass   1.00783
 Molecular mass:    30.01056 amu.
 Principal axes and moments of inertia in atomic units:
                           1         2         3
     Eigenvalues --     6.37777  46.30677  52.68454
           X            0.00000   1.00000   0.00000
           Y            1.00000   0.00000   0.00000
           Z            0.00000   0.00000   1.00000
 This molecule is an asymmetric top.
 Rotational symmetry number  2.
 Rotational temperatures (Kelvin)     13.58058     1.87044     1.64401
 Rotational constants (GHZ):         282.97361    38.97359    34.25561
 Zero-point vibrational energy      69575.8 (Joules/Mol)
                                   16.62902 (Kcal/Mol)
 Vibrational temperatures:   1721.50  1809.72  2200.47  2626.40  4146.29
          (Kelvin)           4231.70
 
 Zero-point correction=                           0.026500 (Hartree/Particle)
 Thermal correction to Energy=                    0.029368
 Thermal correction to Enthalpy=                  0.030313
 Thermal correction to Gibbs Free Energy=         0.005494
 Sum of electronic and zero-point Energies=           -114.477029
 Sum of electronic and thermal Energies=              -114.474160
 Sum of electronic and thermal Enthalpies=            -114.473216
 Sum of electronic and thermal Free Energies=         -114.498034
 
                     E (Thermal)             CV                S
                      KCal/Mol        Cal/Mol-Kelvin    Cal/Mol-Kelvin
 Total                   18.429              6.430             52.234
 Electronic               0.000              0.000              0.000
 Translational            0.889              2.981             36.130
 Rotational               0.889              2.981             16.016
 Vibrational             16.652              0.468              0.088
                       Q            Log10(Q)             Ln(Q)
 Total Bot       0.296984D-02         -2.527266         -5.819246
 Total V=0       0.459065D+10          9.661874         22.247288
 Vib (Bot)       0.650957D-12        -12.186448        -28.060333
 Vib (V=0)       0.100622D+01          0.002693          0.006201
 Electronic      0.100000D+01          0.000000          0.000000
 Translational   0.646199D+07          6.810366         15.681448
 Rotational      0.706016D+03          2.848815          6.559638
 
                    W:\Data\additional_hydrocarbons\nist\enthalpy_estimation\succ
 ess\fine\0_0corr_b971_50-00-0.g09
                                                             IR Spectrum
 
     2  2                                             1           1           1  1                                                   
     9  8                                             8           5           2  1                                                   
     4  8                                             2           2           5  9                                                   
     1  2                                             5           9           8  7                                                   
 
     X  X                                             X           X           X  X                                                   
     X  X                                             X                                                                              
     X  X                                             X                                                                              
     X  X                                             X                                                                              
     X  X                                             X                                                                              
     X  X                                             X                                                                              
     X  X                                             X                                                                              
     X  X                                             X                                                                              
     X  X                                             X                                                                              
     X  X                                             X                                                                              
     X  X                                             X                                                                              
     X                                                X                                                                              
     X                                                X                                                                              
     X                                                X                                                                              
     X                                                X                                                                              
     X                                                X                                                                              
     X                                                X                                                                              
     X                                                X                                                                              
     X                                                X                                                                              
     X                                                                                                                               
 
 -------------------------------------------------------------------
 Center     Atomic                   Forces (Hartrees/Bohr)
 Number     Number              X              Y              Z
 -------------------------------------------------------------------
      1        8           0.000000000   -0.000008410    0.000000000
      2        6           0.000000000    0.000015068    0.000000000
      3        1           0.000001257   -0.000003329    0.000000000
      4        1          -0.000001257   -0.000003329    0.000000000
 -------------------------------------------------------------------
 Cartesian Forces:  Max     0.000015068 RMS     0.000005189
 Force constants in Cartesian coordinates: 
                1             2             3             4             5 
      1  0.722789D-01
      2  0.000000D+00  0.888620D+00
      3  0.000000D+00  0.000000D+00  0.186523D-01
      4 -0.103667D+00  0.000000D+00  0.000000D+00  0.571974D+00
      5  0.000000D+00 -0.803383D+00  0.000000D+00  0.000000D+00  0.993808D+00
      6  0.000000D+00  0.000000D+00 -0.567478D-01  0.000000D+00  0.000000D+00
      7  0.156942D-01 -0.172393D-01  0.000000D+00 -0.234153D+00 -0.764463D-01
      8 -0.363348D-01 -0.426187D-01  0.000000D+00 -0.801582D-01 -0.952126D-01
      9  0.000000D+00  0.000000D+00  0.190478D-01  0.000000D+00  0.000000D+00
     10  0.156942D-01  0.172393D-01  0.000000D+00 -0.234153D+00  0.764463D-01
     11  0.363348D-01 -0.426187D-01  0.000000D+00  0.801582D-01 -0.952126D-01
     12  0.000000D+00  0.000000D+00  0.190478D-01  0.000000D+00  0.000000D+00
                6             7             8             9            10 
      6  0.172690D+00
      7  0.000000D+00  0.237110D+00
      8  0.000000D+00  0.105089D+00  0.128526D+00
      9 -0.579713D-01  0.000000D+00  0.000000D+00  0.194661D-01
     10  0.000000D+00 -0.186505D-01  0.114037D-01  0.000000D+00  0.237110D+00
     11  0.000000D+00 -0.114037D-01  0.930514D-02  0.000000D+00 -0.105089D+00
     12 -0.579713D-01  0.000000D+00  0.000000D+00  0.194575D-01  0.000000D+00
               11            12 
     11  0.128526D+00
     12  0.000000D+00  0.194661D-01
 FormGI is forming the generalized inverse of G from B-inverse, IUseBI=4.
 Force constants in internal coordinates: 
                1             2             3             4             5 
      1  0.888620D+00
      2  0.372082D-01  0.301071D+00
      3  0.372082D-01  0.577401D-02  0.301071D+00
      4  0.188807D-01  0.257245D-02 -0.109364D-01  0.114455D+00
      5  0.188807D-01 -0.109364D-01  0.257245D-02 -0.720419D-01  0.114455D+00
      6 -0.377614D-01  0.836398D-02  0.836398D-02 -0.424136D-01 -0.424136D-01
      7  0.000000D+00  0.000000D+00  0.000000D+00  0.000000D+00  0.000000D+00
                6             7 
      6  0.848271D-01
      7  0.000000D+00  0.691997D-01
 Leave Link  716 at Sat Apr 25 21:00:58 2015, MaxMem=   524288000 cpu:         0.7
 (Enter /opt/g09/l103.exe)

 GradGradGradGradGradGradGradGradGradGradGradGradGradGradGradGradGradGrad
 Berny optimization.
 Red2BG is reusing G-inverse.
 Internal  Forces:  Max     0.000008410 RMS     0.000003917
 Search for a local minimum.
 Step number   1 out of a maximum of    2
 All quantities printed in internal units (Hartrees-Bohrs-Radians)
 Second derivative matrix not updated -- analytic derivatives used.
 The second derivative matrix:
                          R1        R2        R3        A1        A2
           R1           0.88862
           R2           0.03721   0.30107
           R3           0.03721   0.00577   0.30107
           A1           0.01888   0.00257  -0.01094   0.11446
           A2           0.01888  -0.01094   0.00257  -0.07204   0.11446
           A3          -0.03776   0.00836   0.00836  -0.04241  -0.04241
           D1           0.00000   0.00000   0.00000   0.00000   0.00000
                          A3        D1
           A3           0.08483
           D1           0.00000   0.06920
 ITU=  0
     Eigenvalues ---    0.06920   0.12272   0.18485   0.29695   0.30404
     Eigenvalues ---    0.89595
 Angle between quadratic step and forces=  40.82 degrees.
 Linear search not attempted -- first point.
 Iteration  1 RMS(Cart)=  0.00001697 RMS(Int)=  0.00000000
 Iteration  2 RMS(Cart)=  0.00000000 RMS(Int)=  0.00000000
 ITry= 1 IFail=0 DXMaxC= 2.37D-05 DCOld= 1.00D+10 DXMaxT= 3.00D-01 DXLimC= 3.00D+00 Rises=F
 Variable       Old X    -DE/DX   Delta X   Delta X   Delta X     New X
                                 (Linear)    (Quad)   (Total)
    R1        2.27185  -0.00001   0.00000  -0.00001  -0.00001   2.27183
    R2        2.09771   0.00000   0.00000   0.00001   0.00001   2.09772
    R3        2.09771   0.00000   0.00000   0.00001   0.00001   2.09772
    A1        2.12945   0.00000   0.00000   0.00002   0.00002   2.12947
    A2        2.12945   0.00000   0.00000   0.00002   0.00002   2.12947
    A3        2.02429   0.00000   0.00000  -0.00004  -0.00004   2.02425
    D1        3.14159   0.00000   0.00000   0.00000   0.00000   3.14159
         Item               Value     Threshold  Converged?
 Maximum Force            0.000008     0.000015     YES
 RMS     Force            0.000004     0.000010     YES
 Maximum Displacement     0.000024     0.000060     YES
 RMS     Displacement     0.000017     0.000040     YES
 Predicted change in Energy=-2.138755D-10
 Optimization completed.
    -- Stationary point found.
                           ----------------------------
                           !   Optimized Parameters   !
                           ! (Angstroms and Degrees)  !
 --------------------------                            --------------------------
 ! Name  Definition              Value          Derivative Info.                !
 --------------------------------------------------------------------------------
 ! R1    R(1,2)                  1.2022         -DE/DX =    0.0                 !
 ! R2    R(2,3)                  1.1101         -DE/DX =    0.0                 !
 ! R3    R(2,4)                  1.1101         -DE/DX =    0.0                 !
 ! A1    A(1,2,3)              122.0083         -DE/DX =    0.0                 !
 ! A2    A(1,2,4)              122.0083         -DE/DX =    0.0                 !
 ! A3    A(3,2,4)              115.9833         -DE/DX =    0.0                 !
 ! D1    D(1,2,4,3)            180.0            -DE/DX =    0.0                 !
 --------------------------------------------------------------------------------
 GradGradGradGradGradGradGradGradGradGradGradGradGradGradGradGradGradGrad

 Leave Link  103 at Sat Apr 25 21:00:58 2015, MaxMem=   524288000 cpu:         0.6
 (Enter /opt/g09/l9999.exe)
 1\1\GINC-PICASSO\Freq\RB971\6-311+G(d,p)\C1H2O1\PB556\25-Apr-2015\0\\#
 P Geom=AllCheck Guess=TCheck SCRF=Check GenChk RB971/6-311+G(d,p) Freq
 \\W:\Data\additional_hydrocarbons\nist\enthalpy_estimation\success\fin
 e\0_0corr_b971_50-00-0.g09\\0,1\O,17.,30.01162,0.\C,17.,28.80941,0.\H,
 16.0587,28.22103,0.\H,17.9413,28.22103,0.\\Version=ES64L-G09RevD.01\HF
 =-114.5035289\RMSD=3.112e-10\RMSF=5.189e-06\ZeroPoint=0.0265\Thermal=0
 .0293685\Dipole=0.,-0.9679243,0.\DipoleDeriv=-0.444166,0.,0.,0.,-0.977
 0859,0.,0.,0.,-0.3369208,0.8230714,0.,0.,0.,1.1034836,0.,0.,0.,0.15479
 56,-0.1894527,-0.1362829,0.,-0.1069288,-0.0631988,0.,0.,0.,0.0910626,-
 0.1894527,0.1362829,0.,0.1069288,-0.0631988,0.,0.,0.,0.0910626\Polar=1
 5.5103903,0.,21.5036376,0.,0.,9.1448398\PG=C02V [C2(C1O1),SGV(H2)]\NIm
 ag=0\\0.07227889,0.,0.88862023,0.,0.,0.01865230,-0.10366721,0.,0.,0.57
 197404,0.,-0.80338275,0.,0.,0.99380786,0.,0.,-0.05674782,0.,0.,0.17269
 047,0.01569416,-0.01723933,0.,-0.23415342,-0.07644630,0.,0.23710980,-0
 .03633477,-0.04261874,0.,-0.08015823,-0.09521255,0.,0.10508931,0.12852
 615,0.,0.,0.01904776,0.,0.,-0.05797132,0.,0.,0.01946608,0.01569416,0.0
 1723933,0.,-0.23415342,0.07644630,0.,-0.01865054,0.01140369,0.,0.23710
 980,0.03633477,-0.04261874,0.,0.08015823,-0.09521255,0.,-0.01140369,0.
 00930514,0.,-0.10508931,0.12852615,0.,0.,0.01904776,0.,0.,-0.05797132,
 0.,0.,0.01945748,0.,0.,0.01946608\\0.,0.00000841,0.,0.,-0.00001507,0.,
 -0.00000126,0.00000333,0.,0.00000126,0.00000333,0.\\\@


 IF YOU DON'T HAVE THE LAW - ARGUE THE FACTS.
 IF YOU DON'T HAVE THE FACTS - ARGUE THE LAW.
 IF YOU DON'T HAVE EITHER - POUND THE TABLE.
 Job cpu time:       0 days  0 hours  1 minutes  0.9 seconds.
 File lengths (MBytes):  RWF=      5 Int=      0 D2E=      0 Chk=      1 Scr=      1
 Normal termination of Gaussian 09 at Sat Apr 25 21:00:59 2015.
