 Entering Gaussian System, Link 0=g09
 Input=0_0freq-0_0corr_b971_5471-63-6.gau
 Output=0_0freq-0_0corr_b971_5471-63-6.log
 Initial command:
 /opt/g09/l1.exe "/scratch/pb556/g09_run/add_hco//Gau-12197.inp" -scrdir="/scratch/pb556/g09_run/add_hco//"
 Entering Link 1 = /opt/g09/l1.exe PID=     12206.
  
 Copyright (c) 1988,1990,1992,1993,1995,1998,2003,2009,2013,
            Gaussian, Inc.  All Rights Reserved.
  
 This is part of the Gaussian(R) 09 program.  It is based on
 the Gaussian(R) 03 system (copyright 2003, Gaussian, Inc.),
 the Gaussian(R) 98 system (copyright 1998, Gaussian, Inc.),
 the Gaussian(R) 94 system (copyright 1995, Gaussian, Inc.),
 the Gaussian 92(TM) system (copyright 1992, Gaussian, Inc.),
 the Gaussian 90(TM) system (copyright 1990, Gaussian, Inc.),
 the Gaussian 88(TM) system (copyright 1988, Gaussian, Inc.),
 the Gaussian 86(TM) system (copyright 1986, Carnegie Mellon
 University), and the Gaussian 82(TM) system (copyright 1983,
 Carnegie Mellon University). Gaussian is a federally registered
 trademark of Gaussian, Inc.
  
 This software contains proprietary and confidential information,
 including trade secrets, belonging to Gaussian, Inc.
  
 This software is provided under written license and may be
 used, copied, transmitted, or stored only in accord with that
 written license.
  
 The following legend is applicable only to US Government
 contracts under FAR:
  
                    RESTRICTED RIGHTS LEGEND
  
 Use, reproduction and disclosure by the US Government is
 subject to restrictions as set forth in subparagraphs (a)
 and (c) of the Commercial Computer Software - Restricted
 Rights clause in FAR 52.227-19.
  
 Gaussian, Inc.
 340 Quinnipiac St., Bldg. 40, Wallingford CT 06492
  
  
 ---------------------------------------------------------------
 Warning -- This program may not be used in any manner that
 competes with the business of Gaussian, Inc. or will provide
 assistance to any competitor of Gaussian, Inc.  The licensee
 of this program is prohibited from giving any competitor of
 Gaussian, Inc. access to this program.  By using this program,
 the user acknowledges that Gaussian, Inc. is engaged in the
 business of creating and licensing software in the field of
 computational chemistry and represents and warrants to the
 licensee that it is not a competitor of Gaussian, Inc. and that
 it will not use this program in any manner prohibited above.
 ---------------------------------------------------------------
  

 Cite this work as:
 Gaussian 09, Revision D.01,
 M. J. Frisch, G. W. Trucks, H. B. Schlegel, G. E. Scuseria, 
 M. A. Robb, J. R. Cheeseman, G. Scalmani, V. Barone, B. Mennucci, 
 G. A. Petersson, H. Nakatsuji, M. Caricato, X. Li, H. P. Hratchian, 
 A. F. Izmaylov, J. Bloino, G. Zheng, J. L. Sonnenberg, M. Hada, 
 M. Ehara, K. Toyota, R. Fukuda, J. Hasegawa, M. Ishida, T. Nakajima, 
 Y. Honda, O. Kitao, H. Nakai, T. Vreven, J. A. Montgomery, Jr., 
 J. E. Peralta, F. Ogliaro, M. Bearpark, J. J. Heyd, E. Brothers, 
 K. N. Kudin, V. N. Staroverov, T. Keith, R. Kobayashi, J. Normand, 
 K. Raghavachari, A. Rendell, J. C. Burant, S. S. Iyengar, J. Tomasi, 
 M. Cossi, N. Rega, J. M. Millam, M. Klene, J. E. Knox, J. B. Cross, 
 V. Bakken, C. Adamo, J. Jaramillo, R. Gomperts, R. E. Stratmann, 
 O. Yazyev, A. J. Austin, R. Cammi, C. Pomelli, J. W. Ochterski, 
 R. L. Martin, K. Morokuma, V. G. Zakrzewski, G. A. Voth, 
 P. Salvador, J. J. Dannenberg, S. Dapprich, A. D. Daniels, 
 O. Farkas, J. B. Foresman, J. V. Ortiz, J. Cioslowski, 
 and D. J. Fox, Gaussian, Inc., Wallingford CT, 2013.
 
 ******************************************
 Gaussian 09:  ES64L-G09RevD.01 24-Apr-2013
                25-Apr-2015 
 ******************************************
 %NProcShared=8
 Will use up to    8 processors via shared memory.
 %Mem=500MW
 ----------------------------------------------------------------------
 #p rB971/6-311+G(d,p) Opt=(Tight, CalcAll) Freq GFInput Population=Non
 e Integral(Grid=UltraFine) Guess=MIX NoSymmetry
 ----------------------------------------------------------------------
 1/7=10,10=4,14=-1,18=20,19=15,26=4,38=1/1,3;
 2/9=110,12=2,15=1,17=6,18=5,40=1/2;
 3/5=4,6=6,7=111,11=2,16=1,24=10,25=1,30=1,71=2,74=-20,75=-5,116=1,140=1/1,2,3;
 4/13=-1/1;
 5/5=2,38=5/2;
 8/6=4,10=90,11=11/1;
 11/6=1,8=1,9=11,15=111,16=1,31=1/1,2,10;
 10/6=1,31=1/2;
 7/10=1,25=1,30=1/1,2,3,16;
 1/7=10,10=4,14=-1,18=20,19=15,26=4/3(3);
 2/9=110,15=1/2;
 7/8=1,9=1,25=1,30=1,44=-1/16;
 99//99;
 2/9=110,15=1/2;
 3/5=4,6=6,7=111,11=2,16=1,25=1,30=1,71=2,74=-20,75=-5,116=1,140=1/1,2,3;
 4/5=5,16=3,69=1/1;
 5/5=2,38=5/2;
 8/6=4,10=90,11=11/1;
 11/6=1,8=1,9=11,15=111,16=1,31=1/1,2,10;
 10/6=1,31=1/2;
 7/10=1,25=1,30=1/1,2,3,16;
 1/7=10,10=4,14=-1,18=20,19=15,26=4/3(-8);
 2/9=110,15=1/2;
 7/8=1,9=1,25=1,30=1,44=-1/16;
 99//99;
 Leave Link    1 at Sat Apr 25 21:22:49 2015, MaxMem=   524288000 cpu:         0.6
 (Enter /opt/g09/l101.exe)
 ----------------------------------------------------------------------
 W:\Data\additional_hydrocarbons\nist\enthalpy_estimation\success\fine\
 0_0corr_b971_5471-63-6.g09
 ----------------------------------------------------------------------
 Symbolic Z-matrix:
 Charge =  0 Multiplicity = 1
 C                    -2.07082  -3.71869   0.03263 
 C                    -1.55178  -4.98773   0.07057 
 C                    -1.17308  -2.60926   0.01552 
 C                    -0.13738  -5.21826   0.07565 
 C                     0.75801  -4.17974   0.04273 
 C                     0.25917  -2.84269   0.02057 
 C                     0.86278  -1.58803  -0.05863 
 C                    -1.34653  -1.22809  -0.06643 
 O                    -0.11762  -0.64668  -0.12407 
 C                    -2.49604  -0.33726  -0.11595 
 C                     2.23589  -1.1081   -0.09883 
 C                    -3.75845  -0.74604   0.36012 
 C                    -4.85489   0.11189   0.29452 
 C                    -4.71806   1.39841  -0.23375 
 C                    -3.46667   1.82124  -0.69282 
 C                    -2.368     0.96736  -0.63762 
 C                     3.30028  -1.89718   0.38277 
 C                     4.61271  -1.43154   0.32621 
 C                     4.89472  -0.1673   -0.19829 
 C                     3.84518   0.63156  -0.66281 
 C                     2.53198   0.1705   -0.61668 
 H                    -3.14357  -3.56807  -0.0076 
 H                    -2.2216   -5.84225   0.0783 
 H                     0.22637  -6.24124   0.08711 
 H                     1.8233   -4.37762   0.01014 
 H                    -3.87546  -1.72414   0.81273 
 H                    -5.81736  -0.22171   0.67114 
 H                    -5.57335   2.06524  -0.28085 
 H                    -3.34711   2.82051  -1.10113 
 H                    -1.40302   1.30093  -1.0036 
 H                     3.09817  -2.86256   0.83262 
 H                     5.41709  -2.05402   0.70696 
 H                     5.91773   0.19362  -0.2383 
 H                     4.05154   1.61776  -1.06826 
 H                     1.72517   0.79378  -0.98676 
 
 NAtoms=     35 NQM=       35 NQMF=       0 NMMI=      0 NMMIF=      0
                NMic=       0 NMicF=      0.
                    Isotopes and Nuclear Properties:
 (Nuclear quadrupole moments (NQMom) in fm**2, nuclear magnetic moments (NMagM)
  in nuclear magnetons)

  Atom         1           2           3           4           5           6           7           8           9          10
 IAtWgt=          12          12          12          12          12          12          12          12          16          12
 AtmWgt=  12.0000000  12.0000000  12.0000000  12.0000000  12.0000000  12.0000000  12.0000000  12.0000000  15.9949146  12.0000000
 NucSpn=           0           0           0           0           0           0           0           0           0           0
 AtZEff=   0.0000000   0.0000000   0.0000000   0.0000000   0.0000000   0.0000000   0.0000000   0.0000000   0.0000000   0.0000000
 NQMom=    0.0000000   0.0000000   0.0000000   0.0000000   0.0000000   0.0000000   0.0000000   0.0000000   0.0000000   0.0000000
 NMagM=    0.0000000   0.0000000   0.0000000   0.0000000   0.0000000   0.0000000   0.0000000   0.0000000   0.0000000   0.0000000
 AtZNuc=   6.0000000   6.0000000   6.0000000   6.0000000   6.0000000   6.0000000   6.0000000   6.0000000   8.0000000   6.0000000

  Atom        11          12          13          14          15          16          17          18          19          20
 IAtWgt=          12          12          12          12          12          12          12          12          12          12
 AtmWgt=  12.0000000  12.0000000  12.0000000  12.0000000  12.0000000  12.0000000  12.0000000  12.0000000  12.0000000  12.0000000
 NucSpn=           0           0           0           0           0           0           0           0           0           0
 AtZEff=   0.0000000   0.0000000   0.0000000   0.0000000   0.0000000   0.0000000   0.0000000   0.0000000   0.0000000   0.0000000
 NQMom=    0.0000000   0.0000000   0.0000000   0.0000000   0.0000000   0.0000000   0.0000000   0.0000000   0.0000000   0.0000000
 NMagM=    0.0000000   0.0000000   0.0000000   0.0000000   0.0000000   0.0000000   0.0000000   0.0000000   0.0000000   0.0000000
 AtZNuc=   6.0000000   6.0000000   6.0000000   6.0000000   6.0000000   6.0000000   6.0000000   6.0000000   6.0000000   6.0000000

  Atom        21          22          23          24          25          26          27          28          29          30
 IAtWgt=          12           1           1           1           1           1           1           1           1           1
 AtmWgt=  12.0000000   1.0078250   1.0078250   1.0078250   1.0078250   1.0078250   1.0078250   1.0078250   1.0078250   1.0078250
 NucSpn=           0           1           1           1           1           1           1           1           1           1
 AtZEff=   0.0000000   0.0000000   0.0000000   0.0000000   0.0000000   0.0000000   0.0000000   0.0000000   0.0000000   0.0000000
 NQMom=    0.0000000   0.0000000   0.0000000   0.0000000   0.0000000   0.0000000   0.0000000   0.0000000   0.0000000   0.0000000
 NMagM=    0.0000000   2.7928460   2.7928460   2.7928460   2.7928460   2.7928460   2.7928460   2.7928460   2.7928460   2.7928460
 AtZNuc=   6.0000000   1.0000000   1.0000000   1.0000000   1.0000000   1.0000000   1.0000000   1.0000000   1.0000000   1.0000000

  Atom        31          32          33          34          35
 IAtWgt=           1           1           1           1           1
 AtmWgt=   1.0078250   1.0078250   1.0078250   1.0078250   1.0078250
 NucSpn=           1           1           1           1           1
 AtZEff=   0.0000000   0.0000000   0.0000000   0.0000000   0.0000000
 NQMom=    0.0000000   0.0000000   0.0000000   0.0000000   0.0000000
 NMagM=    2.7928460   2.7928460   2.7928460   2.7928460   2.7928460
 AtZNuc=   1.0000000   1.0000000   1.0000000   1.0000000   1.0000000
 Leave Link  101 at Sat Apr 25 21:22:49 2015, MaxMem=   524288000 cpu:         2.0
 (Enter /opt/g09/l103.exe)

 GradGradGradGradGradGradGradGradGradGradGradGradGradGradGradGradGradGrad
 Berny optimization.
 Initialization pass.
                           ----------------------------
                           !    Initial Parameters    !
                           ! (Angstroms and Degrees)  !
 --------------------------                            --------------------------
 ! Name  Definition              Value          Derivative Info.                !
 --------------------------------------------------------------------------------
 ! R1    R(1,2)                  1.3716         calculate D2E/DX2 analytically  !
 ! R2    R(1,3)                  1.4273         calculate D2E/DX2 analytically  !
 ! R3    R(1,22)                 1.084          calculate D2E/DX2 analytically  !
 ! R4    R(2,4)                  1.4331         calculate D2E/DX2 analytically  !
 ! R5    R(2,23)                 1.0858         calculate D2E/DX2 analytically  !
 ! R6    R(3,6)                  1.4512         calculate D2E/DX2 analytically  !
 ! R7    R(3,8)                  1.3944         calculate D2E/DX2 analytically  !
 ! R8    R(4,5)                  1.3716         calculate D2E/DX2 analytically  !
 ! R9    R(4,24)                 1.0858         calculate D2E/DX2 analytically  !
 ! R10   R(5,6)                  1.4272         calculate D2E/DX2 analytically  !
 ! R11   R(5,25)                 1.084          calculate D2E/DX2 analytically  !
 ! R12   R(6,7)                  1.3946         calculate D2E/DX2 analytically  !
 ! R13   R(7,9)                  1.3607         calculate D2E/DX2 analytically  !
 ! R14   R(7,11)                 1.4551         calculate D2E/DX2 analytically  !
 ! R15   R(8,9)                  1.3607         calculate D2E/DX2 analytically  !
 ! R16   R(8,10)                 1.4551         calculate D2E/DX2 analytically  !
 ! R17   R(10,12)                1.4098         calculate D2E/DX2 analytically  !
 ! R18   R(10,16)                1.4109         calculate D2E/DX2 analytically  !
 ! R19   R(11,17)                1.4098         calculate D2E/DX2 analytically  !
 ! R20   R(11,21)                1.4109         calculate D2E/DX2 analytically  !
 ! R21   R(12,13)                1.3937         calculate D2E/DX2 analytically  !
 ! R22   R(12,26)                1.0841         calculate D2E/DX2 analytically  !
 ! R23   R(13,14)                1.3975         calculate D2E/DX2 analytically  !
 ! R24   R(13,27)                1.086          calculate D2E/DX2 analytically  !
 ! R25   R(14,15)                1.3984         calculate D2E/DX2 analytically  !
 ! R26   R(14,28)                1.0855         calculate D2E/DX2 analytically  !
 ! R27   R(15,16)                1.3926         calculate D2E/DX2 analytically  !
 ! R28   R(15,29)                1.0861         calculate D2E/DX2 analytically  !
 ! R29   R(16,30)                1.0846         calculate D2E/DX2 analytically  !
 ! R30   R(17,18)                1.3937         calculate D2E/DX2 analytically  !
 ! R31   R(17,31)                1.0841         calculate D2E/DX2 analytically  !
 ! R32   R(18,19)                1.3975         calculate D2E/DX2 analytically  !
 ! R33   R(18,32)                1.086          calculate D2E/DX2 analytically  !
 ! R34   R(19,20)                1.3984         calculate D2E/DX2 analytically  !
 ! R35   R(19,33)                1.0855         calculate D2E/DX2 analytically  !
 ! R36   R(20,21)                1.3926         calculate D2E/DX2 analytically  !
 ! R37   R(20,34)                1.0861         calculate D2E/DX2 analytically  !
 ! R38   R(21,35)                1.0846         calculate D2E/DX2 analytically  !
 ! A1    A(2,1,3)              118.7833         calculate D2E/DX2 analytically  !
 ! A2    A(2,1,22)             120.2694         calculate D2E/DX2 analytically  !
 ! A3    A(3,1,22)             120.9312         calculate D2E/DX2 analytically  !
 ! A4    A(1,2,4)              121.4947         calculate D2E/DX2 analytically  !
 ! A5    A(1,2,23)             119.6637         calculate D2E/DX2 analytically  !
 ! A6    A(4,2,23)             118.8315         calculate D2E/DX2 analytically  !
 ! A7    A(1,3,6)              119.7174         calculate D2E/DX2 analytically  !
 ! A8    A(1,3,8)              133.8196         calculate D2E/DX2 analytically  !
 ! A9    A(6,3,8)              106.3975         calculate D2E/DX2 analytically  !
 ! A10   A(2,4,5)              121.494          calculate D2E/DX2 analytically  !
 ! A11   A(2,4,24)             118.8319         calculate D2E/DX2 analytically  !
 ! A12   A(5,4,24)             119.664          calculate D2E/DX2 analytically  !
 ! A13   A(4,5,6)              118.7842         calculate D2E/DX2 analytically  !
 ! A14   A(4,5,25)             120.2675         calculate D2E/DX2 analytically  !
 ! A15   A(6,5,25)             120.932          calculate D2E/DX2 analytically  !
 ! A16   A(3,6,5)              119.7162         calculate D2E/DX2 analytically  !
 ! A17   A(3,6,7)              106.396          calculate D2E/DX2 analytically  !
 ! A18   A(5,6,7)              133.8226         calculate D2E/DX2 analytically  !
 ! A19   A(6,7,9)              108.2567         calculate D2E/DX2 analytically  !
 ! A20   A(6,7,11)             134.9704         calculate D2E/DX2 analytically  !
 ! A21   A(9,7,11)             116.7685         calculate D2E/DX2 analytically  !
 ! A22   A(3,8,9)              108.2623         calculate D2E/DX2 analytically  !
 ! A23   A(3,8,10)             134.9623         calculate D2E/DX2 analytically  !
 ! A24   A(9,8,10)             116.7708         calculate D2E/DX2 analytically  !
 ! A25   A(7,9,8)              110.6752         calculate D2E/DX2 analytically  !
 ! A26   A(8,10,12)            121.2246         calculate D2E/DX2 analytically  !
 ! A27   A(8,10,16)            120.4632         calculate D2E/DX2 analytically  !
 ! A28   A(12,10,16)           118.3109         calculate D2E/DX2 analytically  !
 ! A29   A(7,11,17)            121.2252         calculate D2E/DX2 analytically  !
 ! A30   A(7,11,21)            120.4684         calculate D2E/DX2 analytically  !
 ! A31   A(17,11,21)           118.3052         calculate D2E/DX2 analytically  !
 ! A32   A(10,12,13)           120.6689         calculate D2E/DX2 analytically  !
 ! A33   A(10,12,26)           119.9511         calculate D2E/DX2 analytically  !
 ! A34   A(13,12,26)           119.3485         calculate D2E/DX2 analytically  !
 ! A35   A(12,13,14)           120.4942         calculate D2E/DX2 analytically  !
 ! A36   A(12,13,27)           119.4572         calculate D2E/DX2 analytically  !
 ! A37   A(14,13,27)           120.0428         calculate D2E/DX2 analytically  !
 ! A38   A(13,14,15)           119.3458         calculate D2E/DX2 analytically  !
 ! A39   A(13,14,28)           120.3161         calculate D2E/DX2 analytically  !
 ! A40   A(15,14,28)           120.3368         calculate D2E/DX2 analytically  !
 ! A41   A(14,15,16)           120.5041         calculate D2E/DX2 analytically  !
 ! A42   A(14,15,29)           120.0088         calculate D2E/DX2 analytically  !
 ! A43   A(16,15,29)           119.4863         calculate D2E/DX2 analytically  !
 ! A44   A(10,16,15)           120.6671         calculate D2E/DX2 analytically  !
 ! A45   A(10,16,30)           119.3333         calculate D2E/DX2 analytically  !
 ! A46   A(15,16,30)           119.9984         calculate D2E/DX2 analytically  !
 ! A47   A(11,17,18)           120.6701         calculate D2E/DX2 analytically  !
 ! A48   A(11,17,31)           119.9628         calculate D2E/DX2 analytically  !
 ! A49   A(18,17,31)           119.3356         calculate D2E/DX2 analytically  !
 ! A50   A(17,18,19)           120.4976         calculate D2E/DX2 analytically  !
 ! A51   A(17,18,32)           119.4543         calculate D2E/DX2 analytically  !
 ! A52   A(19,18,32)           120.0423         calculate D2E/DX2 analytically  !
 ! A53   A(18,19,20)           119.3422         calculate D2E/DX2 analytically  !
 ! A54   A(18,19,33)           120.3172         calculate D2E/DX2 analytically  !
 ! A55   A(20,19,33)           120.3393         calculate D2E/DX2 analytically  !
 ! A56   A(19,20,21)           120.5055         calculate D2E/DX2 analytically  !
 ! A57   A(19,20,34)           120.0093         calculate D2E/DX2 analytically  !
 ! A58   A(21,20,34)           119.4844         calculate D2E/DX2 analytically  !
 ! A59   A(11,21,20)           120.6705         calculate D2E/DX2 analytically  !
 ! A60   A(11,21,35)           119.3339         calculate D2E/DX2 analytically  !
 ! A61   A(20,21,35)           119.9945         calculate D2E/DX2 analytically  !
 ! D1    D(3,1,2,4)             -0.8201         calculate D2E/DX2 analytically  !
 ! D2    D(3,1,2,23)          -179.6536         calculate D2E/DX2 analytically  !
 ! D3    D(22,1,2,4)           177.7291         calculate D2E/DX2 analytically  !
 ! D4    D(22,1,2,23)           -1.1044         calculate D2E/DX2 analytically  !
 ! D5    D(2,1,3,6)              0.8095         calculate D2E/DX2 analytically  !
 ! D6    D(2,1,3,8)            177.4199         calculate D2E/DX2 analytically  !
 ! D7    D(22,1,3,6)          -177.7298         calculate D2E/DX2 analytically  !
 ! D8    D(22,1,3,8)            -1.1194         calculate D2E/DX2 analytically  !
 ! D9    D(1,2,4,5)             -0.0029         calculate D2E/DX2 analytically  !
 ! D10   D(1,2,4,24)          -178.844          calculate D2E/DX2 analytically  !
 ! D11   D(23,2,4,5)           178.84           calculate D2E/DX2 analytically  !
 ! D12   D(23,2,4,24)           -0.0011         calculate D2E/DX2 analytically  !
 ! D13   D(1,3,6,5)             -0.0058         calculate D2E/DX2 analytically  !
 ! D14   D(1,3,6,7)            177.4521         calculate D2E/DX2 analytically  !
 ! D15   D(8,3,6,5)           -177.4571         calculate D2E/DX2 analytically  !
 ! D16   D(8,3,6,7)              0.0008         calculate D2E/DX2 analytically  !
 ! D17   D(1,3,8,9)           -176.2689         calculate D2E/DX2 analytically  !
 ! D18   D(1,3,8,10)             2.8921         calculate D2E/DX2 analytically  !
 ! D19   D(6,3,8,9)              0.6628         calculate D2E/DX2 analytically  !
 ! D20   D(6,3,8,10)           179.8238         calculate D2E/DX2 analytically  !
 ! D21   D(2,4,5,6)              0.8215         calculate D2E/DX2 analytically  !
 ! D22   D(2,4,5,25)          -177.7266         calculate D2E/DX2 analytically  !
 ! D23   D(24,4,5,6)           179.6531         calculate D2E/DX2 analytically  !
 ! D24   D(24,4,5,25)            1.105          calculate D2E/DX2 analytically  !
 ! D25   D(4,5,6,3)             -0.8023         calculate D2E/DX2 analytically  !
 ! D26   D(4,5,6,7)           -177.4212         calculate D2E/DX2 analytically  !
 ! D27   D(25,5,6,3)           177.7358         calculate D2E/DX2 analytically  !
 ! D28   D(25,5,6,7)             1.1168         calculate D2E/DX2 analytically  !
 ! D29   D(3,6,7,9)             -0.6641         calculate D2E/DX2 analytically  !
 ! D30   D(3,6,7,11)          -179.8477         calculate D2E/DX2 analytically  !
 ! D31   D(5,6,7,9)            176.2754         calculate D2E/DX2 analytically  !
 ! D32   D(5,6,7,11)            -2.9082         calculate D2E/DX2 analytically  !
 ! D33   D(6,7,9,8)              1.1194         calculate D2E/DX2 analytically  !
 ! D34   D(11,7,9,8)          -179.5275         calculate D2E/DX2 analytically  !
 ! D35   D(6,7,11,17)          -21.586          calculate D2E/DX2 analytically  !
 ! D36   D(6,7,11,21)          158.8321         calculate D2E/DX2 analytically  !
 ! D37   D(9,7,11,17)          159.2824         calculate D2E/DX2 analytically  !
 ! D38   D(9,7,11,21)          -20.2995         calculate D2E/DX2 analytically  !
 ! D39   D(3,8,9,7)             -1.1189         calculate D2E/DX2 analytically  !
 ! D40   D(10,8,9,7)           179.546          calculate D2E/DX2 analytically  !
 ! D41   D(3,8,10,12)           21.7535         calculate D2E/DX2 analytically  !
 ! D42   D(3,8,10,16)         -158.6606         calculate D2E/DX2 analytically  !
 ! D43   D(9,8,10,12)         -159.1389         calculate D2E/DX2 analytically  !
 ! D44   D(9,8,10,16)           20.4469         calculate D2E/DX2 analytically  !
 ! D45   D(8,10,12,13)        -179.3388         calculate D2E/DX2 analytically  !
 ! D46   D(8,10,12,26)           2.7139         calculate D2E/DX2 analytically  !
 ! D47   D(16,10,12,13)          1.0667         calculate D2E/DX2 analytically  !
 ! D48   D(16,10,12,26)       -176.8806         calculate D2E/DX2 analytically  !
 ! D49   D(8,10,16,15)         179.6968         calculate D2E/DX2 analytically  !
 ! D50   D(8,10,16,30)           0.0804         calculate D2E/DX2 analytically  !
 ! D51   D(12,10,16,15)         -0.7054         calculate D2E/DX2 analytically  !
 ! D52   D(12,10,16,30)        179.6781         calculate D2E/DX2 analytically  !
 ! D53   D(7,11,17,18)         179.3449         calculate D2E/DX2 analytically  !
 ! D54   D(7,11,17,31)          -2.7069         calculate D2E/DX2 analytically  !
 ! D55   D(21,11,17,18)         -1.0644         calculate D2E/DX2 analytically  !
 ! D56   D(21,11,17,31)        176.8837         calculate D2E/DX2 analytically  !
 ! D57   D(7,11,21,20)        -179.7039         calculate D2E/DX2 analytically  !
 ! D58   D(7,11,21,35)          -0.0795         calculate D2E/DX2 analytically  !
 ! D59   D(17,11,21,20)          0.7022         calculate D2E/DX2 analytically  !
 ! D60   D(17,11,21,35)       -179.6734         calculate D2E/DX2 analytically  !
 ! D61   D(10,12,13,14)         -0.6019         calculate D2E/DX2 analytically  !
 ! D62   D(10,12,13,27)       -179.7258         calculate D2E/DX2 analytically  !
 ! D63   D(26,12,13,14)        177.3576         calculate D2E/DX2 analytically  !
 ! D64   D(26,12,13,27)         -1.7663         calculate D2E/DX2 analytically  !
 ! D65   D(12,13,14,15)         -0.2463         calculate D2E/DX2 analytically  !
 ! D66   D(12,13,14,28)       -179.8249         calculate D2E/DX2 analytically  !
 ! D67   D(27,13,14,15)        178.8724         calculate D2E/DX2 analytically  !
 ! D68   D(27,13,14,28)         -0.7062         calculate D2E/DX2 analytically  !
 ! D69   D(13,14,15,16)          0.6082         calculate D2E/DX2 analytically  !
 ! D70   D(13,14,15,29)       -179.714          calculate D2E/DX2 analytically  !
 ! D71   D(28,14,15,16)       -179.8133         calculate D2E/DX2 analytically  !
 ! D72   D(28,14,15,29)         -0.1355         calculate D2E/DX2 analytically  !
 ! D73   D(14,15,16,10)         -0.1249         calculate D2E/DX2 analytically  !
 ! D74   D(14,15,16,30)        179.489          calculate D2E/DX2 analytically  !
 ! D75   D(29,15,16,10)       -179.8043         calculate D2E/DX2 analytically  !
 ! D76   D(29,15,16,30)         -0.1904         calculate D2E/DX2 analytically  !
 ! D77   D(11,17,18,19)          0.6027         calculate D2E/DX2 analytically  !
 ! D78   D(11,17,18,32)        179.7272         calculate D2E/DX2 analytically  !
 ! D79   D(31,17,18,19)       -177.3583         calculate D2E/DX2 analytically  !
 ! D80   D(31,17,18,32)          1.7662         calculate D2E/DX2 analytically  !
 ! D81   D(17,18,19,20)          0.2437         calculate D2E/DX2 analytically  !
 ! D82   D(17,18,19,33)        179.8229         calculate D2E/DX2 analytically  !
 ! D83   D(32,18,19,20)       -178.8756         calculate D2E/DX2 analytically  !
 ! D84   D(32,18,19,33)          0.7036         calculate D2E/DX2 analytically  !
 ! D85   D(18,19,20,21)         -0.6067         calculate D2E/DX2 analytically  !
 ! D86   D(18,19,20,34)        179.7127         calculate D2E/DX2 analytically  !
 ! D87   D(33,19,20,21)        179.8142         calculate D2E/DX2 analytically  !
 ! D88   D(33,19,20,34)          0.1336         calculate D2E/DX2 analytically  !
 ! D89   D(19,20,21,11)          0.1263         calculate D2E/DX2 analytically  !
 ! D90   D(19,20,21,35)       -179.4956         calculate D2E/DX2 analytically  !
 ! D91   D(34,20,21,11)        179.8086         calculate D2E/DX2 analytically  !
 ! D92   D(34,20,21,35)          0.1867         calculate D2E/DX2 analytically  !
 --------------------------------------------------------------------------------
 Trust Radius=3.00D-01 FncErr=1.00D-07 GrdErr=1.00D-06
 Number of steps in this run=    201 maximum allowed number of steps=    210.
 GradGradGradGradGradGradGradGradGradGradGradGradGradGradGradGradGradGrad

 Leave Link  103 at Sat Apr 25 21:22:49 2015, MaxMem=   524288000 cpu:         0.1
 (Enter /opt/g09/l202.exe)
                          Input orientation:                          
 ---------------------------------------------------------------------
 Center     Atomic      Atomic             Coordinates (Angstroms)
 Number     Number       Type             X           Y           Z
 ---------------------------------------------------------------------
      1          6           0       -2.070820   -3.718690    0.032630
      2          6           0       -1.551780   -4.987730    0.070570
      3          6           0       -1.173080   -2.609260    0.015520
      4          6           0       -0.137380   -5.218260    0.075650
      5          6           0        0.758010   -4.179740    0.042730
      6          6           0        0.259170   -2.842690    0.020570
      7          6           0        0.862780   -1.588030   -0.058630
      8          6           0       -1.346530   -1.228090   -0.066430
      9          8           0       -0.117620   -0.646680   -0.124070
     10          6           0       -2.496040   -0.337260   -0.115950
     11          6           0        2.235890   -1.108100   -0.098830
     12          6           0       -3.758450   -0.746040    0.360120
     13          6           0       -4.854890    0.111890    0.294520
     14          6           0       -4.718060    1.398410   -0.233750
     15          6           0       -3.466670    1.821240   -0.692820
     16          6           0       -2.368000    0.967360   -0.637620
     17          6           0        3.300280   -1.897180    0.382770
     18          6           0        4.612710   -1.431540    0.326210
     19          6           0        4.894720   -0.167300   -0.198290
     20          6           0        3.845180    0.631560   -0.662810
     21          6           0        2.531980    0.170500   -0.616680
     22          1           0       -3.143570   -3.568070   -0.007600
     23          1           0       -2.221600   -5.842250    0.078300
     24          1           0        0.226370   -6.241240    0.087110
     25          1           0        1.823300   -4.377620    0.010140
     26          1           0       -3.875460   -1.724140    0.812730
     27          1           0       -5.817360   -0.221710    0.671140
     28          1           0       -5.573350    2.065240   -0.280850
     29          1           0       -3.347110    2.820510   -1.101130
     30          1           0       -1.403020    1.300930   -1.003600
     31          1           0        3.098170   -2.862560    0.832620
     32          1           0        5.417090   -2.054020    0.706960
     33          1           0        5.917730    0.193620   -0.238300
     34          1           0        4.051540    1.617760   -1.068260
     35          1           0        1.725170    0.793780   -0.986760
 ---------------------------------------------------------------------
                    Distance matrix (angstroms):
                    1          2          3          4          5
     1  C    0.000000
     2  C    1.371607   0.000000
     3  C    1.427258   2.409059   0.000000
     4  C    2.447193   1.433073   2.807699   0.000000
     5  C    2.866173   2.447193   2.489228   1.371616   0.000000
     6  C    2.489252   2.807710   1.451156   2.409070   1.427247
     7  C    3.626851   4.171900   2.278845   3.767880   2.595806
     8  C    2.595669   3.767730   1.394429   4.171773   3.626740
     9  O    3.643733   4.575961   2.232756   4.575983   3.643770
    10  C    3.411298   4.749030   2.632393   5.424403   5.037725
    11  C    5.037878   5.424635   3.726612   4.749344   3.411619
    12  C    3.433947   4.790111   3.205382   5.761408   5.682380
    13  C    4.742676   6.080034   4.586744   7.121327   7.070087
    14  C    5.767456   7.134474   5.356346   8.053489   7.821735
    15  C    5.758949   7.114186   5.039011   7.824914   7.375684
    16  C    4.743060   6.052342   3.827092   6.614100   6.060318
    17  C    5.682360   5.761203   4.544544   4.789718   3.433489
    18  C    7.070136   7.121290   5.912607   6.079916   4.742539
    19  C    7.822048   8.053955   6.544240   7.135073   5.768027
    20  C    7.376135   7.825691   6.012153   7.115230   5.759949
    21  C    6.060790   6.614888   4.674849   6.053391   4.744089
    22  H    1.084019   2.134324   2.191502   3.430340   3.949557
    23  H    2.129396   1.085782   3.399347   2.175625   3.412225
    24  H    3.412229   2.175633   3.892925   1.085787   2.129411
    25  H    3.949540   3.430314   3.479284   2.134299   1.084002
    26  H    2.800627   4.074471   2.953276   5.169662   5.300181
    27  H    5.164603   6.424236   5.263038   7.588300   7.700415
    28  H    6.769035   8.126556   6.426598   9.095396   8.898910
    29  H    6.758363   8.097203   5.954470   8.735502   8.195360
    30  H    5.168783   6.381474   4.047353   6.728036   5.983527
    31  H    5.300132   5.169052   4.356075   4.073219   2.799150
    32  H    7.700302   7.587938   6.649566   6.423636   5.164002
    33  H    8.899242   9.095898   7.628902   8.127199   6.769636
    34  H    8.195911   8.736511   6.807270   8.098565   6.759633
    35  H    5.984236   6.729205   4.580950   6.382980   5.170218
                    6          7          8          9         10
     6  C    0.000000
     7  C    1.394557   0.000000
     8  C    2.278766   2.238452   0.000000
     9  O    2.232790   1.360737   1.360728   0.000000
    10  C    3.726526   3.584604   1.455130   2.398476   0.000000
    11  C    2.632581   1.455122   3.584575   2.398448   4.794335
    12  C    4.544503   4.715937   2.496332   3.674229   1.409760
    13  C    5.912546   5.975466   3.772853   4.815846   2.436061
    14  C    6.544037   6.332082   4.277115   5.035720   2.822021
    15  C    6.011909   5.547022   3.766400   4.198838   2.435985
    16  C    4.674582   4.159710   2.487903   2.816570   1.410875
    17  C    3.205234   2.496360   4.716175   3.674599   6.023238
    18  C    4.586728   3.772872   5.975625   4.816096   7.206059
    19  C    5.356672   4.277209   6.332130   5.035759   7.393173
    20  C    5.039533   3.766474   5.546875   4.198562   6.438070
    21  C    3.827671   2.487986   4.159527   2.816173   5.078340
    22  H    3.479312   4.469228   2.950986   4.207667   3.296842
    23  H    3.892931   5.256476   4.698635   5.609067   5.515248
    24  H    3.399360   4.698789   5.256354   5.609102   6.504593
    25  H    2.191488   2.951125   4.469141   4.207742   5.915835
    26  H    4.355897   4.819617   2.722953   4.019935   2.165337
    27  H    6.649586   6.857380   4.641673   5.770615   3.415264
    28  H    7.628691   7.404021   5.362649   6.094594   3.907561
    29  H    6.807004   6.184271   4.632935   4.837939   3.415613
    30  H    4.580544   3.791162   2.697670   2.493794   2.160158
    31  H    2.952921   2.723182   4.820284   4.020782   6.210645
    32  H    5.262820   4.641661   6.857612   5.770982   8.138923
    33  H    6.426935   5.362749   7.404071   6.094637   8.431389
    34  H    5.955102   4.632994   6.183986   4.837466   6.899261
    35  H    4.048183   2.697807   3.790819   2.492997   4.456027
                   11         12         13         14         15
    11  C    0.000000
    12  C    6.022776   0.000000
    13  C    7.205710   1.393746   0.000000
    14  C    7.393120   2.423262   1.397471   0.000000
    15  C    6.438404   2.790116   2.413270   1.398395   0.000000
    16  C    5.078743   2.421689   2.790221   2.423158   1.392564
    17  C    1.409791   7.152014   8.399461   8.691075   7.795842
    18  C    2.436092   8.399249   9.592634   9.766547   8.769001
    19  C    2.822122   8.690461   9.766049   9.739520   8.608815
    20  C    2.436043   7.794829   8.767996   8.608207   7.408062
    21  C    1.410906   6.431461   7.443089   7.363252   6.222101
    22  H    5.915942   2.911554   4.069644   5.214987   5.442296
    23  H    6.504827   5.330355   6.514043   7.665301   7.802173
    24  H    5.515602   6.793419   8.137843   9.105745   8.902270
    25  H    3.297251   6.668343   8.052006   8.729914   8.179474
    26  H    6.209593   1.084079   2.144488   3.399325   3.873436
    27  H    8.138389   2.147269   1.086039   2.156867   3.399967
    28  H    8.431337   3.407051   2.159354   1.085542   2.160406
    29  H    6.899889   3.876175   3.399686   2.157364   1.086072
    30  H    4.456871   3.405564   3.874834   3.404653   2.150804
    31  H    2.165469   7.191394   8.508118   8.965850   8.207440
    32  H    3.415274   9.274785  10.505943  10.748278   9.792763
    33  H    3.907668   9.740099  10.786098  10.703811   9.535339
    34  H    3.415654   8.283946   9.135059   8.811947   7.530328
    35  H    2.160186   5.852796   6.738237   6.515199   5.300686
                   16         17         18         19         20
    16  C    0.000000
    17  C    6.432432   0.000000
    18  C    7.444058   1.393733   0.000000
    19  C    7.363937   2.423294   1.397474   0.000000
    20  C    6.222299   2.790104   2.413223   1.398388   0.000000
    21  C    4.964396   2.421670   2.790163   2.423159   1.392551
    22  H    4.644196   6.668393   8.052085   8.730161   8.179781
    23  H    6.848705   6.793191   8.137789   9.106238   8.903105
    24  H    7.695447   5.329840   6.513859   7.666009   7.803432
    25  H    6.823152   2.910826   4.069410   5.215732   5.443597
    26  H    3.408830   7.190692   8.507135   8.964484   8.205780
    27  H    3.876187   9.274789  10.505666  10.747443   9.791434
    28  H    3.406889   9.740763  10.786650  10.703810   9.534676
    29  H    2.146547   8.285309   9.136518   8.813052   7.530781
    30  H    1.084618   5.854140   6.739718   6.516575   5.301679
    31  H    6.834392   1.084054   2.144318   3.399234   3.873398
    32  H    8.458384   2.147227   1.086038   2.156864   3.399928
    33  H    8.331354   3.407083   2.159373   1.085548   2.160431
    34  H    6.466758   3.876169   3.399660   2.157369   1.086078
    35  H    4.111699   3.405562   3.874768   3.404616   2.150744
                   21         22         23         24         25
    21  C    0.000000
    22  H    6.823471   0.000000
    23  H    7.696277   2.455464   0.000000
    24  H    6.849932   4.302476   2.480288   0.000000
    25  H    4.645484   5.032443   4.302441   2.455441   0.000000
    26  H    6.832874   2.146784   4.498163   6.144569   6.337269
    27  H    8.457174   4.336815   6.698613   8.550000   8.722855
    28  H    8.330618   6.141065   8.596023  10.137542   9.813539
    29  H    6.466911   6.484689   8.814831   9.813103   8.932029
    30  H    4.112396   5.265804   7.270873   7.792874   6.609292
    31  H    3.408885   6.337431   6.143900   4.496499   2.144102
    32  H    3.876128   8.722835   8.549590   6.697806   4.335897
    33  H    3.406906   9.813801  10.138079   8.596796   6.141849
    34  H    2.146520   8.932382   9.814206   8.816501   6.486338
    35  H    1.084610   6.609774   7.794116   7.272627   5.267525
                   26         27         28         29         30
    26  H    0.000000
    27  H    2.459333   0.000000
    28  H    4.293967   2.489170   0.000000
    29  H    4.959421   4.300951   2.489867   0.000000
    30  H    4.308487   4.960805   4.300952   2.469437   0.000000
    31  H    7.065969   9.299830  10.035850   8.807855   6.400552
    32  H    9.299005  11.382948  11.778533  10.190262   7.790738
    33  H   10.034393  11.777602  11.642581   9.668624   7.443467
    34  H    8.805893  10.188442   9.667407   7.495846   5.464136
    35  H    6.398839   7.789070   7.441997   5.463400   3.169078
                   31         32         33         34         35
    31  H    0.000000
    32  H    2.459048   0.000000
    33  H    4.293836   2.489185   0.000000
    34  H    4.959388   4.300942   2.489914   0.000000
    35  H    4.308607   4.960738   4.300924   2.469328   0.000000
 Symmetry turned off by external request.
 Stoichiometry    C20H14O
 Framework group  C1[X(C20H14O)]
 Deg. of freedom    99
 Full point group                 C1      NOp   1
 Rotational constants (GHZ):      0.4662158      0.2125611      0.1478797
 Leave Link  202 at Sat Apr 25 21:22:49 2015, MaxMem=   524288000 cpu:         0.1
 (Enter /opt/g09/l301.exe)
 Standard basis: 6-311+G(d,p) (5D, 7F)
 Ernie: Thresh=  0.10000D-02 Tol=  0.10000D-05 Strict=F.
 AO basis set in the form of general basis input (Overlap normalization):
      1 0
 S   6 1.00       0.000000000000
      0.4563240000D+04  0.1966650249D-02
      0.6820240000D+03  0.1523060193D-01
      0.1549730000D+03  0.7612690966D-01
      0.4445530000D+02  0.2608010331D+00
      0.1302900000D+02  0.6164620782D+00
      0.1827730000D+01  0.2210060280D+00
 SP   3 1.00       0.000000000000
      0.2096420000D+02  0.1146600807D+00  0.4024869267D-01
      0.4803310000D+01  0.9199996477D+00  0.2375939567D+00
      0.1459330000D+01 -0.3030682134D-02  0.8158538515D+00
 SP   1 1.00       0.000000000000
      0.4834560000D+00  0.1000000000D+01  0.1000000000D+01
 SP   1 1.00       0.000000000000
      0.1455850000D+00  0.1000000000D+01  0.1000000000D+01
 SP   1 1.00       0.000000000000
      0.4380000000D-01  0.1000000000D+01  0.1000000000D+01
 D   1 1.00       0.000000000000
      0.6260000000D+00  0.1000000000D+01
 ****
      2 0
 S   6 1.00       0.000000000000
      0.4563240000D+04  0.1966650249D-02
      0.6820240000D+03  0.1523060193D-01
      0.1549730000D+03  0.7612690966D-01
      0.4445530000D+02  0.2608010331D+00
      0.1302900000D+02  0.6164620782D+00
      0.1827730000D+01  0.2210060280D+00
 SP   3 1.00       0.000000000000
      0.2096420000D+02  0.1146600807D+00  0.4024869267D-01
      0.4803310000D+01  0.9199996477D+00  0.2375939567D+00
      0.1459330000D+01 -0.3030682134D-02  0.8158538515D+00
 SP   1 1.00       0.000000000000
      0.4834560000D+00  0.1000000000D+01  0.1000000000D+01
 SP   1 1.00       0.000000000000
      0.1455850000D+00  0.1000000000D+01  0.1000000000D+01
 SP   1 1.00       0.000000000000
      0.4380000000D-01  0.1000000000D+01  0.1000000000D+01
 D   1 1.00       0.000000000000
      0.6260000000D+00  0.1000000000D+01
 ****
      3 0
 S   6 1.00       0.000000000000
      0.4563240000D+04  0.1966650249D-02
      0.6820240000D+03  0.1523060193D-01
      0.1549730000D+03  0.7612690966D-01
      0.4445530000D+02  0.2608010331D+00
      0.1302900000D+02  0.6164620782D+00
      0.1827730000D+01  0.2210060280D+00
 SP   3 1.00       0.000000000000
      0.2096420000D+02  0.1146600807D+00  0.4024869267D-01
      0.4803310000D+01  0.9199996477D+00  0.2375939567D+00
      0.1459330000D+01 -0.3030682134D-02  0.8158538515D+00
 SP   1 1.00       0.000000000000
      0.4834560000D+00  0.1000000000D+01  0.1000000000D+01
 SP   1 1.00       0.000000000000
      0.1455850000D+00  0.1000000000D+01  0.1000000000D+01
 SP   1 1.00       0.000000000000
      0.4380000000D-01  0.1000000000D+01  0.1000000000D+01
 D   1 1.00       0.000000000000
      0.6260000000D+00  0.1000000000D+01
 ****
      4 0
 S   6 1.00       0.000000000000
      0.4563240000D+04  0.1966650249D-02
      0.6820240000D+03  0.1523060193D-01
      0.1549730000D+03  0.7612690966D-01
      0.4445530000D+02  0.2608010331D+00
      0.1302900000D+02  0.6164620782D+00
      0.1827730000D+01  0.2210060280D+00
 SP   3 1.00       0.000000000000
      0.2096420000D+02  0.1146600807D+00  0.4024869267D-01
      0.4803310000D+01  0.9199996477D+00  0.2375939567D+00
      0.1459330000D+01 -0.3030682134D-02  0.8158538515D+00
 SP   1 1.00       0.000000000000
      0.4834560000D+00  0.1000000000D+01  0.1000000000D+01
 SP   1 1.00       0.000000000000
      0.1455850000D+00  0.1000000000D+01  0.1000000000D+01
 SP   1 1.00       0.000000000000
      0.4380000000D-01  0.1000000000D+01  0.1000000000D+01
 D   1 1.00       0.000000000000
      0.6260000000D+00  0.1000000000D+01
 ****
      5 0
 S   6 1.00       0.000000000000
      0.4563240000D+04  0.1966650249D-02
      0.6820240000D+03  0.1523060193D-01
      0.1549730000D+03  0.7612690966D-01
      0.4445530000D+02  0.2608010331D+00
      0.1302900000D+02  0.6164620782D+00
      0.1827730000D+01  0.2210060280D+00
 SP   3 1.00       0.000000000000
      0.2096420000D+02  0.1146600807D+00  0.4024869267D-01
      0.4803310000D+01  0.9199996477D+00  0.2375939567D+00
      0.1459330000D+01 -0.3030682134D-02  0.8158538515D+00
 SP   1 1.00       0.000000000000
      0.4834560000D+00  0.1000000000D+01  0.1000000000D+01
 SP   1 1.00       0.000000000000
      0.1455850000D+00  0.1000000000D+01  0.1000000000D+01
 SP   1 1.00       0.000000000000
      0.4380000000D-01  0.1000000000D+01  0.1000000000D+01
 D   1 1.00       0.000000000000
      0.6260000000D+00  0.1000000000D+01
 ****
      6 0
 S   6 1.00       0.000000000000
      0.4563240000D+04  0.1966650249D-02
      0.6820240000D+03  0.1523060193D-01
      0.1549730000D+03  0.7612690966D-01
      0.4445530000D+02  0.2608010331D+00
      0.1302900000D+02  0.6164620782D+00
      0.1827730000D+01  0.2210060280D+00
 SP   3 1.00       0.000000000000
      0.2096420000D+02  0.1146600807D+00  0.4024869267D-01
      0.4803310000D+01  0.9199996477D+00  0.2375939567D+00
      0.1459330000D+01 -0.3030682134D-02  0.8158538515D+00
 SP   1 1.00       0.000000000000
      0.4834560000D+00  0.1000000000D+01  0.1000000000D+01
 SP   1 1.00       0.000000000000
      0.1455850000D+00  0.1000000000D+01  0.1000000000D+01
 SP   1 1.00       0.000000000000
      0.4380000000D-01  0.1000000000D+01  0.1000000000D+01
 D   1 1.00       0.000000000000
      0.6260000000D+00  0.1000000000D+01
 ****
      7 0
 S   6 1.00       0.000000000000
      0.4563240000D+04  0.1966650249D-02
      0.6820240000D+03  0.1523060193D-01
      0.1549730000D+03  0.7612690966D-01
      0.4445530000D+02  0.2608010331D+00
      0.1302900000D+02  0.6164620782D+00
      0.1827730000D+01  0.2210060280D+00
 SP   3 1.00       0.000000000000
      0.2096420000D+02  0.1146600807D+00  0.4024869267D-01
      0.4803310000D+01  0.9199996477D+00  0.2375939567D+00
      0.1459330000D+01 -0.3030682134D-02  0.8158538515D+00
 SP   1 1.00       0.000000000000
      0.4834560000D+00  0.1000000000D+01  0.1000000000D+01
 SP   1 1.00       0.000000000000
      0.1455850000D+00  0.1000000000D+01  0.1000000000D+01
 SP   1 1.00       0.000000000000
      0.4380000000D-01  0.1000000000D+01  0.1000000000D+01
 D   1 1.00       0.000000000000
      0.6260000000D+00  0.1000000000D+01
 ****
      8 0
 S   6 1.00       0.000000000000
      0.4563240000D+04  0.1966650249D-02
      0.6820240000D+03  0.1523060193D-01
      0.1549730000D+03  0.7612690966D-01
      0.4445530000D+02  0.2608010331D+00
      0.1302900000D+02  0.6164620782D+00
      0.1827730000D+01  0.2210060280D+00
 SP   3 1.00       0.000000000000
      0.2096420000D+02  0.1146600807D+00  0.4024869267D-01
      0.4803310000D+01  0.9199996477D+00  0.2375939567D+00
      0.1459330000D+01 -0.3030682134D-02  0.8158538515D+00
 SP   1 1.00       0.000000000000
      0.4834560000D+00  0.1000000000D+01  0.1000000000D+01
 SP   1 1.00       0.000000000000
      0.1455850000D+00  0.1000000000D+01  0.1000000000D+01
 SP   1 1.00       0.000000000000
      0.4380000000D-01  0.1000000000D+01  0.1000000000D+01
 D   1 1.00       0.000000000000
      0.6260000000D+00  0.1000000000D+01
 ****
      9 0
 S   6 1.00       0.000000000000
      0.8588500000D+04  0.1895150083D-02
      0.1297230000D+04  0.1438590063D-01
      0.2992960000D+03  0.7073200310D-01
      0.8737710000D+02  0.2400010105D+00
      0.2567890000D+02  0.5947970261D+00
      0.3740040000D+01  0.2808020123D+00
 SP   3 1.00       0.000000000000
      0.4211750000D+02  0.1138890124D+00  0.3651139738D-01
      0.9628370000D+01  0.9208111006D+00  0.2371529830D+00
      0.2853320000D+01 -0.3274470358D-02  0.8197019412D+00
 SP   1 1.00       0.000000000000
      0.9056610000D+00  0.1000000000D+01  0.1000000000D+01
 SP   1 1.00       0.000000000000
      0.2556110000D+00  0.1000000000D+01  0.1000000000D+01
 SP   1 1.00       0.000000000000
      0.8450000000D-01  0.1000000000D+01  0.1000000000D+01
 D   1 1.00       0.000000000000
      0.1292000000D+01  0.1000000000D+01
 ****
     10 0
 S   6 1.00       0.000000000000
      0.4563240000D+04  0.1966650249D-02
      0.6820240000D+03  0.1523060193D-01
      0.1549730000D+03  0.7612690966D-01
      0.4445530000D+02  0.2608010331D+00
      0.1302900000D+02  0.6164620782D+00
      0.1827730000D+01  0.2210060280D+00
 SP   3 1.00       0.000000000000
      0.2096420000D+02  0.1146600807D+00  0.4024869267D-01
      0.4803310000D+01  0.9199996477D+00  0.2375939567D+00
      0.1459330000D+01 -0.3030682134D-02  0.8158538515D+00
 SP   1 1.00       0.000000000000
      0.4834560000D+00  0.1000000000D+01  0.1000000000D+01
 SP   1 1.00       0.000000000000
      0.1455850000D+00  0.1000000000D+01  0.1000000000D+01
 SP   1 1.00       0.000000000000
      0.4380000000D-01  0.1000000000D+01  0.1000000000D+01
 D   1 1.00       0.000000000000
      0.6260000000D+00  0.1000000000D+01
 ****
     11 0
 S   6 1.00       0.000000000000
      0.4563240000D+04  0.1966650249D-02
      0.6820240000D+03  0.1523060193D-01
      0.1549730000D+03  0.7612690966D-01
      0.4445530000D+02  0.2608010331D+00
      0.1302900000D+02  0.6164620782D+00
      0.1827730000D+01  0.2210060280D+00
 SP   3 1.00       0.000000000000
      0.2096420000D+02  0.1146600807D+00  0.4024869267D-01
      0.4803310000D+01  0.9199996477D+00  0.2375939567D+00
      0.1459330000D+01 -0.3030682134D-02  0.8158538515D+00
 SP   1 1.00       0.000000000000
      0.4834560000D+00  0.1000000000D+01  0.1000000000D+01
 SP   1 1.00       0.000000000000
      0.1455850000D+00  0.1000000000D+01  0.1000000000D+01
 SP   1 1.00       0.000000000000
      0.4380000000D-01  0.1000000000D+01  0.1000000000D+01
 D   1 1.00       0.000000000000
      0.6260000000D+00  0.1000000000D+01
 ****
     12 0
 S   6 1.00       0.000000000000
      0.4563240000D+04  0.1966650249D-02
      0.6820240000D+03  0.1523060193D-01
      0.1549730000D+03  0.7612690966D-01
      0.4445530000D+02  0.2608010331D+00
      0.1302900000D+02  0.6164620782D+00
      0.1827730000D+01  0.2210060280D+00
 SP   3 1.00       0.000000000000
      0.2096420000D+02  0.1146600807D+00  0.4024869267D-01
      0.4803310000D+01  0.9199996477D+00  0.2375939567D+00
      0.1459330000D+01 -0.3030682134D-02  0.8158538515D+00
 SP   1 1.00       0.000000000000
      0.4834560000D+00  0.1000000000D+01  0.1000000000D+01
 SP   1 1.00       0.000000000000
      0.1455850000D+00  0.1000000000D+01  0.1000000000D+01
 SP   1 1.00       0.000000000000
      0.4380000000D-01  0.1000000000D+01  0.1000000000D+01
 D   1 1.00       0.000000000000
      0.6260000000D+00  0.1000000000D+01
 ****
     13 0
 S   6 1.00       0.000000000000
      0.4563240000D+04  0.1966650249D-02
      0.6820240000D+03  0.1523060193D-01
      0.1549730000D+03  0.7612690966D-01
      0.4445530000D+02  0.2608010331D+00
      0.1302900000D+02  0.6164620782D+00
      0.1827730000D+01  0.2210060280D+00
 SP   3 1.00       0.000000000000
      0.2096420000D+02  0.1146600807D+00  0.4024869267D-01
      0.4803310000D+01  0.9199996477D+00  0.2375939567D+00
      0.1459330000D+01 -0.3030682134D-02  0.8158538515D+00
 SP   1 1.00       0.000000000000
      0.4834560000D+00  0.1000000000D+01  0.1000000000D+01
 SP   1 1.00       0.000000000000
      0.1455850000D+00  0.1000000000D+01  0.1000000000D+01
 SP   1 1.00       0.000000000000
      0.4380000000D-01  0.1000000000D+01  0.1000000000D+01
 D   1 1.00       0.000000000000
      0.6260000000D+00  0.1000000000D+01
 ****
     14 0
 S   6 1.00       0.000000000000
      0.4563240000D+04  0.1966650249D-02
      0.6820240000D+03  0.1523060193D-01
      0.1549730000D+03  0.7612690966D-01
      0.4445530000D+02  0.2608010331D+00
      0.1302900000D+02  0.6164620782D+00
      0.1827730000D+01  0.2210060280D+00
 SP   3 1.00       0.000000000000
      0.2096420000D+02  0.1146600807D+00  0.4024869267D-01
      0.4803310000D+01  0.9199996477D+00  0.2375939567D+00
      0.1459330000D+01 -0.3030682134D-02  0.8158538515D+00
 SP   1 1.00       0.000000000000
      0.4834560000D+00  0.1000000000D+01  0.1000000000D+01
 SP   1 1.00       0.000000000000
      0.1455850000D+00  0.1000000000D+01  0.1000000000D+01
 SP   1 1.00       0.000000000000
      0.4380000000D-01  0.1000000000D+01  0.1000000000D+01
 D   1 1.00       0.000000000000
      0.6260000000D+00  0.1000000000D+01
 ****
     15 0
 S   6 1.00       0.000000000000
      0.4563240000D+04  0.1966650249D-02
      0.6820240000D+03  0.1523060193D-01
      0.1549730000D+03  0.7612690966D-01
      0.4445530000D+02  0.2608010331D+00
      0.1302900000D+02  0.6164620782D+00
      0.1827730000D+01  0.2210060280D+00
 SP   3 1.00       0.000000000000
      0.2096420000D+02  0.1146600807D+00  0.4024869267D-01
      0.4803310000D+01  0.9199996477D+00  0.2375939567D+00
      0.1459330000D+01 -0.3030682134D-02  0.8158538515D+00
 SP   1 1.00       0.000000000000
      0.4834560000D+00  0.1000000000D+01  0.1000000000D+01
 SP   1 1.00       0.000000000000
      0.1455850000D+00  0.1000000000D+01  0.1000000000D+01
 SP   1 1.00       0.000000000000
      0.4380000000D-01  0.1000000000D+01  0.1000000000D+01
 D   1 1.00       0.000000000000
      0.6260000000D+00  0.1000000000D+01
 ****
     16 0
 S   6 1.00       0.000000000000
      0.4563240000D+04  0.1966650249D-02
      0.6820240000D+03  0.1523060193D-01
      0.1549730000D+03  0.7612690966D-01
      0.4445530000D+02  0.2608010331D+00
      0.1302900000D+02  0.6164620782D+00
      0.1827730000D+01  0.2210060280D+00
 SP   3 1.00       0.000000000000
      0.2096420000D+02  0.1146600807D+00  0.4024869267D-01
      0.4803310000D+01  0.9199996477D+00  0.2375939567D+00
      0.1459330000D+01 -0.3030682134D-02  0.8158538515D+00
 SP   1 1.00       0.000000000000
      0.4834560000D+00  0.1000000000D+01  0.1000000000D+01
 SP   1 1.00       0.000000000000
      0.1455850000D+00  0.1000000000D+01  0.1000000000D+01
 SP   1 1.00       0.000000000000
      0.4380000000D-01  0.1000000000D+01  0.1000000000D+01
 D   1 1.00       0.000000000000
      0.6260000000D+00  0.1000000000D+01
 ****
     17 0
 S   6 1.00       0.000000000000
      0.4563240000D+04  0.1966650249D-02
      0.6820240000D+03  0.1523060193D-01
      0.1549730000D+03  0.7612690966D-01
      0.4445530000D+02  0.2608010331D+00
      0.1302900000D+02  0.6164620782D+00
      0.1827730000D+01  0.2210060280D+00
 SP   3 1.00       0.000000000000
      0.2096420000D+02  0.1146600807D+00  0.4024869267D-01
      0.4803310000D+01  0.9199996477D+00  0.2375939567D+00
      0.1459330000D+01 -0.3030682134D-02  0.8158538515D+00
 SP   1 1.00       0.000000000000
      0.4834560000D+00  0.1000000000D+01  0.1000000000D+01
 SP   1 1.00       0.000000000000
      0.1455850000D+00  0.1000000000D+01  0.1000000000D+01
 SP   1 1.00       0.000000000000
      0.4380000000D-01  0.1000000000D+01  0.1000000000D+01
 D   1 1.00       0.000000000000
      0.6260000000D+00  0.1000000000D+01
 ****
     18 0
 S   6 1.00       0.000000000000
      0.4563240000D+04  0.1966650249D-02
      0.6820240000D+03  0.1523060193D-01
      0.1549730000D+03  0.7612690966D-01
      0.4445530000D+02  0.2608010331D+00
      0.1302900000D+02  0.6164620782D+00
      0.1827730000D+01  0.2210060280D+00
 SP   3 1.00       0.000000000000
      0.2096420000D+02  0.1146600807D+00  0.4024869267D-01
      0.4803310000D+01  0.9199996477D+00  0.2375939567D+00
      0.1459330000D+01 -0.3030682134D-02  0.8158538515D+00
 SP   1 1.00       0.000000000000
      0.4834560000D+00  0.1000000000D+01  0.1000000000D+01
 SP   1 1.00       0.000000000000
      0.1455850000D+00  0.1000000000D+01  0.1000000000D+01
 SP   1 1.00       0.000000000000
      0.4380000000D-01  0.1000000000D+01  0.1000000000D+01
 D   1 1.00       0.000000000000
      0.6260000000D+00  0.1000000000D+01
 ****
     19 0
 S   6 1.00       0.000000000000
      0.4563240000D+04  0.1966650249D-02
      0.6820240000D+03  0.1523060193D-01
      0.1549730000D+03  0.7612690966D-01
      0.4445530000D+02  0.2608010331D+00
      0.1302900000D+02  0.6164620782D+00
      0.1827730000D+01  0.2210060280D+00
 SP   3 1.00       0.000000000000
      0.2096420000D+02  0.1146600807D+00  0.4024869267D-01
      0.4803310000D+01  0.9199996477D+00  0.2375939567D+00
      0.1459330000D+01 -0.3030682134D-02  0.8158538515D+00
 SP   1 1.00       0.000000000000
      0.4834560000D+00  0.1000000000D+01  0.1000000000D+01
 SP   1 1.00       0.000000000000
      0.1455850000D+00  0.1000000000D+01  0.1000000000D+01
 SP   1 1.00       0.000000000000
      0.4380000000D-01  0.1000000000D+01  0.1000000000D+01
 D   1 1.00       0.000000000000
      0.6260000000D+00  0.1000000000D+01
 ****
     20 0
 S   6 1.00       0.000000000000
      0.4563240000D+04  0.1966650249D-02
      0.6820240000D+03  0.1523060193D-01
      0.1549730000D+03  0.7612690966D-01
      0.4445530000D+02  0.2608010331D+00
      0.1302900000D+02  0.6164620782D+00
      0.1827730000D+01  0.2210060280D+00
 SP   3 1.00       0.000000000000
      0.2096420000D+02  0.1146600807D+00  0.4024869267D-01
      0.4803310000D+01  0.9199996477D+00  0.2375939567D+00
      0.1459330000D+01 -0.3030682134D-02  0.8158538515D+00
 SP   1 1.00       0.000000000000
      0.4834560000D+00  0.1000000000D+01  0.1000000000D+01
 SP   1 1.00       0.000000000000
      0.1455850000D+00  0.1000000000D+01  0.1000000000D+01
 SP   1 1.00       0.000000000000
      0.4380000000D-01  0.1000000000D+01  0.1000000000D+01
 D   1 1.00       0.000000000000
      0.6260000000D+00  0.1000000000D+01
 ****
     21 0
 S   6 1.00       0.000000000000
      0.4563240000D+04  0.1966650249D-02
      0.6820240000D+03  0.1523060193D-01
      0.1549730000D+03  0.7612690966D-01
      0.4445530000D+02  0.2608010331D+00
      0.1302900000D+02  0.6164620782D+00
      0.1827730000D+01  0.2210060280D+00
 SP   3 1.00       0.000000000000
      0.2096420000D+02  0.1146600807D+00  0.4024869267D-01
      0.4803310000D+01  0.9199996477D+00  0.2375939567D+00
      0.1459330000D+01 -0.3030682134D-02  0.8158538515D+00
 SP   1 1.00       0.000000000000
      0.4834560000D+00  0.1000000000D+01  0.1000000000D+01
 SP   1 1.00       0.000000000000
      0.1455850000D+00  0.1000000000D+01  0.1000000000D+01
 SP   1 1.00       0.000000000000
      0.4380000000D-01  0.1000000000D+01  0.1000000000D+01
 D   1 1.00       0.000000000000
      0.6260000000D+00  0.1000000000D+01
 ****
     22 0
 S   3 1.00       0.000000000000
      0.3386500000D+02  0.2549381454D-01
      0.5094790000D+01  0.1903731086D+00
      0.1158790000D+01  0.8521614860D+00
 S   1 1.00       0.000000000000
      0.3258400000D+00  0.1000000000D+01
 S   1 1.00       0.000000000000
      0.1027410000D+00  0.1000000000D+01
 P   1 1.00       0.000000000000
      0.7500000000D+00  0.1000000000D+01
 ****
     23 0
 S   3 1.00       0.000000000000
      0.3386500000D+02  0.2549381454D-01
      0.5094790000D+01  0.1903731086D+00
      0.1158790000D+01  0.8521614860D+00
 S   1 1.00       0.000000000000
      0.3258400000D+00  0.1000000000D+01
 S   1 1.00       0.000000000000
      0.1027410000D+00  0.1000000000D+01
 P   1 1.00       0.000000000000
      0.7500000000D+00  0.1000000000D+01
 ****
     24 0
 S   3 1.00       0.000000000000
      0.3386500000D+02  0.2549381454D-01
      0.5094790000D+01  0.1903731086D+00
      0.1158790000D+01  0.8521614860D+00
 S   1 1.00       0.000000000000
      0.3258400000D+00  0.1000000000D+01
 S   1 1.00       0.000000000000
      0.1027410000D+00  0.1000000000D+01
 P   1 1.00       0.000000000000
      0.7500000000D+00  0.1000000000D+01
 ****
     25 0
 S   3 1.00       0.000000000000
      0.3386500000D+02  0.2549381454D-01
      0.5094790000D+01  0.1903731086D+00
      0.1158790000D+01  0.8521614860D+00
 S   1 1.00       0.000000000000
      0.3258400000D+00  0.1000000000D+01
 S   1 1.00       0.000000000000
      0.1027410000D+00  0.1000000000D+01
 P   1 1.00       0.000000000000
      0.7500000000D+00  0.1000000000D+01
 ****
     26 0
 S   3 1.00       0.000000000000
      0.3386500000D+02  0.2549381454D-01
      0.5094790000D+01  0.1903731086D+00
      0.1158790000D+01  0.8521614860D+00
 S   1 1.00       0.000000000000
      0.3258400000D+00  0.1000000000D+01
 S   1 1.00       0.000000000000
      0.1027410000D+00  0.1000000000D+01
 P   1 1.00       0.000000000000
      0.7500000000D+00  0.1000000000D+01
 ****
     27 0
 S   3 1.00       0.000000000000
      0.3386500000D+02  0.2549381454D-01
      0.5094790000D+01  0.1903731086D+00
      0.1158790000D+01  0.8521614860D+00
 S   1 1.00       0.000000000000
      0.3258400000D+00  0.1000000000D+01
 S   1 1.00       0.000000000000
      0.1027410000D+00  0.1000000000D+01
 P   1 1.00       0.000000000000
      0.7500000000D+00  0.1000000000D+01
 ****
     28 0
 S   3 1.00       0.000000000000
      0.3386500000D+02  0.2549381454D-01
      0.5094790000D+01  0.1903731086D+00
      0.1158790000D+01  0.8521614860D+00
 S   1 1.00       0.000000000000
      0.3258400000D+00  0.1000000000D+01
 S   1 1.00       0.000000000000
      0.1027410000D+00  0.1000000000D+01
 P   1 1.00       0.000000000000
      0.7500000000D+00  0.1000000000D+01
 ****
     29 0
 S   3 1.00       0.000000000000
      0.3386500000D+02  0.2549381454D-01
      0.5094790000D+01  0.1903731086D+00
      0.1158790000D+01  0.8521614860D+00
 S   1 1.00       0.000000000000
      0.3258400000D+00  0.1000000000D+01
 S   1 1.00       0.000000000000
      0.1027410000D+00  0.1000000000D+01
 P   1 1.00       0.000000000000
      0.7500000000D+00  0.1000000000D+01
 ****
     30 0
 S   3 1.00       0.000000000000
      0.3386500000D+02  0.2549381454D-01
      0.5094790000D+01  0.1903731086D+00
      0.1158790000D+01  0.8521614860D+00
 S   1 1.00       0.000000000000
      0.3258400000D+00  0.1000000000D+01
 S   1 1.00       0.000000000000
      0.1027410000D+00  0.1000000000D+01
 P   1 1.00       0.000000000000
      0.7500000000D+00  0.1000000000D+01
 ****
     31 0
 S   3 1.00       0.000000000000
      0.3386500000D+02  0.2549381454D-01
      0.5094790000D+01  0.1903731086D+00
      0.1158790000D+01  0.8521614860D+00
 S   1 1.00       0.000000000000
      0.3258400000D+00  0.1000000000D+01
 S   1 1.00       0.000000000000
      0.1027410000D+00  0.1000000000D+01
 P   1 1.00       0.000000000000
      0.7500000000D+00  0.1000000000D+01
 ****
     32 0
 S   3 1.00       0.000000000000
      0.3386500000D+02  0.2549381454D-01
      0.5094790000D+01  0.1903731086D+00
      0.1158790000D+01  0.8521614860D+00
 S   1 1.00       0.000000000000
      0.3258400000D+00  0.1000000000D+01
 S   1 1.00       0.000000000000
      0.1027410000D+00  0.1000000000D+01
 P   1 1.00       0.000000000000
      0.7500000000D+00  0.1000000000D+01
 ****
     33 0
 S   3 1.00       0.000000000000
      0.3386500000D+02  0.2549381454D-01
      0.5094790000D+01  0.1903731086D+00
      0.1158790000D+01  0.8521614860D+00
 S   1 1.00       0.000000000000
      0.3258400000D+00  0.1000000000D+01
 S   1 1.00       0.000000000000
      0.1027410000D+00  0.1000000000D+01
 P   1 1.00       0.000000000000
      0.7500000000D+00  0.1000000000D+01
 ****
     34 0
 S   3 1.00       0.000000000000
      0.3386500000D+02  0.2549381454D-01
      0.5094790000D+01  0.1903731086D+00
      0.1158790000D+01  0.8521614860D+00
 S   1 1.00       0.000000000000
      0.3258400000D+00  0.1000000000D+01
 S   1 1.00       0.000000000000
      0.1027410000D+00  0.1000000000D+01
 P   1 1.00       0.000000000000
      0.7500000000D+00  0.1000000000D+01
 ****
     35 0
 S   3 1.00       0.000000000000
      0.3386500000D+02  0.2549381454D-01
      0.5094790000D+01  0.1903731086D+00
      0.1158790000D+01  0.8521614860D+00
 S   1 1.00       0.000000000000
      0.3258400000D+00  0.1000000000D+01
 S   1 1.00       0.000000000000
      0.1027410000D+00  0.1000000000D+01
 P   1 1.00       0.000000000000
      0.7500000000D+00  0.1000000000D+01
 ****

   546 basis functions,   868 primitive gaussians,   567 cartesian basis functions
    71 alpha electrons       71 beta electrons
       nuclear repulsion energy      1455.7682801451 Hartrees.
 IExCor= 1614 DFT=T Ex+Corr=B971 ExCW=0 ScaHFX=  0.210000
 ScaDFX=  1.000000  1.000000  1.000000  1.000000 ScalE2=  1.000000  1.000000
 IRadAn=      5 IRanWt=     -1 IRanGd=            0 ICorTp=0 IEmpDi=  4
 NAtoms=   35 NActive=   35 NUniq=   35 SFac= 1.00D+00 NAtFMM=   60 NAOKFM=F Big=F
 Integral buffers will be    131072 words long.
 Raffenetti 2 integral format.
 Two-electron integral symmetry is turned off.
 Leave Link  301 at Sat Apr 25 21:22:50 2015, MaxMem=   524288000 cpu:         0.4
 (Enter /opt/g09/l302.exe)
 NPDir=0 NMtPBC=     1 NCelOv=     1 NCel=       1 NClECP=     1 NCelD=      1
         NCelK=      1 NCelE2=     1 NClLst=     1 CellRange=     0.0.
 One-electron integrals computed using PRISM.
 NBasis=   546 RedAO= T EigKep=  1.18D-06  NBF=   546
 NBsUse=   540 1.00D-06 EigRej=  9.47D-07 NBFU=   540
 Precomputing XC quadrature grid using
 IXCGrd= 4 IRadAn=           5 IRanWt=          -1 IRanGd=           0 AccXCQ= 0.00D+00.
 Generated NRdTot=       0 NPtTot=           0 NUsed=           0 NTot=          32
 NSgBfM=   560   560   560   560   560 MxSgAt=    35 MxSgA2=    35.
 Leave Link  302 at Sat Apr 25 21:22:51 2015, MaxMem=   524288000 cpu:         9.2
 (Enter /opt/g09/l303.exe)
 DipDrv:  MaxL=1.
 Leave Link  303 at Sat Apr 25 21:22:51 2015, MaxMem=   524288000 cpu:         0.8
 (Enter /opt/g09/l401.exe)
 ExpMin= 4.38D-02 ExpMax= 8.59D+03 ExpMxC= 1.30D+03 IAcc=3 IRadAn=         5 AccDes= 0.00D+00
 Harris functional with IExCor= 1614 and IRadAn=       5 diagonalized for initial guess.
 HarFok:  IExCor= 1614 AccDes= 0.00D+00 IRadAn=         5 IDoV= 1 UseB2=F ITyADJ=14
 ICtDFT=  3500011 ScaDFX=  1.000000  1.000000  1.000000  1.000000
 FoFCou: FMM=F IPFlag=           0 FMFlag=      100000 FMFlg1=           0
         NFxFlg=           0 DoJE=T BraDBF=F KetDBF=T FulRan=T
         wScrn=  0.000000 ICntrl=     500 IOpCl=  0 I1Cent=   200000004 NGrid=           0
         NMat0=    1 NMatS0=      1 NMatT0=    0 NMatD0=    1 NMtDS0=    0 NMtDT0=    0
 Symmetry not used in FoFCou.
 Harris En= -821.569695849373    
 JPrj=0 DoOrth=F DoCkMO=T.
 Mixing orbitals, IMix= 1 IMixAn=  0 NRI=1 NE=   71 Coef=  7.07106781D-01  7.07106781D-01
 Leave Link  401 at Sat Apr 25 21:23:00 2015, MaxMem=   524288000 cpu:        71.1
 (Enter /opt/g09/l502.exe)
 Closed shell SCF:
 Using DIIS extrapolation, IDIIS=  1040.
 Two-electron integral symmetry not used.
 IVT=      991025 IEndB=      991025 NGot=   524288000 MDV=   523635672
 LenX=   523635672 LenY=   523313616
 Requested convergence on RMS density matrix=1.00D-08 within 128 cycles.
 Requested convergence on MAX density matrix=1.00D-06.
 Requested convergence on             energy=1.00D-06.
 No special actions if energy rises.
 Fock matrices will be formed incrementally for  20 cycles.

 Cycle   1  Pass 1  IDiag  1:
 FoFJK:  IHMeth= 1 ICntrl=       0 DoSepK=F KAlg= 0 I1Cent=   0 FoldK=F
 IRaf= 760000000 NMat=   1 IRICut=       1 DoRegI=T DoRafI=F ISym2E= 0.
 FoFCou: FMM=F IPFlag=           0 FMFlag=      100000 FMFlg1=           0
         NFxFlg=           0 DoJE=F BraDBF=F KetDBF=F FulRan=T
         wScrn=  0.000000 ICntrl=       0 IOpCl=  0 I1Cent=           0 NGrid=           0
         NMat0=    1 NMatS0=      1 NMatT0=    0 NMatD0=    1 NMtDS0=    0 NMtDT0=    0
 Symmetry not used in FoFCou.
 E= -845.337262747685    
 DIIS: error= 6.24D-02 at cycle   1 NSaved=   1.
 NSaved= 1 IEnMin= 1 EnMin= -845.337262747685     IErMin= 1 ErrMin= 6.24D-02
 ErrMax= 6.24D-02  0.00D+00 EMaxC= 1.00D-01 BMatC= 1.66D+00 BMatP= 1.66D+00
 IDIUse=3 WtCom= 3.76D-01 WtEn= 6.24D-01
 Coeff-Com:  0.100D+01
 Coeff-En:   0.100D+01
 Coeff:      0.100D+01
 Gap=    -0.068 Goal=   None    Shift=    0.000
 GapD=   -0.068 DampG=0.250 DampE=0.500 DampFc=0.2500 IDamp=-1.
 Damping current iteration by 2.50D-01
 RMSDP=4.72D-02 MaxDP=3.00D+00              OVMax= 5.52D-01

 Cycle   2  Pass 1  IDiag  1:
 RMSU=  1.07D-02    CP:  1.07D+00
 E= -845.445171404489     Delta-E=       -0.107908656803 Rises=F Damp=T
 DIIS: error= 4.49D-02 at cycle   2 NSaved=   2.
 NSaved= 2 IEnMin= 2 EnMin= -845.445171404489     IErMin= 2 ErrMin= 4.49D-02
 ErrMax= 4.49D-02  0.00D+00 EMaxC= 1.00D-01 BMatC= 8.23D-01 BMatP= 1.66D+00
 IDIUse=3 WtCom= 5.51D-01 WtEn= 4.49D-01
 Coeff-Com: -0.140D+01 0.240D+01
 Coeff-En:   0.000D+00 0.100D+01
 Coeff:     -0.771D+00 0.177D+01
 Gap=     0.180 Goal=   None    Shift=    0.000
 RMSDP=2.39D-02 MaxDP=1.31D+00 DE=-1.08D-01 OVMax= 7.13D-01

 Cycle   3  Pass 1  IDiag  1:
 RMSU=  2.38D-02    CP:  1.04D+00  1.07D+00
 E= -845.333060901634     Delta-E=        0.112110502855 Rises=F Damp=F
 DIIS: error= 3.14D-02 at cycle   3 NSaved=   3.
 NSaved= 3 IEnMin= 2 EnMin= -845.445171404489     IErMin= 3 ErrMin= 3.14D-02
 ErrMax= 3.14D-02  0.00D+00 EMaxC= 1.00D-01 BMatC= 3.21D-01 BMatP= 8.23D-01
 IDIUse=3 WtCom= 6.86D-01 WtEn= 3.14D-01
 Coeff-Com: -0.101D+01 0.142D+01 0.587D+00
 Coeff-En:   0.000D+00 0.719D+00 0.281D+00
 Coeff:     -0.692D+00 0.120D+01 0.491D+00
 Gap=     0.112 Goal=   None    Shift=    0.000
 RMSDP=3.30D-02 MaxDP=2.32D+00 DE= 1.12D-01 OVMax= 4.65D-01

 Cycle   4  Pass 1  IDiag  1:
 RMSU=  1.14D-02    CP:  8.32D-01  7.24D-01 -1.30D-01
 E= -845.688131223695     Delta-E=       -0.355070322061 Rises=F Damp=F
 DIIS: error= 1.21D-02 at cycle   4 NSaved=   4.
 NSaved= 4 IEnMin= 4 EnMin= -845.688131223695     IErMin= 4 ErrMin= 1.21D-02
 ErrMax= 1.21D-02  0.00D+00 EMaxC= 1.00D-01 BMatC= 4.24D-02 BMatP= 3.21D-01
 IDIUse=3 WtCom= 8.79D-01 WtEn= 1.21D-01
 Coeff-Com: -0.412D+00 0.583D+00 0.361D+00 0.469D+00
 Coeff-En:   0.000D+00 0.000D+00 0.135D+00 0.865D+00
 Coeff:     -0.363D+00 0.512D+00 0.334D+00 0.517D+00
 Gap=     0.105 Goal=   None    Shift=    0.000
 RMSDP=8.32D-03 MaxDP=5.32D-01 DE=-3.55D-01 OVMax= 1.50D-01

 Cycle   5  Pass 1  IDiag  1:
 RMSU=  3.73D-03    CP:  8.23D-01  2.85D-01  1.02D-01  8.68D-01
 E= -845.731440078308     Delta-E=       -0.043308854613 Rises=F Damp=F
 DIIS: error= 4.54D-03 at cycle   5 NSaved=   5.
 NSaved= 5 IEnMin= 5 EnMin= -845.731440078308     IErMin= 5 ErrMin= 4.54D-03
 ErrMax= 4.54D-03  0.00D+00 EMaxC= 1.00D-01 BMatC= 5.84D-03 BMatP= 4.24D-02
 IDIUse=3 WtCom= 9.55D-01 WtEn= 4.54D-02
 Coeff-Com: -0.647D-01 0.953D-01 0.845D-01 0.312D+00 0.573D+00
 Coeff-En:   0.000D+00 0.000D+00 0.000D+00 0.143D+00 0.857D+00
 Coeff:     -0.617D-01 0.910D-01 0.807D-01 0.304D+00 0.586D+00
 Gap=     0.111 Goal=   None    Shift=    0.000
 RMSDP=2.63D-03 MaxDP=1.44D-01 DE=-4.33D-02 OVMax= 5.67D-02

 Cycle   6  Pass 1  IDiag  1:
 RMSU=  1.63D-03    CP:  8.20D-01  3.68D-01  5.15D-02  9.32D-01  6.78D-01
 E= -845.736858808381     Delta-E=       -0.005418730073 Rises=F Damp=F
 DIIS: error= 1.89D-03 at cycle   6 NSaved=   6.
 NSaved= 6 IEnMin= 6 EnMin= -845.736858808381     IErMin= 6 ErrMin= 1.89D-03
 ErrMax= 1.89D-03  0.00D+00 EMaxC= 1.00D-01 BMatC= 1.11D-03 BMatP= 5.84D-03
 IDIUse=3 WtCom= 9.81D-01 WtEn= 1.89D-02
 Coeff-Com:  0.231D-01-0.306D-01-0.794D-02 0.110D+00 0.400D+00 0.505D+00
 Coeff-En:   0.000D+00 0.000D+00 0.000D+00 0.000D+00 0.151D+00 0.849D+00
 Coeff:      0.227D-01-0.301D-01-0.779D-02 0.108D+00 0.395D+00 0.512D+00
 Gap=     0.114 Goal=   None    Shift=    0.000
 RMSDP=1.12D-03 MaxDP=8.09D-02 DE=-5.42D-03 OVMax= 1.95D-02

 Cycle   7  Pass 1  IDiag  1:
 RMSU=  5.05D-04    CP:  8.17D-01  3.25D-01  6.76D-02  9.12D-01  7.76D-01
                    CP:  6.26D-01
 E= -845.737949397985     Delta-E=       -0.001090589604 Rises=F Damp=F
 DIIS: error= 7.74D-04 at cycle   7 NSaved=   7.
 NSaved= 7 IEnMin= 7 EnMin= -845.737949397985     IErMin= 7 ErrMin= 7.74D-04
 ErrMax= 7.74D-04  0.00D+00 EMaxC= 1.00D-01 BMatC= 1.47D-04 BMatP= 1.11D-03
 IDIUse=3 WtCom= 9.92D-01 WtEn= 7.74D-03
 Coeff-Com:  0.185D-01-0.255D-01-0.132D-01 0.262D-01 0.182D+00 0.327D+00
 Coeff-Com:  0.485D+00
 Coeff-En:   0.000D+00 0.000D+00 0.000D+00 0.000D+00 0.000D+00 0.874D-01
 Coeff-En:   0.913D+00
 Coeff:      0.183D-01-0.253D-01-0.131D-01 0.260D-01 0.181D+00 0.325D+00
 Coeff:      0.488D+00
 Gap=     0.115 Goal=   None    Shift=    0.000
 RMSDP=2.97D-04 MaxDP=1.77D-02 DE=-1.09D-03 OVMax= 5.61D-03

 Cycle   8  Pass 1  IDiag  1:
 RMSU=  1.99D-04    CP:  8.18D-01  3.37D-01  6.42D-02  9.11D-01  7.57D-01
                    CP:  6.45D-01  7.82D-01
 E= -845.738110873052     Delta-E=       -0.000161475067 Rises=F Damp=F
 DIIS: error= 1.42D-04 at cycle   8 NSaved=   8.
 NSaved= 8 IEnMin= 8 EnMin= -845.738110873052     IErMin= 8 ErrMin= 1.42D-04
 ErrMax= 1.42D-04  0.00D+00 EMaxC= 1.00D-01 BMatC= 1.18D-05 BMatP= 1.47D-04
 IDIUse=3 WtCom= 9.99D-01 WtEn= 1.42D-03
 Coeff-Com:  0.242D-02-0.351D-02-0.338D-02-0.454D-02 0.357D-01 0.875D-01
 Coeff-Com:  0.257D+00 0.629D+00
 Coeff-En:   0.000D+00 0.000D+00 0.000D+00 0.000D+00 0.000D+00 0.000D+00
 Coeff-En:   0.000D+00 0.100D+01
 Coeff:      0.241D-02-0.351D-02-0.337D-02-0.453D-02 0.356D-01 0.873D-01
 Coeff:      0.257D+00 0.629D+00
 Gap=     0.115 Goal=   None    Shift=    0.000
 RMSDP=1.35D-04 MaxDP=7.12D-03 DE=-1.61D-04 OVMax= 1.28D-03

 Cycle   9  Pass 1  IDiag  1:
 RMSU=  5.21D-05    CP:  8.18D-01  3.33D-01  6.78D-02  9.09D-01  7.69D-01
                    CP:  6.52D-01  8.87D-01  8.39D-01
 E= -845.738122735057     Delta-E=       -0.000011862005 Rises=F Damp=F
 DIIS: error= 7.66D-05 at cycle   9 NSaved=   9.
 NSaved= 9 IEnMin= 9 EnMin= -845.738122735057     IErMin= 9 ErrMin= 7.66D-05
 ErrMax= 7.66D-05  0.00D+00 EMaxC= 1.00D-01 BMatC= 1.22D-06 BMatP= 1.18D-05
 IDIUse=1 WtCom= 1.00D+00 WtEn= 0.00D+00
 Coeff-Com: -0.175D-03 0.172D-03-0.401D-03-0.544D-02 0.459D-03 0.115D-01
 Coeff-Com:  0.907D-01 0.335D+00 0.568D+00
 Coeff:     -0.175D-03 0.172D-03-0.401D-03-0.544D-02 0.459D-03 0.115D-01
 Coeff:      0.907D-01 0.335D+00 0.568D+00
 Gap=     0.115 Goal=   None    Shift=    0.000
 RMSDP=2.26D-05 MaxDP=1.10D-03 DE=-1.19D-05 OVMax= 6.97D-04

 Cycle  10  Pass 1  IDiag  1:
 RMSU=  1.52D-05    CP:  8.18D-01  3.32D-01  6.80D-02  9.09D-01  7.70D-01
                    CP:  6.57D-01  8.90D-01  8.27D-01  7.64D-01
 E= -845.738124041565     Delta-E=       -0.000001306508 Rises=F Damp=F
 DIIS: error= 1.06D-05 at cycle  10 NSaved=  10.
 NSaved=10 IEnMin=10 EnMin= -845.738124041565     IErMin=10 ErrMin= 1.06D-05
 ErrMax= 1.06D-05  0.00D+00 EMaxC= 1.00D-01 BMatC= 1.39D-07 BMatP= 1.22D-06
 IDIUse=1 WtCom= 1.00D+00 WtEn= 0.00D+00
 Coeff-Com: -0.270D-03 0.356D-03 0.261D-03-0.268D-02-0.605D-02-0.862D-02
 Coeff-Com:  0.116D-01 0.887D-01 0.298D+00 0.618D+00
 Coeff:     -0.270D-03 0.356D-03 0.261D-03-0.268D-02-0.605D-02-0.862D-02
 Coeff:      0.116D-01 0.887D-01 0.298D+00 0.618D+00
 Gap=     0.115 Goal=   None    Shift=    0.000
 RMSDP=1.39D-05 MaxDP=7.99D-04 DE=-1.31D-06 OVMax= 1.84D-04

 Cycle  11  Pass 1  IDiag  1:
 RMSU=  6.46D-06    CP:  8.18D-01  3.32D-01  6.84D-02  9.09D-01  7.69D-01
                    CP:  6.55D-01  8.93D-01  8.56D-01  8.45D-01  8.44D-01
 E= -845.738124188725     Delta-E=       -0.000000147160 Rises=F Damp=F
 DIIS: error= 5.25D-06 at cycle  11 NSaved=  11.
 NSaved=11 IEnMin=11 EnMin= -845.738124188725     IErMin=11 ErrMin= 5.25D-06
 ErrMax= 5.25D-06  0.00D+00 EMaxC= 1.00D-01 BMatC= 1.65D-08 BMatP= 1.39D-07
 IDIUse=1 WtCom= 1.00D+00 WtEn= 0.00D+00
 Coeff-Com: -0.453D-04 0.618D-04 0.192D-03-0.929D-03-0.339D-02-0.611D-02
 Coeff-Com: -0.209D-02 0.153D-01 0.110D+00 0.320D+00 0.567D+00
 Coeff:     -0.453D-04 0.618D-04 0.192D-03-0.929D-03-0.339D-02-0.611D-02
 Coeff:     -0.209D-02 0.153D-01 0.110D+00 0.320D+00 0.567D+00
 Gap=     0.115 Goal=   None    Shift=    0.000
 RMSDP=2.70D-06 MaxDP=1.55D-04 DE=-1.47D-07 OVMax= 5.70D-05

 Cycle  12  Pass 1  IDiag  1:
 RMSU=  1.69D-06    CP:  8.18D-01  3.32D-01  6.84D-02  9.09D-01  7.69D-01
                    CP:  6.55D-01  8.96D-01  8.61D-01  8.42D-01  8.46D-01
                    CP:  9.93D-01
 E= -845.738124203962     Delta-E=       -0.000000015236 Rises=F Damp=F
 DIIS: error= 1.76D-06 at cycle  12 NSaved=  12.
 NSaved=12 IEnMin=12 EnMin= -845.738124203962     IErMin=12 ErrMin= 1.76D-06
 ErrMax= 1.76D-06  0.00D+00 EMaxC= 1.00D-01 BMatC= 1.80D-09 BMatP= 1.65D-08
 IDIUse=1 WtCom= 1.00D+00 WtEn= 0.00D+00
 Coeff-Com:  0.868D-05-0.112D-04 0.718D-04-0.188D-03-0.873D-03-0.173D-02
 Coeff-Com: -0.128D-02-0.839D-03 0.185D-01 0.606D-01 0.261D+00 0.665D+00
 Coeff:      0.868D-05-0.112D-04 0.718D-04-0.188D-03-0.873D-03-0.173D-02
 Coeff:     -0.128D-02-0.839D-03 0.185D-01 0.606D-01 0.261D+00 0.665D+00
 Gap=     0.115 Goal=   None    Shift=    0.000
 RMSDP=2.11D-06 MaxDP=1.08D-04 DE=-1.52D-08 OVMax= 2.53D-05

 Cycle  13  Pass 1  IDiag  1:
 RMSU=  7.33D-07    CP:  8.18D-01  3.32D-01  6.84D-02  9.09D-01  7.69D-01
                    CP:  6.55D-01  8.97D-01  8.59D-01  8.50D-01  8.75D-01
                    CP:  9.87D-01  9.81D-01
 E= -845.738124206038     Delta-E=       -0.000000002076 Rises=F Damp=F
 DIIS: error= 6.47D-07 at cycle  13 NSaved=  13.
 NSaved=13 IEnMin=13 EnMin= -845.738124206038     IErMin=13 ErrMin= 6.47D-07
 ErrMax= 6.47D-07  0.00D+00 EMaxC= 1.00D-01 BMatC= 2.74D-10 BMatP= 1.80D-09
 IDIUse=1 WtCom= 1.00D+00 WtEn= 0.00D+00
 Coeff-Com:  0.846D-05-0.110D-04 0.226D-04-0.186D-04-0.130D-03-0.315D-03
 Coeff-Com: -0.462D-03-0.214D-02-0.151D-02-0.244D-02 0.840D-01 0.372D+00
 Coeff-Com:  0.551D+00
 Coeff:      0.846D-05-0.110D-04 0.226D-04-0.186D-04-0.130D-03-0.315D-03
 Coeff:     -0.462D-03-0.214D-02-0.151D-02-0.244D-02 0.840D-01 0.372D+00
 Coeff:      0.551D+00
 Gap=     0.115 Goal=   None    Shift=    0.000
 RMSDP=5.52D-07 MaxDP=3.13D-05 DE=-2.08D-09 OVMax= 5.91D-06

 Cycle  14  Pass 1  IDiag  1:
 RMSU=  2.56D-07    CP:  8.18D-01  3.32D-01  6.85D-02  9.09D-01  7.69D-01
                    CP:  6.55D-01  8.97D-01  8.60D-01  8.53D-01  8.69D-01
                    CP:  1.03D+00  1.05D+00  9.25D-01
 E= -845.738124206285     Delta-E=       -0.000000000247 Rises=F Damp=F
 DIIS: error= 1.96D-07 at cycle  14 NSaved=  14.
 NSaved=14 IEnMin=14 EnMin= -845.738124206285     IErMin=14 ErrMin= 1.96D-07
 ErrMax= 1.96D-07  0.00D+00 EMaxC= 1.00D-01 BMatC= 2.16D-11 BMatP= 2.74D-10
 IDIUse=1 WtCom= 1.00D+00 WtEn= 0.00D+00
 Coeff-Com:  0.309D-05-0.401D-05 0.136D-05 0.123D-04 0.591D-04 0.925D-04
 Coeff-Com: -0.973D-05-0.775D-03-0.321D-02-0.906D-02 0.136D-02 0.790D-01
 Coeff-Com:  0.253D+00 0.679D+00
 Coeff:      0.309D-05-0.401D-05 0.136D-05 0.123D-04 0.591D-04 0.925D-04
 Coeff:     -0.973D-05-0.775D-03-0.321D-02-0.906D-02 0.136D-02 0.790D-01
 Coeff:      0.253D+00 0.679D+00
 Gap=     0.115 Goal=   None    Shift=    0.000
 RMSDP=1.57D-07 MaxDP=9.23D-06 DE=-2.47D-10 OVMax= 2.15D-06

 Cycle  15  Pass 1  IDiag  1:
 RMSU=  8.93D-08    CP:  8.18D-01  3.32D-01  6.85D-02  9.09D-01  7.69D-01
                    CP:  6.55D-01  8.97D-01  8.60D-01  8.53D-01  8.71D-01
                    CP:  1.03D+00  1.04D+00  9.53D-01  8.63D-01
 E= -845.738124206266     Delta-E=        0.000000000020 Rises=F Damp=F
 DIIS: error= 1.00D-07 at cycle  15 NSaved=  15.
 NSaved=15 IEnMin=14 EnMin= -845.738124206285     IErMin=15 ErrMin= 1.00D-07
 ErrMax= 1.00D-07  0.00D+00 EMaxC= 1.00D-01 BMatC= 4.67D-12 BMatP= 2.16D-11
 IDIUse=1 WtCom= 1.00D+00 WtEn= 0.00D+00
 Coeff-Com:  0.248D-06-0.331D-06-0.124D-05 0.688D-05 0.460D-04 0.860D-04
 Coeff-Com:  0.583D-04-0.159D-03-0.163D-02-0.481D-02-0.761D-02 0.115D-01
 Coeff-Com:  0.980D-01 0.401D+00 0.504D+00
 Coeff:      0.248D-06-0.331D-06-0.124D-05 0.688D-05 0.460D-04 0.860D-04
 Coeff:      0.583D-04-0.159D-03-0.163D-02-0.481D-02-0.761D-02 0.115D-01
 Coeff:      0.980D-01 0.401D+00 0.504D+00
 Gap=     0.115 Goal=   None    Shift=    0.000
 RMSDP=6.35D-08 MaxDP=3.81D-06 DE= 1.96D-11 OVMax= 8.07D-07

 Cycle  16  Pass 1  IDiag  1:
 RMSU=  2.91D-08    CP:  8.18D-01  3.32D-01  6.85D-02  9.09D-01  7.69D-01
                    CP:  6.55D-01  8.97D-01  8.60D-01  8.52D-01  8.70D-01
                    CP:  1.03D+00  1.05D+00  9.54D-01  9.01D-01  7.06D-01
 E= -845.738124206257     Delta-E=        0.000000000009 Rises=F Damp=F
 DIIS: error= 2.36D-08 at cycle  16 NSaved=  16.
 NSaved=16 IEnMin=14 EnMin= -845.738124206285     IErMin=16 ErrMin= 2.36D-08
 ErrMax= 2.36D-08  0.00D+00 EMaxC= 1.00D-01 BMatC= 2.43D-13 BMatP= 4.67D-12
 IDIUse=1 WtCom= 1.00D+00 WtEn= 0.00D+00
 Coeff-Com: -0.230D-07 0.308D-07-0.619D-06 0.244D-05 0.155D-04 0.305D-04
 Coeff-Com:  0.249D-04-0.434D-05-0.439D-03-0.126D-02-0.337D-02 0.192D-03
[...]
 00259806,0.00006247,-0.00019575,0.00005038,0.01078740,0.00250491,-0.00
 030485,0.00009935,0.00003504,0.00008279,0.00040548,0.00400650,0.004483
 59,-0.00033393,-0.00037561,-0.00076435,0.00091255,0.00235772,0.0063705
 2,-0.00225049,0.00029053,0.00384038,0.08901450,0.03593494,-0.07167936,
 -0.00002845,0.00002020,-0.00001625,0.00002391,0.00000048,-0.00000224,-
 0.00000270,-0.00000388,0.00001094,0.00000330,-0.00005734,-0.00004443,-
 0.00003446,-0.00002006,-0.00009037,-0.00003156,-0.00003533,-0.00000043
 ,0.00000135,-0.00001080,-0.00000285,-0.00000821,-0.00000712,0.00000400
 ,0.00000441,-0.00000272,0.00001952,0.00059952,0.00016130,0.00008296,-0
 .00018630,-0.00035114,-0.00084344,-0.00009445,0.00008126,0.00016081,-0
 .00091926,-0.00165010,-0.00343119,-0.09723847,-0.04183444,0.06448562,0
 .00012305,0.00001649,-0.00001681,0.00000823,-0.00004102,-0.00000618,-0
 .00020057,0.00012828,0.00013561,-0.00001529,-0.00017455,0.00007690,-0.
 00107630,-0.00091947,-0.00029620,-0.00014359,0.00015059,-0.00014873,0.
 00078524,0.00070796,0.00005174,0.00010157,-0.00006335,-0.00003374,0.00
 007533,-0.00029251,0.00023634,-0.00011572,0.00005672,-0.00003927,0.008
 57899,0.02149769,-0.00953939,0.00004211,-0.00000562,-0.00000789,-0.000
 01727,0.00000365,0.00000892,0.00002379,-0.00001876,0.00000023,-0.00001
 561,-0.00000029,0.00000050,0.00004684,-0.00002683,-0.00000568,-0.06716
 956,-0.04703202,0.01977964,-0.00109911,-0.02767322,0.01249800,-0.00527
 005,-0.00152159,-0.00082354,-0.00107921,0.00033659,-0.00017294,-0.0035
 7258,0.00223729,-0.00215273,0.00001677,0.00000916,-0.00000581,0.000033
 14,0.00000373,0.00000135,0.00001752,0.00003524,0.00000185,-0.00054161,
 -0.00128636,-0.00077279,-0.00001503,0.00000131,0.00000976,0.00000480,0
 .00000037,-0.00000100,0.00000209,-0.00000351,0.00000161,0.00000474,-0.
 00000844,0.00000255,0.00000576,0.00000024,0.00000174,0.06934776,0.0000
 0369,0.00005951,0.00000526,0.00001578,-0.00010112,-0.00003727,0.000175
 90,-0.00008278,0.00000690,-0.00027349,0.00008041,-0.00000133,-0.000997
 74,-0.00136946,-0.00033690,0.00048943,0.00039972,-0.00001684,-0.001061
 74,-0.00076753,-0.00132586,-0.00007159,0.00003660,0.00003493,0.0003737
 2,0.00001227,-0.00024010,0.00005177,0.00000455,0.00004570,-0.00567088,
 -0.01118729,0.00609796,-0.00000490,0.00000178,-0.00000356,0.00000564,-
 0.00000265,-0.00001069,-0.00000292,0.00000349,-0.00000074,0.00000494,0
 .00000588,0.00000081,-0.00003143,-0.00000338,0.00000379,-0.04597067,-0
 .27572635,0.11277457,0.00040464,-0.00567767,0.00424235,-0.00234986,0.0
 0270899,0.00209498,0.00044523,0.00036643,-0.00055089,0.00314327,0.0008
 5648,0.00302467,-0.00000155,-0.00000238,0.00000036,-0.00002091,0.00000
 136,0.00000157,-0.00000661,-0.00001528,0.00002600,-0.00181412,-0.00070
 094,-0.00076776,0.00000537,0.00000533,0.00000324,0.00000133,0.00000046
 ,0.00000076,0.00000149,0.00000039,-0.00000035,-0.00000288,0.00000291,0
 .00000069,-0.00000839,0.00000485,-0.00000497,0.05347122,0.29240717,0.0
 0015140,0.00011632,0.00000402,0.00005740,0.00001432,-0.00010196,-0.000
 09497,-0.00010212,0.00000813,0.00038913,-0.00025744,0.00001582,-0.0006
 9578,0.00067869,0.00028750,-0.00036209,0.00041914,-0.00016186,-0.00006
 540,-0.00129548,-0.00246381,-0.00009819,0.00004029,0.00003789,0.000390
 73,-0.00049672,-0.00010725,-0.00003029,0.00000412,0.00007408,0.0041008
 6,0.00890406,-0.00082429,0.00000526,0.00001455,-0.00001439,-0.00000970
 ,-0.00000997,-0.00000487,0.00000533,-0.00000418,-0.00000675,-0.0000089
 0,0.00000246,0.00001600,0.00001664,-0.00001496,-0.00002527,0.01955940,
 0.11353769,-0.08811161,-0.00124505,0.00050735,0.00294779,-0.00064597,0
 .00212421,0.00623926,0.00003458,-0.00053881,-0.00070766,-0.00271769,0.
 00237000,0.00482978,0.00000498,-0.00000876,0.00002175,0.00006801,-0.00
 000639,-0.00000547,-0.00001510,0.00000614,0.00004758,-0.00034206,-0.00
 122577,0.00002540,-0.00000842,0.00000603,0.00001941,0.00000055,0.00000
 110,0.00000195,0.00000077,-0.00000125,0.00000167,0.00000367,-0.0000027
 2,0.00000348,0.00000470,0.00000257,0.00000270,-0.01929203,-0.12324327,
 0.08186622,0.00001592,0.00000397,0.00000277,-0.00000865,-0.00000951,0.
 ,-0.00007347,0.00002780,-0.00001326,0.00003245,-0.00007337,0.00001310,
 -0.00009815,0.00006855,-0.00000821,-0.00002611,0.00000887,0.00006195,-
 0.00009491,0.00127654,-0.00046589,-0.00015802,0.00009300,0.00000828,-0
 .00045564,-0.00026075,-0.00007176,0.00004463,-0.00010935,0.00003562,-0
 .00392754,-0.00351095,0.00017835,-0.00004286,0.00003552,-0.00000334,0.
 00000539,-0.00000974,-0.00000498,-0.00002617,0.00002247,-0.00000090,0.
 00000360,-0.00001299,0.00000592,-0.00001322,0.00002697,-0.00000154,-0.
 01692313,0.01872309,-0.01111295,-0.20951504,0.11616278,-0.07371113,0.0
 0807749,-0.00539388,0.00301129,0.00124511,-0.00201840,0.00008344,-0.00
 018621,-0.00085692,0.00051259,-0.00000911,-0.00000551,0.00000077,-0.00
 000162,-0.00000826,-0.00000129,-0.00000844,-0.00001849,-0.00000347,-0.
 00000126,0.00000259,-0.00001692,0.00000384,-0.00000250,-0.00000014,-0.
 00000864,0.00000096,0.00000145,-0.00000393,0.00000276,0.00000004,-0.00
 000156,0.00000649,-0.00000273,0.00000440,-0.00000853,0.00000452,0.0008
 9165,-0.00000775,0.00056298,0.22038934,0.00001159,0.00001481,-0.000003
 78,-0.00000083,-0.00001334,-0.00000076,0.00000696,-0.00005142,-0.00000
 558,-0.00000304,0.00000289,-0.00000327,-0.00003106,-0.00000435,0.00000
 852,0.00000913,0.00001328,0.00002214,-0.00015281,0.00045675,-0.0000015
 9,0.00005244,0.00008576,-0.00001905,-0.00036428,-0.00004512,-0.0000941
 7,-0.00004293,0.00000668,0.00001179,-0.00298100,0.00130948,0.00235301,
 0.00000821,0.00000367,0.00000024,-0.00000710,-0.00000136,0.00000082,0.
 00001032,-0.00000763,0.00000142,0.00000045,0.00000342,-0.00000636,0.00
 000293,-0.00001136,0.00000674,-0.00970647,0.00901373,-0.00401386,0.116
 71470,-0.14517066,0.06366489,0.02299807,-0.01108853,0.00925078,-0.0028
 5862,-0.00333145,0.00433784,-0.00080509,-0.00049052,-0.00030744,0.0000
 0170,-0.00000143,0.00000010,0.00000436,0.00000196,0.00000049,-0.000004
 23,-0.00000216,0.00000200,-0.00000878,-0.00000543,-0.00000577,-0.00000
 154,0.00000140,0.00000121,0.00000232,0.00000112,-0.00000066,0.00000203
 ,-0.00000099,0.00000053,-0.00000115,-0.00000141,0.00000124,-0.00000254
 ,0.00000105,-0.00000022,0.00056281,-0.00009206,-0.00182696,-0.12456452
 ,0.15003363,0.00000915,-0.00000328,-0.00000563,-0.00001453,-0.00000342
 ,0.00000770,-0.00001635,0.00003307,0.00000731,0.00000924,0.00001246,-0
 .00002685,-0.00002607,-0.00007728,-0.00000905,0.00001864,0.00009581,-0
 .00004498,-0.00014306,-0.00002351,0.00041335,-0.00002988,-0.00002257,-
 0.00003062,-0.00000842,-0.00007219,-0.00015093,0.00000623,-0.00000541,
 -0.00000459,0.00044174,0.00224398,0.00651469,-0.00000089,0.00000597,0.
 00000243,0.00000112,0.00000126,-0.00000307,-0.00000491,0.00000375,-0.0
 0000133,-0.00000270,-0.00000396,-0.00000018,-0.00000301,0.,-0.00000276
 ,0.00133950,-0.00038170,0.00330194,-0.07358049,0.06438754,-0.07458024,
 -0.00968397,0.00493132,-0.00025573,0.00022361,0.00446131,0.00508411,0.
 00062713,-0.00022114,-0.00081824,-0.00000130,-0.00000028,0.00000129,-0
 .00000256,-0.00000169,0.00000384,-0.00000232,-0.00000606,0.00000349,-0
 .00002821,0.00002363,0.00003487,0.00000120,0.00000038,0.00000197,-0.00
 000164,-0.00000015,0.00000097,-0.00000088,0.00000124,0.00000118,0.0000
 0060,0.00000182,0.00000090,0.00000184,0.00000099,0.00000322,0.00035222
 ,-0.00204063,-0.00325411,0.08040472,-0.07161303,0.06767980,-0.00000107
 ,0.00000567,-0.00000127,0.00000575,-0.00000857,0.00000300,-0.00003311,
 -0.00003273,-0.00000406,-0.00001325,-0.00001303,-0.00000407,0.00000008
 ,0.00000603,-0.00001056,-0.00004858,-0.00004525,0.00002110,0.00007562,
 0.00016400,0.00010291,0.00006080,0.00001715,0.00000571,-0.00008266,-0.
 00011168,0.00000900,0.00002872,-0.00003822,0.00000269,0.00044327,0.000
 59483,-0.00009982,-0.00001694,0.00000879,0.00000175,0.00000249,-0.0000
 0193,-0.00000157,-0.00001565,0.00001186,0.00000085,-0.00000126,-0.0000
 1512,0.00000704,0.00000861,0.00002602,-0.00001080,0.00188332,-0.001089
 69,-0.00009459,-0.00196748,0.00083502,-0.00089200,-0.30474156,-0.08802
 475,0.00743979,-0.01672565,-0.01059892,0.00235879,-0.00135598,0.003536
 78,-0.00247598,-0.00000652,-0.00000161,-0.00000105,-0.00000567,-0.0000
 0507,0.00000088,0.00000051,-0.00000561,-0.00000007,-0.00000622,0.00002
 298,0.00000755,0.00000258,-0.00000221,-0.00000114,-0.00000508,-0.00000
 066,0.00000119,-0.00000506,0.00000178,-0.00000007,0.00000080,0.0000038
 6,-0.00000235,0.00001307,-0.00001323,0.00000645,-0.00020253,0.00007693
 ,-0.00010478,0.00061678,-0.00013100,0.00057414,0.32219233,-0.00001136,
 0.00002342,0.00000106,0.00002581,-0.00001684,-0.00000356,0.00004802,-0
 .00002121,-0.00000181,-0.00005565,0.00000977,-0.00000469,0.00005456,-0
 .00000157,-0.00001343,-0.00005304,-0.00004079,0.00000667,0.00010986,-0
 .00007235,-0.00040569,-0.00007232,0.00004221,0.00000374,-0.00000171,0.
 00007422,-0.00004207,0.00002520,-0.00001596,0.00001660,0.00056639,-0.0
 0101942,0.00010541,-0.00001052,0.00000389,-0.00000316,0.00000506,-0.00
 000109,-0.00000211,-0.00000615,0.00000463,-0.00000219,0.00000244,0.000
 00128,-0.00000409,-0.00001478,-0.00000144,0.00000352,-0.00025580,-0.00
 363991,0.00472971,-0.02784164,-0.00444093,-0.00017443,-0.08804531,-0.0
 8528470,0.01191811,0.01813201,0.00968040,-0.00096546,0.00267421,-0.000
 73515,0.00363289,-0.00000269,-0.00000040,0.00000187,-0.00000734,-0.000
 00124,-0.00000028,-0.00000040,-0.00000356,0.00000417,-0.00002676,0.000
 05574,0.00002488,0.00000282,-0.00000004,-0.00000095,-0.00000140,0.0000
 0016,0.00000089,0.00000042,0.00000151,0.00000091,-0.00000048,0.0000021
 2,0.00000064,-0.00000509,0.00000605,0.00000251,-0.00138341,-0.00033375
 ,0.00007859,0.00063388,0.00017843,-0.00171044,0.09496057,0.08511734,0.
 00002136,0.00005748,0.00000044,0.00004238,-0.00003675,-0.00002413,0.00
 002207,-0.00008477,-0.00000155,-0.00003945,-0.00003563,0.00001649,0.00
 001863,0.00011371,0.00003347,-0.00012987,-0.00000319,0.00000846,0.0000
 4113,-0.00034956,-0.00082636,0.00005454,0.00005759,-0.00001836,0.00001
 912,-0.00004041,0.00003698,-0.00001082,0.00001815,0.00003538,-0.000122
 94,0.00017105,-0.00099528,0.00000397,0.00000099,-0.00000533,-0.0000025
 0,-0.00000109,-0.00000348,0.00000089,0.00000010,-0.00000069,-0.0000056
 8,-0.00000660,-0.00000740,0.00000644,-0.00000934,-0.00000481,-0.000230
 63,0.00456041,0.00488753,0.01148870,0.00319577,0.00277558,0.00731399,0
 .01198343,-0.03924718,-0.00987450,-0.00421143,0.00352629,-0.00230862,0
 .00353173,0.00514220,-0.00000086,-0.00000125,0.00000535,0.00000451,-0.
 00000127,-0.00000301,-0.00000221,-0.00000198,0.00001299,0.00001276,-0.
 00003766,-0.00001263,-0.00000164,0.00000015,0.00000167,0.00000009,0.00
 000052,0.00000118,0.00000030,0.00000087,0.00000301,0.00000094,0.000000
 71,0.00000214,0.00000549,0.00000233,0.00001132,0.00053496,0.00027572,0
 .00013911,0.00030682,-0.00183709,-0.00299302,-0.00728781,-0.01553653,0
 .03036127,-0.00003808,0.00003743,-0.00000655,0.00002380,-0.00000088,0.
 00000368,-0.00005219,-0.00011798,-0.00002358,-0.00000129,-0.00005311,0
 .00000002,-0.00002445,0.00008839,0.00000084,-0.00044990,0.00006816,0.0
 0004858,0.00048387,-0.00139834,0.00048160,-0.00012505,-0.00001870,0.00
 001672,0.00012334,0.00007103,-0.00007600,0.00009557,-0.00008546,0.0000
 0784,-0.00520074,-0.00169440,-0.00074285,-0.00003682,0.00002301,-0.000
 00007,0.00001559,-0.00000413,-0.00000750,-0.00002732,0.00002470,-0.000
 00023,0.00001223,-0.00000669,0.00000271,-0.00005195,0.00002425,0.00001
 280,-0.00118862,0.00030380,-0.00017328,-0.00328770,0.00254532,-0.00227
 215,0.00878710,0.02225606,-0.00899203,-0.06791239,-0.04824675,0.017429
 31,-0.00141249,-0.02775223,0.01171004,-0.00001531,-0.00001455,-0.00000
 454,-0.00000223,-0.00000546,0.00000029,-0.00000426,-0.00000801,0.00000
 133,0.00001160,-0.00000540,-0.00000389,0.00000809,0.00000117,-0.000004
 40,-0.00000317,0.00000173,-0.00000003,-0.00000010,0.00000121,-0.000000
 70,-0.00001090,0.00001060,-0.00000379,0.00000020,-0.00001432,-0.000001
 23,0.00010552,0.00000729,0.00012917,0.00026650,0.00115732,-0.00051752,
 0.00078242,-0.00033088,0.00065470,0.06823623,-0.00001539,0.00000506,0.
 00000279,0.00001086,0.00000524,-0.00000282,-0.00004895,0.00001833,-0.0
 0001006,0.00000420,-0.00004639,0.00000522,-0.00000378,0.00001892,-0.00
 000758,-0.00012607,0.00003635,-0.00005428,0.00022586,-0.00024812,0.000
 24831,-0.00016725,-0.00005410,0.00001730,0.00015715,-0.00003988,-0.000
 00030,0.00008978,-0.00008502,-0.00000125,-0.00200476,0.00261642,0.0018
 7689,-0.00003907,0.00001960,0.00000223,0.00001471,-0.00000432,-0.00000
 755,-0.00003046,0.00002558,-0.00000296,0.00000570,-0.00001275,0.000005
 34,-0.00003155,0.00002743,-0.00000469,0.00035754,0.00043570,-0.0005895
 0,0.00335274,0.00089958,0.00311940,-0.00632386,-0.01181755,0.00580657,
 -0.04858218,-0.28274116,0.10145389,0.00057167,-0.00579272,0.00399504,-
 0.00000942,-0.00000521,0.00000209,-0.00000575,-0.00000678,0.00000062,-
 0.00000019,-0.00000631,0.00000277,-0.00000410,0.00000376,0.00000312,0.
 00000683,-0.00000030,-0.00000143,-0.00000593,0.00000020,0.00000187,-0.
 00000313,0.00000301,0.00000093,-0.00000371,0.00000977,-0.00000125,0.00
 000700,-0.00000740,0.00000742,0.00001493,-0.00023565,-0.00035882,-0.00
 035931,-0.00070032,0.00033764,0.00042371,0.00006956,-0.00165893,0.0525
 4396,0.29758617,0.00000651,0.00002905,0.00000631,0.00002879,-0.0000243
 7,-0.00000053,0.00004358,-0.00006480,-0.00002641,-0.00005507,-0.000011
 82,0.00000995,0.00002922,0.00002547,0.00000660,-0.00001019,-0.00011773
 ,-0.00018074,0.00005022,0.00026003,0.00025921,0.00003288,0.00007928,0.
 00001842,0.00003015,0.00001505,-0.00000902,-0.00002560,0.00001885,-0.0
 0000514,-0.00086655,0.00209865,0.00658734,0.00000699,-0.00000941,-0.00
 000066,-0.00000396,-0.00000217,0.00000219,0.00001278,-0.00001030,-0.00
 000227,-0.00000013,0.00000309,-0.00000987,0.00000703,-0.00001226,-0.00
 000859,-0.00002264,-0.00059620,-0.00070741,-0.00248152,0.00311134,0.00
 542721,0.00355287,0.00880191,-0.00024284,0.01738374,0.10154696,-0.0788
 5494,-0.00087390,0.00063425,0.00279034,0.00000286,0.00000196,0.0000030
 8,0.00000221,0.00000217,0.00000049,-0.00000105,0.00000084,0.00000152,-
 0.00002281,-0.00000853,-0.00000491,-0.00000218,0.00000148,0.00000345,0
 .00000296,0.00000033,0.00000091,0.00000242,-0.00000013,0.00000216,0.00
 000302,-0.00000225,0.00000725,-0.00000296,0.00000963,0.00001099,0.0001
 3394,-0.00039817,-0.00088347,0.00015332,0.00046575,-0.00003838,0.00034
 159,-0.00171450,-0.00301578,-0.01804494,-0.11233614,0.07228409,-0.0000
 3445,-0.00007162,-0.00000791,-0.00005181,0.00006952,-0.00000041,-0.000
 05196,0.00020224,-0.00000476,0.00007592,0.00005909,0.00000273,0.000056
 00,-0.00012289,0.00000887,0.00021321,0.00029753,-0.00001769,-0.0002200
 8,-0.00004011,0.00040872,-0.00051538,-0.00039504,0.00001823,-0.0013023
 6,-0.00146497,0.00080886,0.00008223,-0.00001048,-0.00001046,0.00804306
 ,-0.00442154,0.00253588,-0.00001108,-0.00000036,0.00000009,0.00002088,
 -0.00000103,-0.00000420,0.00002665,-0.00002318,-0.00000289,0.00005709,
 0.00008782,-0.00004231,-0.00014985,-0.00012607,0.00010408,0.00068275,-
 0.00196620,0.00031243,-0.00005692,-0.00072973,0.00038622,-0.00394059,-
 0.00357593,0.00028202,-0.01640509,0.01863180,-0.01034109,-0.21109894,0
 .11968684,-0.07446513,0.00000890,0.00000071,-0.00000131,0.00000094,0.0
 0000715,-0.00000079,0.00000330,0.00001116,-0.00000246,-0.00000409,0.00
 001635,0.00000272,0.00000816,0.00000739,-0.00000361,0.00000748,0.00000
 039,-0.00000140,0.00001798,0.00000107,-0.00000446,0.00000161,-0.000010
 08,0.00000589,-0.00009123,0.00014218,-0.00007627,0.00031914,-0.0003802
 0,0.00025082,-0.00001344,0.00012166,0.00005762,-0.00088289,0.00088547,
 -0.00053627,0.00089290,-0.00002180,0.00058642,0.22431195,-0.00013517,-
 0.00009907,0.00004918,-0.00002343,0.00012520,-0.00000247,0.00023711,0.
 00038347,-0.00003685,0.00005957,0.00003950,0.00000973,0.00006290,-0.00
 007718,-0.00006372,-0.00017772,0.00005742,-0.00003764,0.00232127,-0.00
 114502,-0.00104762,-0.00135627,-0.00020897,-0.00014234,0.00030541,0.00
 095397,-0.00016535,0.00002424,0.00001947,0.00004428,0.02208992,-0.0112
 4898,0.00902877,-0.00002659,-0.00003199,0.00000981,0.00002214,-0.00001
 431,-0.00000722,0.00001838,0.00000388,-0.00000588,-0.00000244,0.000024
 03,-0.00003740,-0.00000310,-0.00006975,-0.00000960,-0.00280100,-0.0034
 3477,0.00379403,-0.00088192,-0.00060956,-0.00024209,-0.00298333,0.0013
 6099,0.00227586,-0.00953875,0.00958718,-0.00391391,0.11831937,-0.14807
 505,0.06328853,0.00000880,0.00000097,0.00001052,-0.00000966,0.00001109
 ,-0.00000466,0.00000319,0.00001198,-0.00000130,-0.00001517,0.00007933,
 0.00002388,-0.00000133,0.00000256,0.00000398,0.00000644,-0.00000194,0.
 00000156,0.00000933,0.00000126,0.00000399,0.00001122,-0.00000881,0.000
 00836,-0.00006260,0.00014935,0.00003850,0.00121667,-0.00066028,0.00056
 598,0.00013448,-0.00010853,-0.00035543,-0.00055667,0.00035960,-0.00011
 723,0.00059185,0.00002332,-0.00179732,-0.12686715,0.15259967,0.0000599
 0,0.00009137,0.00001199,0.00009517,-0.00010372,0.00000916,-0.00001522,
 -0.00043990,-0.00002414,-0.00012988,-0.00008641,-0.00000524,-0.0000725
 5,0.00017649,-0.00003498,-0.00029109,-0.00043362,0.00003930,-0.0001311
 2,-0.00044139,-0.00259867,0.00089724,0.00016084,-0.00004135,-0.0001454
 6,-0.00017920,0.00005870,-0.00008169,0.00006460,0.00008263,-0.00933887
 ,0.00575543,-0.00032879,0.00003333,0.00001054,-0.00001649,-0.00002213,
 0.00000822,-0.00000232,0.00000132,-0.00000490,0.00001087,-0.00001995,-
 0.00005234,-0.00004491,0.00002304,-0.00003253,-0.00008878,0.00085829,0
 .00390517,0.00450155,0.00020171,-0.00046565,-0.00076252,-0.00018826,0.
 00249253,0.00638069,0.00207838,-0.00030978,0.00378210,-0.07368977,0.06
 294302,-0.07239327,-0.00000503,-0.00000118,0.00001951,0.00000546,-0.00
 000929,0.00000400,-0.00000466,-0.00000970,-0.00000299,0.00001781,-0.00
 004298,-0.00000023,-0.00000308,-0.00000406,0.00000266,-0.00000429,0.00
 000128,0.00000318,-0.00000511,0.00000451,0.00001121,0.00000331,0.00000
 668,0.00001105,0.00008069,0.00001447,0.00020482,-0.00051313,0.00033907
 ,0.00008326,0.00007062,-0.00038995,-0.00084336,0.00010755,0.00005321,0
 .00015811,0.00037565,-0.00185188,-0.00343056,0.07975181,-0.07116895,0.
 06524382\\0.00000450,-0.00000003,0.,-0.00000530,-0.00000707,-0.0000009
 7,0.00000030,0.00000794,-0.00000024,-0.00000439,-0.00000987,-0.0000007
 7,0.00001320,0.00000733,-0.00000028,-0.00000092,-0.00000453,0.00000053
 ,0.00000476,-0.00000422,-0.00000071,-0.00000609,-0.00000418,0.00000102
 ,-0.00000014,0.00000366,0.00000016,-0.00000015,-0.00000226,-0.00000061
 ,-0.00000157,0.00000770,-0.00000292,0.00000610,0.00000299,-0.00000242,
 -0.00000167,-0.00000194,0.00000213,-0.00000154,0.00000056,-0.00000019,
 -0.00000520,0.00000344,0.00000045,0.00000223,-0.00000474,0.00000258,0.
 00000146,-0.00000316,0.00000227,-0.00000379,-0.00000440,0.00000008,-0.
 00000113,0.00000674,-0.00000283,-0.00000470,-0.00000733,0.00000232,0.0
 0000417,-0.00000194,0.00000242,-0.00000298,-0.00000002,-0.00000012,0.0
 0000486,0.00000454,-0.00000005,-0.00000075,0.00000382,-0.00000019,-0.0
 0000570,0.00000111,-0.00000040,-0.00000057,-0.00000148,0.00000087,-0.0
 0000092,-0.00000007,-0.00000004,0.00000164,-0.00000129,0.00000069,-0.0
 0000014,0.00000060,0.00000006,0.00000047,0.00000003,-0.00000018,0.0000
 0093,0.00000131,-0.00000096,0.00000034,0.00000064,0.00000002,0.0000018
 4,0.00000113,0.00000005,0.00000123,0.00000477,-0.00000162,-0.00000036,
 0.00000021,-0.00000018\\\@


 The earth never tires,
 The earth is rude, silent, incomprehensible at first,
 Nature is rude and incomprehensible at first,
 Be not discouraged, keep on,
 There are divine things well envelop'd,
 I swear to you there are divine things more beautiful than words can tell.
                                 -- Walt Whitman
 Job cpu time:       0 days 17 hours  2 minutes 51.3 seconds.
 File lengths (MBytes):  RWF=    945 Int=      0 D2E=      0 Chk=     22 Scr=      1
 Normal termination of Gaussian 09 at Sun Apr 26 01:58:36 2015.
