 Entering Gaussian System, Link 0=g09
 Input=0_0freq-b971_74-82-8.gau
 Output=0_0freq-b971_74-82-8.log
 Initial command:
 /opt/g09/l1.exe "/scratch/pb556/g09_run/add_hco//Gau-13381.inp" -scrdir="/scratch/pb556/g09_run/add_hco//"
 Entering Link 1 = /opt/g09/l1.exe PID=     13390.
  
 Copyright (c) 1988,1990,1992,1993,1995,1998,2003,2009,2013,
            Gaussian, Inc.  All Rights Reserved.
  
 This is part of the Gaussian(R) 09 program.  It is based on
 the Gaussian(R) 03 system (copyright 2003, Gaussian, Inc.),
 the Gaussian(R) 98 system (copyright 1998, Gaussian, Inc.),
 the Gaussian(R) 94 system (copyright 1995, Gaussian, Inc.),
 the Gaussian 92(TM) system (copyright 1992, Gaussian, Inc.),
 the Gaussian 90(TM) system (copyright 1990, Gaussian, Inc.),
 the Gaussian 88(TM) system (copyright 1988, Gaussian, Inc.),
 the Gaussian 86(TM) system (copyright 1986, Carnegie Mellon
 University), and the Gaussian 82(TM) system (copyright 1983,
 Carnegie Mellon University). Gaussian is a federally registered
 trademark of Gaussian, Inc.
  
 This software contains proprietary and confidential information,
 including trade secrets, belonging to Gaussian, Inc.
  
 This software is provided under written license and may be
 used, copied, transmitted, or stored only in accord with that
 written license.
  
 The following legend is applicable only to US Government
 contracts under FAR:
  
                    RESTRICTED RIGHTS LEGEND
  
 Use, reproduction and disclosure by the US Government is
 subject to restrictions as set forth in subparagraphs (a)
 and (c) of the Commercial Computer Software - Restricted
 Rights clause in FAR 52.227-19.
  
 Gaussian, Inc.
 340 Quinnipiac St., Bldg. 40, Wallingford CT 06492
  
  
 ---------------------------------------------------------------
 Warning -- This program may not be used in any manner that
 competes with the business of Gaussian, Inc. or will provide
 assistance to any competitor of Gaussian, Inc.  The licensee
 of this program is prohibited from giving any competitor of
 Gaussian, Inc. access to this program.  By using this program,
 the user acknowledges that Gaussian, Inc. is engaged in the
 business of creating and licensing software in the field of
 computational chemistry and represents and warrants to the
 licensee that it is not a competitor of Gaussian, Inc. and that
 it will not use this program in any manner prohibited above.
 ---------------------------------------------------------------
  

 Cite this work as:
 Gaussian 09, Revision D.01,
 M. J. Frisch, G. W. Trucks, H. B. Schlegel, G. E. Scuseria, 
 M. A. Robb, J. R. Cheeseman, G. Scalmani, V. Barone, B. Mennucci, 
 G. A. Petersson, H. Nakatsuji, M. Caricato, X. Li, H. P. Hratchian, 
 A. F. Izmaylov, J. Bloino, G. Zheng, J. L. Sonnenberg, M. Hada, 
 M. Ehara, K. Toyota, R. Fukuda, J. Hasegawa, M. Ishida, T. Nakajima, 
 Y. Honda, O. Kitao, H. Nakai, T. Vreven, J. A. Montgomery, Jr., 
 J. E. Peralta, F. Ogliaro, M. Bearpark, J. J. Heyd, E. Brothers, 
 K. N. Kudin, V. N. Staroverov, T. Keith, R. Kobayashi, J. Normand, 
 K. Raghavachari, A. Rendell, J. C. Burant, S. S. Iyengar, J. Tomasi, 
 M. Cossi, N. Rega, J. M. Millam, M. Klene, J. E. Knox, J. B. Cross, 
 V. Bakken, C. Adamo, J. Jaramillo, R. Gomperts, R. E. Stratmann, 
 O. Yazyev, A. J. Austin, R. Cammi, C. Pomelli, J. W. Ochterski, 
 R. L. Martin, K. Morokuma, V. G. Zakrzewski, G. A. Voth, 
 P. Salvador, J. J. Dannenberg, S. Dapprich, A. D. Daniels, 
 O. Farkas, J. B. Foresman, J. V. Ortiz, J. Cioslowski, 
 and D. J. Fox, Gaussian, Inc., Wallingford CT, 2013.
 
 ******************************************
 Gaussian 09:  ES64L-G09RevD.01 24-Apr-2013
                27-Apr-2015 
 ******************************************
 %NProcShared=8
 Will use up to    8 processors via shared memory.
 %Mem=500MW
 ----------------------------------------------------------------------
 #p rB971/6-311+G(d,p) Opt=(Tight, CalcAll) Freq GFInput Population=Non
 e Integral(Grid=UltraFine) Guess=MIX NoSymmetry
 ----------------------------------------------------------------------
 1/7=10,10=4,14=-1,18=20,19=15,26=4,38=1/1,3;
 2/9=110,12=2,15=1,17=6,18=5,40=1/2;
 3/5=4,6=6,7=111,11=2,16=1,24=10,25=1,30=1,71=2,74=-20,75=-5,116=1,140=1/1,2,3;
 4/13=-1/1;
 5/5=2,38=5/2;
 8/6=4,10=90,11=11/1;
 11/6=1,8=1,9=11,15=111,16=1,31=1/1,2,10;
 10/6=1,31=1/2;
 7/10=1,25=1,30=1/1,2,3,16;
 1/7=10,10=4,14=-1,18=20,19=15,26=4/3(3);
 2/9=110,15=1/2;
 7/8=1,9=1,25=1,30=1,44=-1/16;
 99//99;
 2/9=110,15=1/2;
 3/5=4,6=6,7=111,11=2,16=1,25=1,30=1,71=2,74=-20,75=-5,116=1,140=1/1,2,3;
 4/5=5,16=3,69=1/1;
 5/5=2,38=5/2;
 8/6=4,10=90,11=11/1;
 11/6=1,8=1,9=11,15=111,16=1,31=1/1,2,10;
 10/6=1,31=1/2;
 7/10=1,25=1,30=1/1,2,3,16;
 1/7=10,10=4,14=-1,18=20,19=15,26=4/3(-8);
 2/9=110,15=1/2;
 7/8=1,9=1,25=1,30=1,44=-1/16;
 99//99;
 Leave Link    1 at Mon Apr 27 05:40:22 2015, MaxMem=   524288000 cpu:         0.5
 (Enter /opt/g09/l101.exe)
 ---------------------
 freq-b971_74-82-8.gau
 ---------------------
 Symbolic Z-matrix:
 Charge =  0 Multiplicity = 1
 C                     1.05825   0.93523   0.8103 
 H                     1.41623   1.56945  -0.00406 
 H                     1.20721   1.4478    1.76352 
 H                    -0.00532   0.72844   0.6703 
 H                     1.61493  -0.00481   0.81143 
 
 NAtoms=      5 NQM=        5 NQMF=       0 NMMI=      0 NMMIF=      0
                NMic=       0 NMicF=      0.
                    Isotopes and Nuclear Properties:
 (Nuclear quadrupole moments (NQMom) in fm**2, nuclear magnetic moments (NMagM)
  in nuclear magnetons)

  Atom         1           2           3           4           5
 IAtWgt=          12           1           1           1           1
 AtmWgt=  12.0000000   1.0078250   1.0078250   1.0078250   1.0078250
 NucSpn=           0           1           1           1           1
 AtZEff=   0.0000000   0.0000000   0.0000000   0.0000000   0.0000000
 NQMom=    0.0000000   0.0000000   0.0000000   0.0000000   0.0000000
 NMagM=    0.0000000   2.7928460   2.7928460   2.7928460   2.7928460
 AtZNuc=   6.0000000   1.0000000   1.0000000   1.0000000   1.0000000
 Leave Link  101 at Mon Apr 27 05:40:23 2015, MaxMem=   524288000 cpu:         1.9
 (Enter /opt/g09/l103.exe)

 GradGradGradGradGradGradGradGradGradGradGradGradGradGradGradGradGradGrad
 Berny optimization.
 Initialization pass.
                           ----------------------------
                           !    Initial Parameters    !
                           ! (Angstroms and Degrees)  !
 --------------------------                            --------------------------
 ! Name  Definition              Value          Derivative Info.                !
 --------------------------------------------------------------------------------
 ! R1    R(1,2)                  1.0925         calculate D2E/DX2 analytically  !
 ! R2    R(1,3)                  1.0925         calculate D2E/DX2 analytically  !
 ! R3    R(1,4)                  1.0925         calculate D2E/DX2 analytically  !
 ! R4    R(1,5)                  1.0925         calculate D2E/DX2 analytically  !
 ! A1    A(2,1,3)              109.4715         calculate D2E/DX2 analytically  !
 ! A2    A(2,1,4)              109.4725         calculate D2E/DX2 analytically  !
 ! A3    A(2,1,5)              109.47           calculate D2E/DX2 analytically  !
 ! A4    A(3,1,4)              109.4726         calculate D2E/DX2 analytically  !
 ! A5    A(3,1,5)              109.4704         calculate D2E/DX2 analytically  !
 ! A6    A(4,1,5)              109.4704         calculate D2E/DX2 analytically  !
 ! D1    D(2,1,4,3)           -120.0019         calculate D2E/DX2 analytically  !
 ! D2    D(2,1,5,3)            119.9991         calculate D2E/DX2 analytically  !
 ! D3    D(2,1,5,4)           -120.0003         calculate D2E/DX2 analytically  !
 ! D4    D(3,1,5,4)            120.0006         calculate D2E/DX2 analytically  !
 --------------------------------------------------------------------------------
 Trust Radius=3.00D-01 FncErr=1.00D-07 GrdErr=1.00D-06
 Number of steps in this run=     24 maximum allowed number of steps=    100.
 GradGradGradGradGradGradGradGradGradGradGradGradGradGradGradGradGradGrad

 Leave Link  103 at Mon Apr 27 05:40:23 2015, MaxMem=   524288000 cpu:         0.1
 (Enter /opt/g09/l202.exe)
                          Input orientation:                          
 ---------------------------------------------------------------------
 Center     Atomic      Atomic             Coordinates (Angstroms)
 Number     Number       Type             X           Y           Z
 ---------------------------------------------------------------------
      1          6           0        1.058250    0.935230    0.810300
      2          1           0        1.416230    1.569450   -0.004060
      3          1           0        1.207210    1.447800    1.763520
      4          1           0       -0.005320    0.728440    0.670300
      5          1           0        1.614930   -0.004810    0.811430
 ---------------------------------------------------------------------
                    Distance matrix (angstroms):
                    1          2          3          4          5
     1  C    0.000000
     2  H    1.092505   0.000000
     3  H    1.092495   1.784048   0.000000
     4  H    1.092494   1.784058   1.784051   0.000000
     5  H    1.092506   1.784040   1.784037   1.784036   0.000000
 Symmetry turned off by external request.
 Stoichiometry    CH4
 Framework group  C1[X(CH4)]
 Deg. of freedom     9
 Full point group                 C1      NOp   1
 Rotational constants (GHZ):    157.5519730    157.5508615    157.5493953
 Leave Link  202 at Mon Apr 27 05:40:23 2015, MaxMem=   524288000 cpu:         0.0
 (Enter /opt/g09/l301.exe)
 Standard basis: 6-311+G(d,p) (5D, 7F)
 Ernie: Thresh=  0.10000D-02 Tol=  0.10000D-05 Strict=F.
 AO basis set in the form of general basis input (Overlap normalization):
      1 0
 S   6 1.00       0.000000000000
      0.4563240000D+04  0.1966650249D-02
      0.6820240000D+03  0.1523060193D-01
      0.1549730000D+03  0.7612690966D-01
      0.4445530000D+02  0.2608010331D+00
      0.1302900000D+02  0.6164620782D+00
      0.1827730000D+01  0.2210060280D+00
 SP   3 1.00       0.000000000000
      0.2096420000D+02  0.1146600807D+00  0.4024869267D-01
      0.4803310000D+01  0.9199996477D+00  0.2375939567D+00
      0.1459330000D+01 -0.3030682134D-02  0.8158538515D+00
 SP   1 1.00       0.000000000000
      0.4834560000D+00  0.1000000000D+01  0.1000000000D+01
 SP   1 1.00       0.000000000000
      0.1455850000D+00  0.1000000000D+01  0.1000000000D+01
 SP   1 1.00       0.000000000000
      0.4380000000D-01  0.1000000000D+01  0.1000000000D+01
 D   1 1.00       0.000000000000
      0.6260000000D+00  0.1000000000D+01
 ****
      2 0
 S   3 1.00       0.000000000000
      0.3386500000D+02  0.2549381454D-01
      0.5094790000D+01  0.1903731086D+00
      0.1158790000D+01  0.8521614860D+00
 S   1 1.00       0.000000000000
      0.3258400000D+00  0.1000000000D+01
 S   1 1.00       0.000000000000
      0.1027410000D+00  0.1000000000D+01
 P   1 1.00       0.000000000000
      0.7500000000D+00  0.1000000000D+01
 ****
      3 0
 S   3 1.00       0.000000000000
      0.3386500000D+02  0.2549381454D-01
      0.5094790000D+01  0.1903731086D+00
      0.1158790000D+01  0.8521614860D+00
 S   1 1.00       0.000000000000
      0.3258400000D+00  0.1000000000D+01
 S   1 1.00       0.000000000000
      0.1027410000D+00  0.1000000000D+01
 P   1 1.00       0.000000000000
      0.7500000000D+00  0.1000000000D+01
 ****
      4 0
 S   3 1.00       0.000000000000
      0.3386500000D+02  0.2549381454D-01
      0.5094790000D+01  0.1903731086D+00
      0.1158790000D+01  0.8521614860D+00
 S   1 1.00       0.000000000000
      0.3258400000D+00  0.1000000000D+01
 S   1 1.00       0.000000000000
      0.1027410000D+00  0.1000000000D+01
 P   1 1.00       0.000000000000
      0.7500000000D+00  0.1000000000D+01
 ****
      5 0
 S   3 1.00       0.000000000000
      0.3386500000D+02  0.2549381454D-01
      0.5094790000D+01  0.1903731086D+00
      0.1158790000D+01  0.8521614860D+00
 S   1 1.00       0.000000000000
      0.3258400000D+00  0.1000000000D+01
 S   1 1.00       0.000000000000
      0.1027410000D+00  0.1000000000D+01
 P   1 1.00       0.000000000000
      0.7500000000D+00  0.1000000000D+01
 ****

    46 basis functions,    68 primitive gaussians,    47 cartesian basis functions
     5 alpha electrons        5 beta electrons
       nuclear repulsion energy        13.4046450151 Hartrees.
 IExCor= 1614 DFT=T Ex+Corr=B971 ExCW=0 ScaHFX=  0.210000
 ScaDFX=  1.000000  1.000000  1.000000  1.000000 ScalE2=  1.000000  1.000000
 IRadAn=      5 IRanWt=     -1 IRanGd=            0 ICorTp=0 IEmpDi=  4
 NAtoms=    5 NActive=    5 NUniq=    5 SFac= 1.00D+00 NAtFMM=   60 NAOKFM=F Big=F
 Integral buffers will be    131072 words long.
 Raffenetti 2 integral format.
 Two-electron integral symmetry is turned off.
 Leave Link  301 at Mon Apr 27 05:40:23 2015, MaxMem=   524288000 cpu:         0.4
 (Enter /opt/g09/l302.exe)
 NPDir=0 NMtPBC=     1 NCelOv=     1 NCel=       1 NClECP=     1 NCelD=      1
         NCelK=      1 NCelE2=     1 NClLst=     1 CellRange=     0.0.
 One-electron integrals computed using PRISM.
 NBasis=    46 RedAO= T EigKep=  9.19D-03  NBF=    46
 NBsUse=    46 1.00D-06 EigRej= -1.00D+00 NBFU=    46
 Precomputing XC quadrature grid using
 IXCGrd= 4 IRadAn=           5 IRanWt=          -1 IRanGd=           0 AccXCQ= 0.00D+00.
 Generated NRdTot=       0 NPtTot=           0 NUsed=           0 NTot=          32
 NSgBfM=    47    47    47    47    47 MxSgAt=     5 MxSgA2=     5.
 Leave Link  302 at Mon Apr 27 05:40:23 2015, MaxMem=   524288000 cpu:         1.3
 (Enter /opt/g09/l303.exe)
 DipDrv:  MaxL=1.
 Leave Link  303 at Mon Apr 27 05:40:23 2015, MaxMem=   524288000 cpu:         0.3
 (Enter /opt/g09/l401.exe)
 ExpMin= 4.38D-02 ExpMax= 4.56D+03 ExpMxC= 6.82D+02 IAcc=3 IRadAn=         5 AccDes= 0.00D+00
 Harris functional with IExCor= 1614 and IRadAn=       5 diagonalized for initial guess.
 HarFok:  IExCor= 1614 AccDes= 0.00D+00 IRadAn=         5 IDoV= 1 UseB2=F ITyADJ=14
 ICtDFT=  3500011 ScaDFX=  1.000000  1.000000  1.000000  1.000000
 FoFCou: FMM=F IPFlag=           0 FMFlag=      100000 FMFlg1=           0
         NFxFlg=           0 DoJE=T BraDBF=F KetDBF=T FulRan=T
         wScrn=  0.000000 ICntrl=     500 IOpCl=  0 I1Cent=   200000004 NGrid=           0
         NMat0=    1 NMatS0=      1 NMatT0=    0 NMatD0=    1 NMtDS0=    0 NMtDT0=    0
 Symmetry not used in FoFCou.
 Harris En= -39.1882366791045    
 JPrj=0 DoOrth=F DoCkMO=T.
 Mixing orbitals, IMix= 1 IMixAn=  0 NRI=1 NE=    5 Coef=  7.07106781D-01  7.07106781D-01
 Leave Link  401 at Mon Apr 27 05:40:23 2015, MaxMem=   524288000 cpu:         2.0
 (Enter /opt/g09/l502.exe)
 Closed shell SCF:
 Using DIIS extrapolation, IDIIS=  1040.
 Two-electron integral symmetry not used.
 Keep R1 ints in memory in canonical form, NReq=1478124.
 IVT=       25845 IEndB=       25845 NGot=   524288000 MDV=   523677335
 LenX=   523677335 LenY=   523674685
 Requested convergence on RMS density matrix=1.00D-08 within 128 cycles.
 Requested convergence on MAX density matrix=1.00D-06.
 Requested convergence on             energy=1.00D-06.
 No special actions if energy rises.
 FoFCou: FMM=F IPFlag=           0 FMFlag=           0 FMFlg1=           0
         NFxFlg=           0 DoJE=F BraDBF=F KetDBF=F FulRan=T
         wScrn=  0.000000 ICntrl=     600 IOpCl=  0 I1Cent=           0 NGrid=           0
         NMat0=    1 NMatS0=   1081 NMatT0=    0 NMatD0=    1 NMtDS0=    0 NMtDT0=    0
 Symmetry not used in FoFCou.

 Cycle   1  Pass 1  IDiag  1:
 E= -40.0762179109593    
 DIIS: error= 9.78D-02 at cycle   1 NSaved=   1.
 NSaved= 1 IEnMin= 1 EnMin= -40.0762179109593     IErMin= 1 ErrMin= 9.78D-02
 ErrMax= 9.78D-02  0.00D+00 EMaxC= 1.00D-01 BMatC= 1.32D-01 BMatP= 1.32D-01
 IDIUse=3 WtCom= 2.17D-02 WtEn= 9.78D-01
 Coeff-Com:  0.100D+01
 Coeff-En:   0.100D+01
 Coeff:      0.100D+01
 Gap=     0.034 Goal=   None    Shift=    0.000
 GapD=    0.034 DampG=0.250 DampE=0.500 DampFc=0.2500 IDamp=-1.
 Damping current iteration by 2.50D-01
 RMSDP=4.86D-02 MaxDP=1.76D+00              OVMax= 6.54D-01

 Cycle   2  Pass 1  IDiag  1:
 E= -40.1895580777911     Delta-E=       -0.113340166832 Rises=F Damp=T
 DIIS: error= 7.17D-02 at cycle   2 NSaved=   2.
 NSaved= 2 IEnMin= 2 EnMin= -40.1895580777911     IErMin= 2 ErrMin= 7.17D-02
 ErrMax= 7.17D-02  0.00D+00 EMaxC= 1.00D-01 BMatC= 6.58D-02 BMatP= 1.32D-01
 IDIUse=3 WtCom= 2.83D-01 WtEn= 7.17D-01
 Coeff-Com: -0.182D+01 0.282D+01
 Coeff-En:   0.000D+00 0.100D+01
 Coeff:     -0.516D+00 0.152D+01
 Gap=     0.421 Goal=   None    Shift=    0.000
 RMSDP=3.64D-02 MaxDP=1.32D+00 DE=-1.13D-01 OVMax= 5.42D-02

 Cycle   3  Pass 1  IDiag  1:
 E= -40.5042942118151     Delta-E=       -0.314736134024 Rises=F Damp=F
 DIIS: error= 1.16D-02 at cycle   3 NSaved=   3.
 NSaved= 3 IEnMin= 3 EnMin= -40.5042942118151     IErMin= 3 ErrMin= 1.16D-02
 ErrMax= 1.16D-02  0.00D+00 EMaxC= 1.00D-01 BMatC= 4.46D-03 BMatP= 6.58D-02
 IDIUse=3 WtCom= 8.84D-01 WtEn= 1.16D-01
 Coeff-Com:  0.349D+00-0.431D+00 0.108D+01
 Coeff-En:   0.000D+00 0.000D+00 0.100D+01
 Coeff:      0.309D+00-0.381D+00 0.107D+01
 Gap=     0.413 Goal=   None    Shift=    0.000
 RMSDP=2.05D-03 MaxDP=2.84D-02 DE=-3.15D-01 OVMax= 5.19D-02

 Cycle   4  Pass 1  IDiag  1:
 E= -40.5104657841284     Delta-E=       -0.006171572313 Rises=F Damp=F
 DIIS: error= 4.97D-03 at cycle   4 NSaved=   4.
 NSaved= 4 IEnMin= 4 EnMin= -40.5104657841284     IErMin= 4 ErrMin= 4.97D-03
 ErrMax= 4.97D-03  0.00D+00 EMaxC= 1.00D-01 BMatC= 6.03D-04 BMatP= 4.46D-03
 IDIUse=3 WtCom= 9.50D-01 WtEn= 4.97D-02
 Coeff-Com: -0.196D+00 0.271D+00 0.114D+00 0.811D+00
 Coeff-En:   0.000D+00 0.000D+00 0.000D+00 0.100D+01
 Coeff:     -0.186D+00 0.258D+00 0.108D+00 0.820D+00
 Gap=     0.414 Goal=   None    Shift=    0.000
 RMSDP=4.52D-04 MaxDP=4.80D-03 DE=-6.17D-03 OVMax= 1.19D-02

 Cycle   5  Pass 1  IDiag  1:
 E= -40.5111668601495     Delta-E=       -0.000701076021 Rises=F Damp=F
 DIIS: error= 6.81D-04 at cycle   5 NSaved=   5.
 NSaved= 5 IEnMin= 5 EnMin= -40.5111668601495     IErMin= 5 ErrMin= 6.81D-04
 ErrMax= 6.81D-04  0.00D+00 EMaxC= 1.00D-01 BMatC= 8.29D-06 BMatP= 6.03D-04
 IDIUse=3 WtCom= 9.93D-01 WtEn= 6.81D-03
 Coeff-Com: -0.223D-01 0.307D-01-0.101D-01 0.117D+00 0.884D+00
 Coeff-En:   0.000D+00 0.000D+00 0.000D+00 0.000D+00 0.100D+01
 Coeff:     -0.221D-01 0.305D-01-0.101D-01 0.117D+00 0.885D+00
 Gap=     0.414 Goal=   None    Shift=    0.000
 RMSDP=6.78D-05 MaxDP=9.68D-04 DE=-7.01D-04 OVMax= 1.98D-03

 Cycle   6  Pass 1  IDiag  1:
 E= -40.5111786981046     Delta-E=       -0.000011837955 Rises=F Damp=F
 DIIS: error= 1.16D-04 at cycle   6 NSaved=   6.
 NSaved= 6 IEnMin= 6 EnMin= -40.5111786981046     IErMin= 6 ErrMin= 1.16D-04
 ErrMax= 1.16D-04  0.00D+00 EMaxC= 1.00D-01 BMatC= 3.25D-07 BMatP= 8.29D-06
 IDIUse=3 WtCom= 9.99D-01 WtEn= 1.16D-03
 Coeff-Com:  0.240D-02-0.362D-02-0.281D-02 0.126D-01 0.192D+00 0.800D+00
 Coeff-En:   0.000D+00 0.000D+00 0.000D+00 0.000D+00 0.000D+00 0.100D+01
 Coeff:      0.240D-02-0.362D-02-0.280D-02 0.126D-01 0.192D+00 0.800D+00
 Gap=     0.414 Goal=   None    Shift=    0.000
 RMSDP=1.02D-05 MaxDP=1.38D-04 DE=-1.18D-05 OVMax= 2.36D-04

 Cycle   7  Pass 1  IDiag  1:
 E= -40.5111790415589     Delta-E=       -0.000000343454 Rises=F Damp=F
 DIIS: error= 2.18D-05 at cycle   7 NSaved=   7.
 NSaved= 7 IEnMin= 7 EnMin= -40.5111790415589     IErMin= 7 ErrMin= 2.18D-05
 ErrMax= 2.18D-05  0.00D+00 EMaxC= 1.00D-01 BMatC= 1.32D-08 BMatP= 3.25D-07
 IDIUse=1 WtCom= 1.00D+00 WtEn= 0.00D+00
 Coeff-Com:  0.319D-03-0.536D-03-0.133D-03-0.379D-02-0.993D-02 0.132D+00
 Coeff-Com:  0.882D+00
 Coeff:      0.319D-03-0.536D-03-0.133D-03-0.379D-02-0.993D-02 0.132D+00
 Coeff:      0.882D+00
 Gap=     0.414 Goal=   None    Shift=    0.000
 RMSDP=1.49D-06 MaxDP=2.18D-05 DE=-3.43D-07 OVMax= 5.69D-05

 Cycle   8  Pass 1  IDiag  1:
 E= -40.5111790552605     Delta-E=       -0.000000013702 Rises=F Damp=F
 DIIS: error= 2.43D-06 at cycle   8 NSaved=   8.
 NSaved= 8 IEnMin= 8 EnMin= -40.5111790552605     IErMin= 8 ErrMin= 2.43D-06
 ErrMax= 2.43D-06  0.00D+00 EMaxC= 1.00D-01 BMatC= 1.54D-10 BMatP= 1.32D-08
 IDIUse=1 WtCom= 1.00D+00 WtEn= 0.00D+00
 Coeff-Com:  0.128D-04-0.162D-04 0.974D-04-0.431D-03-0.113D-02 0.425D-02
 Coeff-Com:  0.205D-01 0.977D+00
 Coeff:      0.128D-04-0.162D-04 0.974D-04-0.431D-03-0.113D-02 0.425D-02
 Coeff:      0.205D-01 0.977D+00
 Gap=     0.414 Goal=   None    Shift=    0.000
 RMSDP=2.88D-07 MaxDP=2.66D-06 DE=-1.37D-08 OVMax= 6.56D-06

 Cycle   9  Pass 1  IDiag  1:
 E= -40.5111790554732     Delta-E=       -0.000000000213 Rises=F Damp=F
 DIIS: error= 1.70D-07 at cycle   9 NSaved=   9.
 NSaved= 9 IEnMin= 9 EnMin= -40.5111790554732     IErMin= 9 ErrMin= 1.70D-07
 ErrMax= 1.70D-07  0.00D+00 EMaxC= 1.00D-01 BMatC= 1.03D-12 BMatP= 1.54D-10
 IDIUse=1 WtCom= 1.00D+00 WtEn= 0.00D+00
 Coeff-Com:  0.124D-05-0.621D-07 0.253D-04-0.443D-04-0.937D-04-0.104D-02
 Coeff-Com: -0.652D-02 0.235D+00 0.773D+00
 Coeff:      0.124D-05-0.621D-07 0.253D-04-0.443D-04-0.937D-04-0.104D-02
 Coeff:     -0.652D-02 0.235D+00 0.773D+00
 Gap=     0.414 Goal=   None    Shift=    0.000
 RMSDP=1.83D-08 MaxDP=2.13D-07 DE=-2.13D-10 OVMax= 4.60D-07

 Cycle  10  Pass 1  IDiag  1:
 E= -40.5111790554745     Delta-E=       -0.000000000001 Rises=F Damp=F
 DIIS: error= 6.14D-08 at cycle  10 NSaved=  10.
 NSaved=10 IEnMin=10 EnMin= -40.5111790554745     IErMin=10 ErrMin= 6.14D-08
 ErrMax= 6.14D-08  0.00D+00 EMaxC= 1.00D-01 BMatC= 8.95D-14 BMatP= 1.03D-12
 IDIUse=1 WtCom= 1.00D+00 WtEn= 0.00D+00
 Coeff-Com:  0.700D-06-0.915D-06-0.149D-07 0.102D-04 0.371D-04-0.231D-03
 Coeff-Com: -0.575D-03 0.652D-02 0.116D+00 0.878D+00
 Coeff:      0.700D-06-0.915D-06-0.149D-07 0.102D-04 0.371D-04-0.231D-03
 Coeff:     -0.575D-03 0.652D-02 0.116D+00 0.878D+00
 Gap=     0.414 Goal=   None    Shift=    0.000
 RMSDP=4.61D-09 MaxDP=5.83D-08 DE=-1.29D-12 OVMax= 1.23D-07

 SCF Done:  E(RB971) =  -40.5111790555     A.U. after   10 cycles
            NFock= 10  Conv=0.46D-08     -V/T= 2.0053
 KE= 4.029587676697D+01 PE=-1.200799568736D+02 EE= 2.586825603613D+01
 Leave Link  502 at Mon Apr 27 05:40:25 2015, MaxMem=   524288000 cpu:        12.3
 (Enter /opt/g09/l801.exe)
 DoSCS=F DFT=T ScalE2(SS,OS)=  1.000000  1.000000
 Range of M.O.s used for correlation:     1    46
 NBasis=    46 NAE=     5 NBE=     5 NFC=     0 NFV=     0
 NROrb=     46 NOA=     5 NOB=     5 NVA=    41 NVB=    41
 Leave Link  801 at Mon Apr 27 05:40:25 2015, MaxMem=   524288000 cpu:         0.3
 (Enter /opt/g09/l1101.exe)
 Using compressed storage, NAtomX=     5.
 Will process      6 centers per pass.
 Leave Link 1101 at Mon Apr 27 05:40:25 2015, MaxMem=   524288000 cpu:         1.2
 (Enter /opt/g09/l1102.exe)
 Symmetrizing basis deriv contribution to polar:
 IMax=3 JMax=2 DiffMx= 0.00D+00
 Leave Link 1102 at Mon Apr 27 05:40:25 2015, MaxMem=   524288000 cpu:         0.3
 (Enter /opt/g09/l1110.exe)
 Forming Gx(P) for the SCF density, NAtomX=     5.
 Integral derivatives from FoFJK, PRISM(SPDF).
 Do as many integral derivatives as possible in FoFJK.
 G2DrvN: MDV=     524287856.
 G2DrvN: will do     6 centers at a time, making    1 passes.
 Calling FoFCou, ICntrl=  3107 FMM=F I1Cent=   0 AccDes= 0.00D+00.
 FoFJK:  IHMeth= 1 ICntrl=    3107 DoSepK=F KAlg= 0 I1Cent=   0 FoldK=F
 IRaf=         0 NMat=   1 IRICut=       1 DoRegI=T DoRafI=F ISym2E= 0.
 FoFCou: FMM=F IPFlag=           0 FMFlag=      100000 FMFlg1=           0
         NFxFlg=           0 DoJE=F BraDBF=F KetDBF=F FulRan=T
         wScrn=  0.000000 ICntrl=    3107 IOpCl=  0 I1Cent=           0 NGrid=           0
         NMat0=    1 NMatS0=      1 NMatT0=    0 NMatD0=    1 NMtDS0=    0 NMtDT0=    0
 Symmetry not used in FoFCou.
 End of G2Drv F.D. properties file   721 does not exist.
 End of G2Drv F.D. properties file   722 does not exist.
 End of G2Drv F.D. properties file   788 does not exist.
 Leave Link 1110 at Mon Apr 27 05:40:27 2015, MaxMem=   524288000 cpu:        13.4
 (Enter /opt/g09/l1002.exe)
 Minotr:  Closed shell wavefunction.
          IDoAtm=11111
          Direct CPHF calculation.
          Differentiating once with respect to electric field.
                with respect to dipole field.
          Differentiating once with respect to nuclear coordinates.
          Requested convergence is 1.0D-08 RMS, and 1.0D-07 maximum.
          Secondary convergence is 1.0D-12 RMS, and 1.0D-12 maximum.
          NewPWx=T KeepS1=F KeepF1=F KeepIn=T MapXYZ=F SortEE=F KeepMc=T.
          MDV=     524287900 using IRadAn=       1.
 Generate precomputed XC quadrature information.
 Keep R1 ints in memory in canonical form, NReq=1451105.
 FoFCou: FMM=F IPFlag=           0 FMFlag=           0 FMFlg1=           0
         NFxFlg=           0 DoJE=F BraDBF=F KetDBF=F FulRan=T
         wScrn=  0.000000 ICntrl=     600 IOpCl=  0 I1Cent=           0 NGrid=           0
         NMat0=    1 NMatS0=   1081 NMatT0=    0 NMatD0=    1 NMtDS0=    0 NMtDT0=    0
 Symmetry not used in FoFCou.
          Solving linear equations simultaneously, MaxMat=       0.
          There are    18 degrees of freedom in the 1st order CPHF.  IDoFFX=6 NUNeed=     3.
     15 vectors produced by pass  0 Test12= 1.14D-15 5.56D-09 XBig12= 7.25D+00 1.38D+00.
 AX will form    15 AO Fock derivatives at one time.
     15 vectors produced by pass  1 Test12= 1.14D-15 5.56D-09 XBig12= 1.46D-01 1.67D-01.
     15 vectors produced by pass  2 Test12= 1.14D-15 5.56D-09 XBig12= 4.69D-04 6.66D-03.
     15 vectors produced by pass  3 Test12= 1.14D-15 5.56D-09 XBig12= 3.27D-07 1.86D-04.
     15 vectors produced by pass  4 Test12= 1.14D-15 5.56D-09 XBig12= 8.28D-11 3.19D-06.
      4 vectors produced by pass  5 Test12= 1.14D-15 5.56D-09 XBig12= 1.53D-14 5.08D-08.
 InvSVY:  IOpt=1 It=  1 EMax= 1.11D-15
 Solved reduced A of dimension    79 with    15 vectors.
 FullF1:  Do perturbations    1 to     3.
 Isotropic polarizability for W=    0.000000       14.29 Bohr**3.
 End of Minotr F.D. properties file   721 does not exist.
 End of Minotr F.D. properties file   722 does not exist.
 End of Minotr F.D. properties file   788 does not exist.
 Leave Link 1002 at Mon Apr 27 05:40:29 2015, MaxMem=   524288000 cpu:        12.5
 (Enter /opt/g09/l701.exe)
 Compute integral second derivatives.
 ... and contract with generalized density number  0.
 Leave Link  701 at Mon Apr 27 05:40:29 2015, MaxMem=   524288000 cpu:         2.1
 (Enter /opt/g09/l702.exe)
 L702 exits ... SP integral derivatives will be done elsewhere.
 Leave Link  702 at Mon Apr 27 05:40:29 2015, MaxMem=   524288000 cpu:         0.2
 (Enter /opt/g09/l703.exe)
 Compute integral second derivatives, UseDBF=F ICtDFT=           0.
 Integral derivatives from FoFJK, PRISM(SPDF).
 Calling FoFJK, ICntrl=    100127 FMM=F ISym2X=0 I1Cent= 0 IOpClX= 0 NMat=1 NMatS=1 NMatT=0.
 FoFJK:  IHMeth= 1 ICntrl=  100127 DoSepK=F KAlg= 0 I1Cent=   0 FoldK=F
 IRaf=         0 NMat=   1 IRICut=       1 DoRegI=T DoRafI=F ISym2E= 0.
 FoFCou: FMM=F IPFlag=           0 FMFlag=      100000 FMFlg1=         800
         NFxFlg=           0 DoJE=F BraDBF=F KetDBF=F FulRan=T
         wScrn=  0.000000 ICntrl=  100127 IOpCl=  0 I1Cent=           0 NGrid=           0
         NMat0=    1 NMatS0=      1 NMatT0=    0 NMatD0=    1 NMtDS0=    0 NMtDT0=    0
 Symmetry not used in FoFCou.
 Leave Link  703 at Mon Apr 27 05:40:32 2015, MaxMem=   524288000 cpu:        24.5
 (Enter /opt/g09/l716.exe)
 Dipole        = 3.58447317D-06-4.82402023D-06 1.53532691D-06
 Polarizability= 1.42870943D+01 7.97414680D-05 1.42871115D+01
                 9.75076185D-05-3.26475136D-05 1.42873878D+01
 -------------------------------------------------------------------
 Center     Atomic                   Forces (Hartrees/Bohr)
 Number     Number              X              Y              Z
 -------------------------------------------------------------------
      1        6           0.000009288   -0.000005134   -0.000004595
      2        1          -0.000003543   -0.000001370    0.000003031
      3        1          -0.000000967    0.000001835    0.000001616
      4        1          -0.000002656    0.000001431   -0.000000252
      5        1          -0.000002122    0.000003238    0.000000200
 -------------------------------------------------------------------
 Cartesian Forces:  Max     0.000009288 RMS     0.000003545
 Force constants in Cartesian coordinates: 
                1             2             3             4             5 
      1  0.539016D+00
      2 -0.261932D-05  0.538989D+00
      3  0.134881D-04  0.192635D-04  0.539001D+00
      4 -0.736219D-01 -0.514470D-01  0.660618D-01  0.763178D-01
      5 -0.514464D-01 -0.135727D+00  0.117036D+00  0.565414D-01  0.144574D+00
      6  0.660618D-01  0.117037D+00 -0.194863D+00 -0.726034D-01 -0.128628D+00
      7 -0.496135D-01 -0.173010D-01 -0.321825D-01  0.339580D-03  0.634969D-02
      8 -0.173017D-01 -0.104132D+00 -0.110735D+00  0.378473D-02  0.998646D-02
      9 -0.321816D-01 -0.110737D+00 -0.250510D+00 -0.396136D-02 -0.120930D-01
     10 -0.300959D+00 -0.498424D-01 -0.337501D-01 -0.859228D-02 -0.755720D-03
     11 -0.498418D-01 -0.542763D-01 -0.655912D-02 -0.180629D-01 -0.404941D-02
     12 -0.337502D-01 -0.656099D-02 -0.490323D-01  0.246167D-01  0.323163D-02
     13 -0.114821D+00  0.118593D+00 -0.142632D-03  0.555676D-02 -0.106889D-01
     14  0.118593D+00 -0.244853D+00  0.239061D-03  0.918377D-02 -0.147843D-01
     15 -0.143393D-03  0.241568D-03 -0.445951D-01 -0.141137D-01  0.204528D-01
                6             7             8             9            10 
      6  0.209567D+00
      7  0.936853D-02  0.499317D-01
      8  0.173607D-01  0.190144D-01  0.109849D+00
      9 -0.190731D-01  0.353683D-01  0.121700D+00  0.270721D+00
     10 -0.179011D-02 -0.246831D-02  0.125342D-04  0.205424D-03  0.326165D+00
     11 -0.418124D-02 -0.148119D-01 -0.378371D-02 -0.377021D-03  0.547756D-01
     12  0.389219D-02 -0.284121D-01 -0.398872D-02 -0.249566D-02  0.370921D-01
     13 -0.103675D-02  0.181049D-02 -0.550995D-02  0.569271D-03 -0.141450D-01
     14 -0.158851D-02  0.674884D-02 -0.119193D-01  0.150624D-02 -0.418999D-02
     15  0.477809D-03  0.158578D-01 -0.243369D-01  0.135821D-02 -0.175723D-02
               11            12            13            14            15 
     11  0.550576D-01
     12  0.720924D-02  0.492930D-01
     13  0.279411D-01  0.453555D-03  0.121599D+00
     14  0.705175D-02  0.108837D-03 -0.130335D+00  0.264505D+00
     15  0.390814D-02 -0.165724D-02  0.156560D-03 -0.265632D-03  0.444164D-01
 FormGI is forming the generalized inverse of G from B-inverse, IUseBI=4.
 Force constants in internal coordinates: 
                1             2             3             4             5 
      1  0.341654D+00
      2  0.194289D-02  0.341691D+00
      3  0.194199D-02  0.194327D-02  0.341696D+00
      4  0.194356D-02  0.194251D-02  0.194412D-02  0.341689D+00
      5  0.198553D-02  0.198326D-02 -0.124573D-02 -0.272276D-02  0.194220D-01
      6  0.311115D-02 -0.802594D-03  0.345842D-02 -0.576978D-02 -0.863095D-02
      7  0.607736D-02 -0.487901D-02 -0.540089D-02  0.419979D-02 -0.128766D-01
      8 -0.803510D-03  0.311032D-02  0.346085D-02 -0.576958D-02 -0.863067D-02
      9 -0.487769D-02  0.608107D-02 -0.540095D-02  0.419993D-02 -0.128775D-01
     10 -0.549291D-02 -0.549317D-02  0.512797D-02  0.586290D-02  0.235934D-01
     11 -0.384515D-02 -0.384242D-02 -0.271190D-02  0.104020D-01 -0.132161D-01
     12  0.316633D-02  0.316497D-02 -0.813991D-02  0.180876D-02  0.801658D-02
     13 -0.416821D-02  0.733427D-02 -0.406846D-02  0.904583D-03  0.400826D-02
     14 -0.733454D-02  0.416930D-02  0.407145D-02 -0.904180D-03 -0.400833D-02
                6             7             8             9            10 
      6  0.366042D-01
      7 -0.222516D-01  0.715191D-01
      8 -0.206229D-02  0.244770D-01  0.366053D-01
      9  0.244765D-01 -0.346993D-01 -0.222537D-01  0.715227D-01
     10 -0.281367D-01 -0.261679D-01 -0.281365D-01 -0.261681D-01  0.850162D-01
     11 -0.105838D-01  0.144082D-01 -0.105848D-01  0.144108D-01  0.556713D-02
     12 -0.920818D-02  0.677586D-02 -0.920865D-02  0.677649D-02 -0.315154D-02
     13 -0.139752D-01 -0.518580D-03  0.476648D-02  0.729467D-02 -0.157537D-02
     14 -0.476705D-02 -0.729444D-02  0.139751D-01  0.518173D-03  0.157617D-02
               11            12            13            14 
     11  0.291515D-01
     12  0.146062D-02  0.181165D-01
     13  0.730566D-03  0.905813D-02  0.183980D-01
     14 -0.730055D-03 -0.905836D-02  0.933987D-02  0.183982D-01
 Leave Link  716 at Mon Apr 27 05:40:32 2015, MaxMem=   524288000 cpu:         0.3
 (Enter /opt/g09/l103.exe)

 GradGradGradGradGradGradGradGradGradGradGradGradGradGradGradGradGradGrad
 Berny optimization.
 Red2BG is reusing G-inverse.
 Internal  Forces:  Max     0.000004216 RMS     0.000002017
 Search for a local minimum.
 Step number   1 out of a maximum of   24
 All quantities printed in internal units (Hartrees-Bohrs-Radians)
 RMS Force = .20169D-05 SwitMx=.10000D-02 MixMth= 2
 Mixed Optimization -- En-DIIS/RFO-DIIS
 Second derivative matrix not updated -- analytic derivatives used.
 The second derivative matrix:
                          R1        R2        R3        R4        A1
           R1           0.34165
           R2           0.00194   0.34169
           R3           0.00194   0.00194   0.34170
           R4           0.00194   0.00194   0.00194   0.34169
           A1           0.00199   0.00198  -0.00125  -0.00272   0.01942
           A2           0.00311  -0.00080   0.00346  -0.00577  -0.00863
           A3           0.00608  -0.00488  -0.00540   0.00420  -0.01288
           A4          -0.00080   0.00311   0.00346  -0.00577  -0.00863
           A5          -0.00488   0.00608  -0.00540   0.00420  -0.01288
           A6          -0.00549  -0.00549   0.00513   0.00586   0.02359
           D1          -0.00385  -0.00384  -0.00271   0.01040  -0.01322
           D2           0.00317   0.00316  -0.00814   0.00181   0.00802
           D3          -0.00417   0.00733  -0.00407   0.00090   0.00401
           D4          -0.00733   0.00417   0.00407  -0.00090  -0.00401
                          A2        A3        A4        A5        A6
           A2           0.03660
           A3          -0.02225   0.07152
           A4          -0.00206   0.02448   0.03661
           A5           0.02448  -0.03470  -0.02225   0.07152
           A6          -0.02814  -0.02617  -0.02814  -0.02617   0.08502
           D1          -0.01058   0.01441  -0.01058   0.01441   0.00557
           D2          -0.00921   0.00678  -0.00921   0.00678  -0.00315
           D3          -0.01398  -0.00052   0.00477   0.00729  -0.00158
           D4          -0.00477  -0.00729   0.01398   0.00052   0.00158
                          D1        D2        D3        D4
           D1           0.02915
           D2           0.00146   0.01812
           D3           0.00073   0.00906   0.01840
           D4          -0.00073  -0.00906   0.00934   0.01840
 ITU=  0
     Eigenvalues ---    0.03711   0.04180   0.06348   0.12931   0.12984
     Eigenvalues ---    0.34070   0.34072   0.34102   0.34751
 RFO step:  Lambda= 0.00000000D+00 EMin= 3.71051542D-02
 Linear search not attempted -- first point.
 Iteration  1 RMS(Cart)=  0.00001042 RMS(Int)=  0.00000000
 Iteration  2 RMS(Cart)=  0.00000000 RMS(Int)=  0.00000000
 ITry= 1 IFail=0 DXMaxC= 1.92D-05 DCOld= 1.00D+10 DXMaxT= 3.00D-01 DXLimC= 3.00D+00 Rises=F
 Variable       Old X    -DE/DX   Delta X   Delta X   Delta X     New X
                                 (Linear)    (Quad)   (Total)
    R1        2.06454   0.00000   0.00000  -0.00001  -0.00001   2.06452
    R2        2.06452   0.00000   0.00000   0.00001   0.00001   2.06452
    R3        2.06451   0.00000   0.00000   0.00001   0.00001   2.06452
    R4        2.06454   0.00000   0.00000  -0.00001  -0.00001   2.06452
    A1        1.91064   0.00000   0.00000  -0.00001  -0.00001   1.91063
    A2        1.91066   0.00000   0.00000  -0.00002  -0.00002   1.91063
    A3        1.91061   0.00000   0.00000   0.00002   0.00002   1.91064
    A4        1.91066   0.00000   0.00000  -0.00002  -0.00002   1.91064
    A5        1.91062   0.00000   0.00000   0.00001   0.00001   1.91063
    A6        1.91062   0.00000   0.00000   0.00001   0.00001   1.91063
    D1       -2.09443   0.00000   0.00000   0.00003   0.00003  -2.09439
    D2        2.09438   0.00000   0.00000   0.00002   0.00002   2.09440
    D3       -2.09440   0.00000   0.00000   0.00001   0.00001  -2.09439
    D4        2.09441   0.00000   0.00000  -0.00001  -0.00001   2.09440
         Item               Value     Threshold  Converged?
 Maximum Force            0.000004     0.000015     YES
 RMS     Force            0.000002     0.000010     YES
 Maximum Displacement     0.000019     0.000060     YES
 RMS     Displacement     0.000010     0.000040     YES
 Predicted change in Energy=-1.785839D-10
 Optimization completed.
    -- Stationary point found.
                           ----------------------------
                           !   Optimized Parameters   !
                           ! (Angstroms and Degrees)  !
 --------------------------                            --------------------------
 ! Name  Definition              Value          Derivative Info.                !
 --------------------------------------------------------------------------------
 ! R1    R(1,2)                  1.0925         -DE/DX =    0.0                 !
 ! R2    R(1,3)                  1.0925         -DE/DX =    0.0                 !
 ! R3    R(1,4)                  1.0925         -DE/DX =    0.0                 !
 ! R4    R(1,5)                  1.0925         -DE/DX =    0.0                 !
 ! A1    A(2,1,3)              109.4715         -DE/DX =    0.0                 !
 ! A2    A(2,1,4)              109.4725         -DE/DX =    0.0                 !
 ! A3    A(2,1,5)              109.47           -DE/DX =    0.0                 !
 ! A4    A(3,1,4)              109.4726         -DE/DX =    0.0                 !
 ! A5    A(3,1,5)              109.4704         -DE/DX =    0.0                 !
 ! A6    A(4,1,5)              109.4704         -DE/DX =    0.0                 !
 ! D1    D(2,1,4,3)           -120.0019         -DE/DX =    0.0                 !
 ! D2    D(2,1,5,3)            119.9991         -DE/DX =    0.0                 !
 ! D3    D(2,1,5,4)           -120.0003         -DE/DX =    0.0                 !
 ! D4    D(3,1,5,4)            120.0006         -DE/DX =    0.0                 !
 --------------------------------------------------------------------------------
 Lowest energy point so far.  Saving SCF results.
 GradGradGradGradGradGradGradGradGradGradGradGradGradGradGradGradGradGrad

 Largest change from initial coordinates is atom    0       0.000 Angstoms.
 Leave Link  103 at Mon Apr 27 05:40:33 2015, MaxMem=   524288000 cpu:         0.1
 (Enter /opt/g09/l202.exe)
                          Input orientation:                          
 ---------------------------------------------------------------------
 Center     Atomic      Atomic             Coordinates (Angstroms)
 Number     Number       Type             X           Y           Z
 ---------------------------------------------------------------------
      1          6           0        1.058250    0.935230    0.810300
      2          1           0        1.416230    1.569450   -0.004060
      3          1           0        1.207210    1.447800    1.763520
      4          1           0       -0.005320    0.728440    0.670300
      5          1           0        1.614930   -0.004810    0.811430
 ---------------------------------------------------------------------
                    Distance matrix (angstroms):
                    1          2          3          4          5
     1  C    0.000000
     2  H    1.092505   0.000000
     3  H    1.092495   1.784048   0.000000
     4  H    1.092494   1.784058   1.784051   0.000000
     5  H    1.092506   1.784040   1.784037   1.784036   0.000000
 Symmetry turned off by external request.
 Stoichiometry    CH4
 Framework group  C1[X(CH4)]
 Deg. of freedom     9
 Full point group                 C1      NOp   1
 Rotational constants (GHZ):    157.5519730    157.5508615    157.5493953
 Leave Link  202 at Mon Apr 27 05:40:33 2015, MaxMem=   524288000 cpu:         0.0
 (Enter /opt/g09/l716.exe)
 Dipole        = 3.58447317D-06-4.82402023D-06 1.53532691D-06
 Polarizability= 1.42870943D+01 7.97414680D-05 1.42871115D+01
                 9.75076185D-05-3.26475136D-05 1.42873878D+01
 Full mass-weighted force constant matrix:
 Low frequencies ---   -5.5759   -0.0012   -0.0011   -0.0004   10.1498   13.6815
 Low frequencies --- 1335.2432 1335.2573 1335.3036
 Diagonal vibrational polarizability:
        0.3477145       0.3477374       0.3476768
 Harmonic frequencies (cm**-1), IR intensities (KM/Mole), Raman scattering
 activities (A**4/AMU), depolarization ratios for plane and unpolarized
 incident light, reduced masses (AMU), force constants (mDyne/A),
 and normal coordinates:
                      1                      2                      3
                      A                      A                      A
 Frequencies --   1335.2432              1335.2573              1335.3036
 Red. masses --      1.1801                 1.1801                 1.1801
 Frc consts  --      1.2397                 1.2397                 1.2398
 IR Inten    --     18.7245                18.7214                18.7199
  Atom  AN      X      Y      Z        X      Y      Z        X      Y      Z
     1   6    -0.02   0.12   0.03     0.12   0.02   0.00     0.00  -0.03   0.12
     2   1     0.17  -0.45  -0.31    -0.50   0.07  -0.22    -0.22  -0.20  -0.15
     3   1     0.16  -0.37   0.24    -0.57  -0.03   0.13     0.05   0.38  -0.14
     4   1     0.13  -0.57  -0.14     0.08   0.03   0.09     0.06   0.16  -0.58
     5   1    -0.22  -0.04  -0.15    -0.47  -0.32   0.00     0.06   0.01  -0.59
                      4                      5                      6
                      A                      A                      A
 Frequencies --   1555.2243              1555.2464              3018.5369
 Red. masses --      1.0078                 1.0078                 1.0078
 Frc consts  --      1.4362                 1.4363                 5.4104
 IR Inten    --      0.0000                 0.0000                 0.0000
  Atom  AN      X      Y      Z        X      Y      Z        X      Y      Z
     1   6     0.00   0.00   0.00     0.00   0.00   0.00     0.00   0.00   0.00
     2   1    -0.02   0.40   0.30     0.47  -0.09   0.14    -0.16  -0.29   0.37
     3   1     0.33   0.31  -0.22    -0.37   0.32  -0.11    -0.07  -0.23  -0.44
     4   1     0.11  -0.46  -0.17    -0.03  -0.18   0.46     0.49   0.09   0.06
     5   1    -0.42  -0.25   0.09    -0.08  -0.05  -0.49    -0.25   0.43   0.00
                      7                      8                      9
                      A                      A                      A
 Frequencies --   3131.0616              3131.1846              3131.2058
 Red. masses --      1.1007                 1.1007                 1.1007
 Frc consts  --      6.3575                 6.3580                 6.3581
 IR Inten    --     23.7239                23.7272                23.7273
  Atom  AN      X      Y      Z        X      Y      Z        X      Y      Z
     1   6    -0.02  -0.06   0.07     0.05  -0.07  -0.04     0.07   0.03   0.05
     2   1     0.28   0.50  -0.64    -0.01  -0.05   0.04     0.00  -0.03   0.06
     3   1    -0.05  -0.15  -0.25     0.09   0.25   0.48    -0.07  -0.28  -0.52
     4   1     0.20   0.03   0.04    -0.28  -0.07  -0.05    -0.76  -0.15  -0.09
     5   1    -0.19   0.30   0.02    -0.39   0.67  -0.01    -0.05   0.11   0.01

 -------------------
 - Thermochemistry -
 -------------------
 Temperature   298.150 Kelvin.  Pressure   1.00000 Atm.
 Atom     1 has atomic number  6 and mass  12.00000
 Atom     2 has atomic number  1 and mass   1.00783
 Atom     3 has atomic number  1 and mass   1.00783
 Atom     4 has atomic number  1 and mass   1.00783
 Atom     5 has atomic number  1 and mass   1.00783
 Molecular mass:    16.03130 amu.
 Principal axes and moments of inertia in atomic units:
                           1         2         3
     Eigenvalues --    11.45489  11.45498  11.45508
           X            0.76583   0.18236  -0.61665
           Y            0.59884   0.14717   0.78723
           Z           -0.23431   0.97216  -0.00350
 This molecule is an asymmetric top.
 Rotational symmetry number  1.
 Rotational temperatures (Kelvin)      7.56129     7.56124     7.56117
 Rotational constants (GHZ):         157.55197   157.55086   157.54940
 Zero-point vibrational energy     116805.0 (Joules/Mol)
                                   27.91705 (Kcal/Mol)
 Vibrational temperatures:   1921.11  1921.14  1921.20  2237.62  2237.65
          (Kelvin)           4343.00  4504.89  4505.07  4505.10
 
 Zero-point correction=                           0.044489 (Hartree/Particle)
 Thermal correction to Energy=                    0.047358
 Thermal correction to Enthalpy=                  0.048302
 Thermal correction to Gibbs Free Energy=         0.024820
 Sum of electronic and zero-point Energies=            -40.466690
 Sum of electronic and thermal Energies=               -40.463821
 Sum of electronic and thermal Enthalpies=             -40.462877
 Sum of electronic and thermal Free Energies=          -40.486359
 
                     E (Thermal)             CV                S
                      KCal/Mol        Cal/Mol-Kelvin    Cal/Mol-Kelvin
 Total                   29.718              6.481             49.422
 Electronic               0.000              0.000              0.000
 Translational            0.889              2.981             34.261
 Rotational               0.889              2.981             15.071
 Vibrational             27.940              0.519              0.089
                       Q            Log10(Q)             Ln(Q)
 Total Bot       0.383249D-11        -11.416519        -26.287507
 Total V=0       0.111378D+10          9.046799         20.831025
 Vib (Bot)       0.346126D-20        -20.460766        -47.112654
 Vib (V=0)       0.100590D+01          0.002553          0.005878
 Electronic      0.100000D+01          0.000000          0.000000
 Translational   0.252295D+07          6.401908         14.740939
 Rotational      0.438872D+03          2.642338          6.084208
 
                                                        freq-b971_74-82-8.gau
                                                             IR Spectrum
 
      3   3                                                          1        1                                                      
      1   0                                                          5        3                                                      
      3   1                                                          5        3                                                      
      1   9                                                          5        5                                                      
 
      X                                                                       X                                                      
      X                                                                       X                                                      
      X                                                                       X                                                      
      X                                                                       X                                                      
      X                                                                       X                                                      
      X                                                                       X                                                      
      X                                                                       X                                                      
      X                                                                       X                                                      
      X                                                                       X                                                      
      X                                                                       X                                                      
      X                                                                       X                                                      
      X                                                                       X                                                      
      X                                                                       X                                                      
      X                                                                       X                                                      
      X                                                                       X                                                      
      X                                                                       X                                                      
      X                                                                                                                              
      X                                                                                                                              
      X                                                                                                                              
      X                                                                                                                              
 
 -------------------------------------------------------------------
 Center     Atomic                   Forces (Hartrees/Bohr)
 Number     Number              X              Y              Z
 -------------------------------------------------------------------
      1        6           0.000009288   -0.000005134   -0.000004595
      2        1          -0.000003543   -0.000001370    0.000003031
      3        1          -0.000000967    0.000001835    0.000001616
      4        1          -0.000002656    0.000001431   -0.000000252
      5        1          -0.000002122    0.000003238    0.000000200
 -------------------------------------------------------------------
 Cartesian Forces:  Max     0.000009288 RMS     0.000003545
 Force constants in Cartesian coordinates: 
                1             2             3             4             5 
      1  0.539016D+00
      2 -0.261932D-05  0.538989D+00
      3  0.134881D-04  0.192635D-04  0.539001D+00
      4 -0.736219D-01 -0.514470D-01  0.660618D-01  0.763178D-01
      5 -0.514464D-01 -0.135727D+00  0.117036D+00  0.565414D-01  0.144574D+00
      6  0.660618D-01  0.117037D+00 -0.194863D+00 -0.726034D-01 -0.128628D+00
      7 -0.496135D-01 -0.173010D-01 -0.321825D-01  0.339580D-03  0.634969D-02
      8 -0.173017D-01 -0.104132D+00 -0.110735D+00  0.378473D-02  0.998646D-02
      9 -0.321816D-01 -0.110737D+00 -0.250510D+00 -0.396136D-02 -0.120930D-01
     10 -0.300959D+00 -0.498424D-01 -0.337501D-01 -0.859228D-02 -0.755720D-03
     11 -0.498418D-01 -0.542763D-01 -0.655912D-02 -0.180629D-01 -0.404941D-02
     12 -0.337502D-01 -0.656099D-02 -0.490323D-01  0.246167D-01  0.323163D-02
     13 -0.114821D+00  0.118593D+00 -0.142632D-03  0.555676D-02 -0.106889D-01
     14  0.118593D+00 -0.244853D+00  0.239061D-03  0.918377D-02 -0.147843D-01
     15 -0.143393D-03  0.241568D-03 -0.445951D-01 -0.141137D-01  0.204528D-01
                6             7             8             9            10 
      6  0.209567D+00
      7  0.936853D-02  0.499317D-01
      8  0.173607D-01  0.190144D-01  0.109849D+00
      9 -0.190731D-01  0.353683D-01  0.121700D+00  0.270721D+00
     10 -0.179011D-02 -0.246831D-02  0.125342D-04  0.205424D-03  0.326165D+00
     11 -0.418124D-02 -0.148119D-01 -0.378371D-02 -0.377021D-03  0.547756D-01
     12  0.389219D-02 -0.284121D-01 -0.398872D-02 -0.249566D-02  0.370921D-01
     13 -0.103675D-02  0.181049D-02 -0.550995D-02  0.569271D-03 -0.141450D-01
     14 -0.158851D-02  0.674884D-02 -0.119193D-01  0.150624D-02 -0.418999D-02
     15  0.477809D-03  0.158578D-01 -0.243369D-01  0.135821D-02 -0.175723D-02
               11            12            13            14            15 
     11  0.550576D-01
     12  0.720924D-02  0.492930D-01
     13  0.279411D-01  0.453555D-03  0.121599D+00
     14  0.705175D-02  0.108837D-03 -0.130335D+00  0.264505D+00
     15  0.390814D-02 -0.165724D-02  0.156560D-03 -0.265632D-03  0.444164D-01
 Red2BG is reusing G-inverse.
 Force constants in internal coordinates: 
                1             2             3             4             5 
      1  0.341654D+00
      2  0.194289D-02  0.341691D+00
      3  0.194199D-02  0.194327D-02  0.341696D+00
      4  0.194356D-02  0.194251D-02  0.194412D-02  0.341689D+00
      5  0.198553D-02  0.198326D-02 -0.124573D-02 -0.272276D-02  0.194220D-01
      6  0.311115D-02 -0.802594D-03  0.345842D-02 -0.576978D-02 -0.863095D-02
      7  0.607736D-02 -0.487901D-02 -0.540089D-02  0.419979D-02 -0.128766D-01
      8 -0.803510D-03  0.311032D-02  0.346085D-02 -0.576958D-02 -0.863067D-02
      9 -0.487769D-02  0.608107D-02 -0.540095D-02  0.419993D-02 -0.128775D-01
     10 -0.549291D-02 -0.549317D-02  0.512797D-02  0.586290D-02  0.235934D-01
     11 -0.384515D-02 -0.384242D-02 -0.271190D-02  0.104020D-01 -0.132161D-01
     12  0.316633D-02  0.316497D-02 -0.813991D-02  0.180876D-02  0.801658D-02
     13 -0.416821D-02  0.733427D-02 -0.406846D-02  0.904583D-03  0.400826D-02
     14 -0.733454D-02  0.416930D-02  0.407145D-02 -0.904180D-03 -0.400833D-02
                6             7             8             9            10 
      6  0.366042D-01
      7 -0.222516D-01  0.715191D-01
      8 -0.206229D-02  0.244770D-01  0.366053D-01
      9  0.244765D-01 -0.346993D-01 -0.222537D-01  0.715227D-01
     10 -0.281367D-01 -0.261679D-01 -0.281365D-01 -0.261681D-01  0.850162D-01
     11 -0.105838D-01  0.144082D-01 -0.105848D-01  0.144108D-01  0.556713D-02
     12 -0.920818D-02  0.677586D-02 -0.920865D-02  0.677649D-02 -0.315154D-02
     13 -0.139752D-01 -0.518580D-03  0.476648D-02  0.729467D-02 -0.157537D-02
     14 -0.476705D-02 -0.729444D-02  0.139751D-01  0.518173D-03  0.157617D-02
               11            12            13            14 
     11  0.291515D-01
     12  0.146062D-02  0.181165D-01
     13  0.730566D-03  0.905813D-02  0.183980D-01
     14 -0.730055D-03 -0.905836D-02  0.933987D-02  0.183982D-01
 Leave Link  716 at Mon Apr 27 05:40:33 2015, MaxMem=   524288000 cpu:         0.3
 (Enter /opt/g09/l9999.exe)
 1\1\GINC-DURER\Freq\RB971\6-311+G(d,p)\C1H4\PB556\27-Apr-2015\0\\#p rB
 971/6-311+G(d,p) Opt=(Tight, CalcAll) Freq GFInput Population=None Int
 egral(Grid=UltraFine) Guess=MIX NoSymmetry\\freq-b971_74-82-8.gau\\0,1
 \C,1.05825,0.93523,0.8103\H,1.41623,1.56945,-0.00406\H,1.20721,1.4478,
 1.76352\H,-0.00532,0.72844,0.6703\H,1.61493,-0.00481,0.81143\\Version=
 ES64L-G09RevD.01\HF=-40.5111791\RMSD=4.608e-09\RMSF=3.545e-06\ZeroPoin
 t=0.0444887\Thermal=0.0473581\Dipole=0.0000036,-0.0000048,0.0000015\Di
 poleDeriv=-0.0276664,-0.0000003,0.0000097,-0.0000054,-0.027684,-0.0000
 045,0.0000123,-0.0000061,-0.0276573,0.0569837,-0.0421364,0.0540975,-0.
 0421361,0.0061238,0.0958729,0.05409,0.0958711,-0.0423195,0.0766426,-0.
 0141701,-0.0263528,-0.0141679,0.032003,-0.0906967,-0.0263536,-0.090683
 6,-0.087899,-0.1292044,-0.0408161,-0.027642,-0.0408287,0.0728278,-0.00
 5378,-0.0276434,-0.0053693,0.0771145,0.0232445,0.0971228,-0.0001124,0.
 097138,-0.0832707,0.0002063,-0.0001053,0.0001879,0.0807613\Polar=14.28
 70943,0.0000797,14.2871115,0.0000975,-0.0000326,14.2873878\PG=C01 [X(C
 1H4)]\NImag=0\\0.53901554,-0.00000262,0.53898855,0.00001349,0.00001926
 ,0.53900087,-0.07362188,-0.05144697,0.06606182,0.07631783,-0.05144642,
 -0.13572662,0.11703623,0.05654139,0.14457383,0.06606176,0.11703671,-0.
 19486347,-0.07260342,-0.12862768,0.20956662,-0.04961349,-0.01730100,-0
 .03218253,0.00033958,0.00634969,0.00936853,0.04993174,-0.01730169,-0.1
 0413234,-0.11073543,0.00378473,0.00998646,0.01736072,0.01901437,0.1098
 4893,-0.03218162,-0.11073655,-0.25051001,-0.00396136,-0.01209302,-0.01
 907314,0.03536829,0.12170036,0.27072060,-0.30095898,-0.04984239,-0.033
 75015,-0.00859228,-0.00075572,-0.00179011,-0.00246831,0.00001253,0.000
 20542,0.32616454,-0.04984181,-0.05427626,-0.00655912,-0.01806291,-0.00
 404941,-0.00418124,-0.01481191,-0.00378371,-0.00037702,0.05477557,0.05
 505763,-0.03375023,-0.00656099,-0.04903225,0.02461669,0.00323163,0.003
 89219,-0.02841207,-0.00398872,-0.00249566,0.03709206,0.00720924,0.0492
 9296,-0.11482119,0.11859298,-0.00014263,0.00555676,-0.01068894,-0.0010
 3675,0.00181049,-0.00550995,0.00056927,-0.01414497,0.02794107,0.000453
 55,0.12159891,0.11859254,-0.24485332,0.00023906,0.00918377,-0.01478426
 ,-0.00158851,0.00674884,-0.01191934,0.00150624,-0.00418999,0.00705175,
 0.00010884,-0.13033516,0.26450518,-0.00014339,0.00024157,-0.04459514,-
 0.01411372,0.02045284,0.00047781,0.01585778,-0.02433692,0.00135821,-0.
 00175723,0.00390814,-0.00165724,0.00015656,-0.00026563,0.04441636\\-0.
 00000929,0.00000513,0.00000459,0.00000354,0.00000137,-0.00000303,0.000
 00097,-0.00000184,-0.00000162,0.00000266,-0.00000143,0.00000025,0.0000
 0212,-0.00000324,-0.00000020\\\@


 ABSOLUTISM, OBSOLETISM -- IF IT WORKS, IT'S OUT OF DATE

                          -- STAFFORD BEER
 Leave Link 9999 at Mon Apr 27 05:40:33 2015, MaxMem=   524288000 cpu:         0.3
 Job cpu time:       0 days  0 hours  1 minutes 18.6 seconds.
 File lengths (MBytes):  RWF=      5 Int=      0 D2E=      0 Chk=      1 Scr=      1
 Normal termination of Gaussian 09 at Mon Apr 27 05:40:33 2015.
 (Enter /opt/g09/l1.exe)
 Link1:  Proceeding to internal job step number  2.
 ----------------------------------------------------------------------
 #P Geom=AllCheck Guess=TCheck SCRF=Check GenChk RB971/6-311+G(d,p) Fre
 q
 ----------------------------------------------------------------------
 1/7=10,10=4,29=7,30=1,38=1,40=1/1,3;
 2/12=2,15=1,40=1/2;
 3/5=4,6=6,7=111,11=2,14=-4,16=1,24=10,25=1,30=1,70=2,71=2,74=-20,75=-5,116=1,140=1/1,2,3;
 4/5=101/1;
 5/5=2,98=1/2;
 8/6=4,10=90,11=11/1;
 11/6=1,8=1,9=11,15=111,16=1,31=1/1,2,10;
 10/6=1,31=1/2;
 7/8=1,10=1,25=1,30=1/1,2,3,16;
 1/7=10,10=4,30=1/3;
 99//99;
 Leave Link    1 at Mon Apr 27 05:40:33 2015, MaxMem=   524288000 cpu:         0.4
 (Enter /opt/g09/l101.exe)
 Structure from the checkpoint file:  "/scratch/pb556/g09_run/add_hco//Gau-13390.chk"
 ---------------------
 freq-b971_74-82-8.gau
 ---------------------
 Charge =  0 Multiplicity = 1
 Redundant internal coordinates found in file.
 C,0,1.05825,0.93523,0.8103
 H,0,1.41623,1.56945,-0.00406
 H,0,1.20721,1.4478,1.76352
 H,0,-0.00532,0.72844,0.6703
 H,0,1.61493,-0.00481,0.81143
 Recover connectivity data from disk.
 NAtoms=      5 NQM=        5 NQMF=       0 NMMI=      0 NMMIF=      0
                NMic=       0 NMicF=      0.
                    Isotopes and Nuclear Properties:
 (Nuclear quadrupole moments (NQMom) in fm**2, nuclear magnetic moments (NMagM)
  in nuclear magnetons)

  Atom         1           2           3           4           5
 IAtWgt=          12           1           1           1           1
 AtmWgt=  12.0000000   1.0078250   1.0078250   1.0078250   1.0078250
 NucSpn=           0           1           1           1           1
 AtZEff=  -3.6000000  -1.0000000  -1.0000000  -1.0000000  -1.0000000
 NQMom=    0.0000000   0.0000000   0.0000000   0.0000000   0.0000000
 NMagM=    0.0000000   2.7928460   2.7928460   2.7928460   2.7928460
 AtZNuc=   6.0000000   1.0000000   1.0000000   1.0000000   1.0000000
 Leave Link  101 at Mon Apr 27 05:40:33 2015, MaxMem=   524288000 cpu:         1.8
 (Enter /opt/g09/l103.exe)

 GradGradGradGradGradGradGradGradGradGradGradGradGradGradGradGradGradGrad
 Berny optimization.
 Initialization pass.
                           ----------------------------
                           !    Initial Parameters    !
                           ! (Angstroms and Degrees)  !
 --------------------------                            --------------------------
 ! Name  Definition              Value          Derivative Info.                !
 --------------------------------------------------------------------------------
 ! R1    R(1,2)                  1.0925         calculate D2E/DX2 analytically  !
 ! R2    R(1,3)                  1.0925         calculate D2E/DX2 analytically  !
 ! R3    R(1,4)                  1.0925         calculate D2E/DX2 analytically  !
 ! R4    R(1,5)                  1.0925         calculate D2E/DX2 analytically  !
 ! A1    A(2,1,3)              109.4715         calculate D2E/DX2 analytically  !
 ! A2    A(2,1,4)              109.4725         calculate D2E/DX2 analytically  !
 ! A3    A(2,1,5)              109.47           calculate D2E/DX2 analytically  !
 ! A4    A(3,1,4)              109.4726         calculate D2E/DX2 analytically  !
 ! A5    A(3,1,5)              109.4704         calculate D2E/DX2 analytically  !
 ! A6    A(4,1,5)              109.4704         calculate D2E/DX2 analytically  !
 ! D1    D(2,1,4,3)           -120.0019         calculate D2E/DX2 analytically  !
 ! D2    D(2,1,5,3)            119.9991         calculate D2E/DX2 analytically  !
 ! D3    D(2,1,5,4)           -120.0003         calculate D2E/DX2 analytically  !
 ! D4    D(3,1,5,4)            120.0006         calculate D2E/DX2 analytically  !
 --------------------------------------------------------------------------------
 Trust Radius=3.00D-01 FncErr=1.00D-07 GrdErr=1.00D-07
 Number of steps in this run=      2 maximum allowed number of steps=      2.
 GradGradGradGradGradGradGradGradGradGradGradGradGradGradGradGradGradGrad

 Leave Link  103 at Mon Apr 27 05:40:33 2015, MaxMem=   524288000 cpu:         0.1
 (Enter /opt/g09/l202.exe)
                          Input orientation:                          
 ---------------------------------------------------------------------
 Center     Atomic      Atomic             Coordinates (Angstroms)
 Number     Number       Type             X           Y           Z
 ---------------------------------------------------------------------
      1          6           0        1.058250    0.935230    0.810300
      2          1           0        1.416230    1.569450   -0.004060
      3          1           0        1.207210    1.447800    1.763520
      4          1           0       -0.005320    0.728440    0.670300
      5          1           0        1.614930   -0.004810    0.811430
 ---------------------------------------------------------------------
                    Distance matrix (angstroms):
                    1          2          3          4          5
     1  C    0.000000
     2  H    1.092505   0.000000
     3  H    1.092495   1.784048   0.000000
     4  H    1.092494   1.784058   1.784051   0.000000
     5  H    1.092506   1.784040   1.784037   1.784036   0.000000
 Symmetry turned off by external request.
 Stoichiometry    CH4
 Framework group  C1[X(CH4)]
 Deg. of freedom     9
 Full point group                 C1      NOp   1
 Rotational constants (GHZ):    157.5519730    157.5508615    157.5493953
 Leave Link  202 at Mon Apr 27 05:40:33 2015, MaxMem=   524288000 cpu:         0.3
 (Enter /opt/g09/l301.exe)
 Standard basis: 6-311+G(d,p) (5D, 7F)
 Ernie: Thresh=  0.10000D-02 Tol=  0.10000D-05 Strict=F.
 AO basis set in the form of general basis input (Overlap normalization):
      1 0
 S   6 1.00       0.000000000000
      0.4563240000D+04  0.1966650249D-02
      0.6820240000D+03  0.1523060193D-01
      0.1549730000D+03  0.7612690966D-01
      0.4445530000D+02  0.2608010331D+00
      0.1302900000D+02  0.6164620782D+00
      0.1827730000D+01  0.2210060280D+00
 SP   3 1.00       0.000000000000
      0.2096420000D+02  0.1146600807D+00  0.4024869267D-01
      0.4803310000D+01  0.9199996477D+00  0.2375939567D+00
      0.1459330000D+01 -0.3030682134D-02  0.8158538515D+00
 SP   1 1.00       0.000000000000
      0.4834560000D+00  0.1000000000D+01  0.1000000000D+01
 SP   1 1.00       0.000000000000
      0.1455850000D+00  0.1000000000D+01  0.1000000000D+01
 SP   1 1.00       0.000000000000
      0.4380000000D-01  0.1000000000D+01  0.1000000000D+01
 D   1 1.00       0.000000000000
      0.6260000000D+00  0.1000000000D+01
 ****
      2 0
 S   3 1.00       0.000000000000
      0.3386500000D+02  0.2549381454D-01
      0.5094790000D+01  0.1903731086D+00
      0.1158790000D+01  0.8521614860D+00
 S   1 1.00       0.000000000000
      0.3258400000D+00  0.1000000000D+01
 S   1 1.00       0.000000000000
      0.1027410000D+00  0.1000000000D+01
 P   1 1.00       0.000000000000
      0.7500000000D+00  0.1000000000D+01
 ****
      3 0
 S   3 1.00       0.000000000000
      0.3386500000D+02  0.2549381454D-01
      0.5094790000D+01  0.1903731086D+00
      0.1158790000D+01  0.8521614860D+00
 S   1 1.00       0.000000000000
      0.3258400000D+00  0.1000000000D+01
 S   1 1.00       0.000000000000
      0.1027410000D+00  0.1000000000D+01
 P   1 1.00       0.000000000000
      0.7500000000D+00  0.1000000000D+01
 ****
      4 0
 S   3 1.00       0.000000000000
      0.3386500000D+02  0.2549381454D-01
      0.5094790000D+01  0.1903731086D+00
      0.1158790000D+01  0.8521614860D+00
 S   1 1.00       0.000000000000
      0.3258400000D+00  0.1000000000D+01
 S   1 1.00       0.000000000000
      0.1027410000D+00  0.1000000000D+01
 P   1 1.00       0.000000000000
      0.7500000000D+00  0.1000000000D+01
 ****
      5 0
 S   3 1.00       0.000000000000
      0.3386500000D+02  0.2549381454D-01
      0.5094790000D+01  0.1903731086D+00
      0.1158790000D+01  0.8521614860D+00
 S   1 1.00       0.000000000000
      0.3258400000D+00  0.1000000000D+01
 S   1 1.00       0.000000000000
      0.1027410000D+00  0.1000000000D+01
 P   1 1.00       0.000000000000
      0.7500000000D+00  0.1000000000D+01
 ****

    46 basis functions,    68 primitive gaussians,    47 cartesian basis functions
     5 alpha electrons        5 beta electrons
       nuclear repulsion energy        13.4046450151 Hartrees.
 IExCor= 1614 DFT=T Ex+Corr=B971 ExCW=0 ScaHFX=  0.210000
 ScaDFX=  1.000000  1.000000  1.000000  1.000000 ScalE2=  1.000000  1.000000
 IRadAn=      5 IRanWt=     -1 IRanGd=            0 ICorTp=0 IEmpDi=  4
 NAtoms=    5 NActive=    5 NUniq=    5 SFac= 1.00D+00 NAtFMM=   60 NAOKFM=F Big=F
 Integral buffers will be    131072 words long.
 Raffenetti 2 integral format.
 Two-electron integral symmetry is turned off.
 Leave Link  301 at Mon Apr 27 05:40:33 2015, MaxMem=   524288000 cpu:         0.4
 (Enter /opt/g09/l302.exe)
 NPDir=0 NMtPBC=     1 NCelOv=     1 NCel=       1 NClECP=     1 NCelD=      1
         NCelK=      1 NCelE2=     1 NClLst=     1 CellRange=     0.0.
 One-electron integrals computed using PRISM.
 NBasis=    46 RedAO= T EigKep=  9.19D-03  NBF=    46
 NBsUse=    46 1.00D-06 EigRej= -1.00D+00 NBFU=    46
 Precomputing XC quadrature grid using
 IXCGrd= 4 IRadAn=           5 IRanWt=          -1 IRanGd=           0 AccXCQ= 0.00D+00.
 Generated NRdTot=       0 NPtTot=           0 NUsed=           0 NTot=          32
 NSgBfM=    47    47    47    47    47 MxSgAt=     5 MxSgA2=     5.
 Leave Link  302 at Mon Apr 27 05:40:34 2015, MaxMem=   524288000 cpu:         1.3
 (Enter /opt/g09/l303.exe)
 DipDrv:  MaxL=1.
 Leave Link  303 at Mon Apr 27 05:40:34 2015, MaxMem=   524288000 cpu:         0.3
 (Enter /opt/g09/l401.exe)
 Initial guess from the checkpoint file:  "/scratch/pb556/g09_run/add_hco//Gau-13390.chk"
 B after Tr=     0.000000    0.000000    0.000000
         Rot=    1.000000    0.000000    0.000000    0.000000 Ang=   0.00 deg.
 Guess basis will be translated and rotated to current coordinates.
 JPrj=2 DoOrth=T DoCkMO=T.
 Leave Link  401 at Mon Apr 27 05:40:34 2015, MaxMem=   524288000 cpu:         0.8
 (Enter /opt/g09/l502.exe)
 Closed shell SCF:
 Using DIIS extrapolation, IDIIS=  1040.
 Two-electron integral symmetry not used.
 Keep R1 ints in memory in canonical form, NReq=1478124.
 IVT=       25845 IEndB=       25845 NGot=   524288000 MDV=   523677335
 LenX=   523677335 LenY=   523674685
 Requested convergence on RMS density matrix=1.00D-08 within 128 cycles.
 Requested convergence on MAX density matrix=1.00D-06.
 Requested convergence on             energy=1.00D-06.
 No special actions if energy rises.
 FoFCou: FMM=F IPFlag=           0 FMFlag=           0 FMFlg1=           0
         NFxFlg=           0 DoJE=F BraDBF=F KetDBF=F FulRan=T
         wScrn=  0.000000 ICntrl=     600 IOpCl=  0 I1Cent=           0 NGrid=           0
         NMat0=    1 NMatS0=   1081 NMatT0=    0 NMatD0=    1 NMtDS0=    0 NMtDT0=    0
 Symmetry not used in FoFCou.

 Cycle   1  Pass 1  IDiag  1:
 E= -40.5111790554747    
 DIIS: error= 2.70D-09 at cycle   1 NSaved=   1.
 NSaved= 1 IEnMin= 1 EnMin= -40.5111790554747     IErMin= 1 ErrMin= 2.70D-09
 ErrMax= 2.70D-09  0.00D+00 EMaxC= 1.00D-01 BMatC= 2.14D-16 BMatP= 2.14D-16
 IDIUse=1 WtCom= 1.00D+00 WtEn= 0.00D+00
 Coeff-Com:  0.100D+01
 Coeff:      0.100D+01
 Gap=     0.414 Goal=   None    Shift=    0.000
 RMSDP=3.78D-10 MaxDP=5.18D-09              OVMax= 1.16D-08

 SCF Done:  E(RB971) =  -40.5111790555     A.U. after    1 cycles
            NFock=  1  Conv=0.38D-09     -V/T= 2.0053
 KE= 4.029587685001D+01 PE=-1.200799552537D+02 EE= 2.586825433314D+01
 Leave Link  502 at Mon Apr 27 05:40:34 2015, MaxMem=   524288000 cpu:         2.1
 (Enter /opt/g09/l801.exe)
 DoSCS=F DFT=T ScalE2(SS,OS)=  1.000000  1.000000
 Range of M.O.s used for correlation:     1    46
 NBasis=    46 NAE=     5 NBE=     5 NFC=     0 NFV=     0
 NROrb=     46 NOA=     5 NOB=     5 NVA=    41 NVB=    41
 Leave Link  801 at Mon Apr 27 05:40:34 2015, MaxMem=   524288000 cpu:         0.3
 (Enter /opt/g09/l1101.exe)
 Using compressed storage, NAtomX=     5.
 Will process      6 centers per pass.
 Leave Link 1101 at Mon Apr 27 05:40:34 2015, MaxMem=   524288000 cpu:         1.2
 (Enter /opt/g09/l1102.exe)
 Symmetrizing basis deriv contribution to polar:
 IMax=3 JMax=2 DiffMx= 0.00D+00
 Leave Link 1102 at Mon Apr 27 05:40:35 2015, MaxMem=   524288000 cpu:         0.3
 (Enter /opt/g09/l1110.exe)
 Forming Gx(P) for the SCF density, NAtomX=     5.
 Integral derivatives from FoFJK, PRISM(SPDF).
 Do as many integral derivatives as possible in FoFJK.
 G2DrvN: MDV=     524287856.
 G2DrvN: will do     6 centers at a time, making    1 passes.
 Calling FoFCou, ICntrl=  3107 FMM=F I1Cent=   0 AccDes= 0.00D+00.
 FoFJK:  IHMeth= 1 ICntrl=    3107 DoSepK=F KAlg= 0 I1Cent=   0 FoldK=F
 IRaf=         0 NMat=   1 IRICut=       1 DoRegI=T DoRafI=F ISym2E= 0.
 FoFCou: FMM=F IPFlag=           0 FMFlag=      100000 FMFlg1=           0
         NFxFlg=           0 DoJE=F BraDBF=F KetDBF=F FulRan=T
         wScrn=  0.000000 ICntrl=    3107 IOpCl=  0 I1Cent=           0 NGrid=           0
         NMat0=    1 NMatS0=      1 NMatT0=    0 NMatD0=    1 NMtDS0=    0 NMtDT0=    0
 Symmetry not used in FoFCou.
 End of G2Drv F.D. properties file   721 does not exist.
 End of G2Drv F.D. properties file   722 does not exist.
 End of G2Drv F.D. properties file   788 does not exist.
 Leave Link 1110 at Mon Apr 27 05:40:36 2015, MaxMem=   524288000 cpu:        13.5
 (Enter /opt/g09/l1002.exe)
 Minotr:  Closed shell wavefunction.
          IDoAtm=11111
          Direct CPHF calculation.
          Differentiating once with respect to electric field.
                with respect to dipole field.
          Differentiating once with respect to nuclear coordinates.
          Requested convergence is 1.0D-08 RMS, and 1.0D-07 maximum.
          Secondary convergence is 1.0D-12 RMS, and 1.0D-12 maximum.
          NewPWx=T KeepS1=F KeepF1=F KeepIn=T MapXYZ=F SortEE=F KeepMc=T.
          MDV=     524287900 using IRadAn=       1.
 Generate precomputed XC quadrature information.
 Keep R1 ints in memory in canonical form, NReq=1451105.
 FoFCou: FMM=F IPFlag=           0 FMFlag=           0 FMFlg1=           0
         NFxFlg=           0 DoJE=F BraDBF=F KetDBF=F FulRan=T
         wScrn=  0.000000 ICntrl=     600 IOpCl=  0 I1Cent=           0 NGrid=           0
         NMat0=    1 NMatS0=   1081 NMatT0=    0 NMatD0=    1 NMtDS0=    0 NMtDT0=    0
 Symmetry not used in FoFCou.
          Solving linear equations simultaneously, MaxMat=       0.
          There are    18 degrees of freedom in the 1st order CPHF.  IDoFFX=6 NUNeed=     3.
     15 vectors produced by pass  0 Test12= 1.14D-15 5.56D-09 XBig12= 7.25D+00 1.38D+00.
 AX will form    15 AO Fock derivatives at one time.
     15 vectors produced by pass  1 Test12= 1.14D-15 5.56D-09 XBig12= 1.46D-01 1.67D-01.
     15 vectors produced by pass  2 Test12= 1.14D-15 5.56D-09 XBig12= 4.69D-04 6.66D-03.
     15 vectors produced by pass  3 Test12= 1.14D-15 5.56D-09 XBig12= 3.27D-07 1.86D-04.
     15 vectors produced by pass  4 Test12= 1.14D-15 5.56D-09 XBig12= 8.28D-11 3.19D-06.
      4 vectors produced by pass  5 Test12= 1.14D-15 5.56D-09 XBig12= 1.53D-14 5.08D-08.
 InvSVY:  IOpt=1 It=  1 EMax= 7.77D-16
 Solved reduced A of dimension    79 with    15 vectors.
 FullF1:  Do perturbations    1 to     3.
 Isotropic polarizability for W=    0.000000       14.29 Bohr**3.
 End of Minotr F.D. properties file   721 does not exist.
 End of Minotr F.D. properties file   722 does not exist.
 End of Minotr F.D. properties file   788 does not exist.
 Leave Link 1002 at Mon Apr 27 05:40:38 2015, MaxMem=   524288000 cpu:        12.5
 (Enter /opt/g09/l701.exe)
 Compute integral second derivatives.
 ... and contract with generalized density number  0.
 Leave Link  701 at Mon Apr 27 05:40:38 2015, MaxMem=   524288000 cpu:         2.1
 (Enter /opt/g09/l702.exe)
 L702 exits ... SP integral derivatives will be done elsewhere.
 Leave Link  702 at Mon Apr 27 05:40:38 2015, MaxMem=   524288000 cpu:         0.3
 (Enter /opt/g09/l703.exe)
 Compute integral second derivatives, UseDBF=F ICtDFT=           0.
 Integral derivatives from FoFJK, PRISM(SPDF).
 Calling FoFJK, ICntrl=    100127 FMM=F ISym2X=0 I1Cent= 0 IOpClX= 0 NMat=1 NMatS=1 NMatT=0.
 FoFJK:  IHMeth= 1 ICntrl=  100127 DoSepK=F KAlg= 0 I1Cent=   0 FoldK=F
 IRaf=         0 NMat=   1 IRICut=       1 DoRegI=T DoRafI=F ISym2E= 0.
 FoFCou: FMM=F IPFlag=           0 FMFlag=      100000 FMFlg1=         800
         NFxFlg=           0 DoJE=F BraDBF=F KetDBF=F FulRan=T
         wScrn=  0.000000 ICntrl=  100127 IOpCl=  0 I1Cent=           0 NGrid=           0
         NMat0=    1 NMatS0=      1 NMatT0=    0 NMatD0=    1 NMtDS0=    0 NMtDT0=    0
 Symmetry not used in FoFCou.
 Leave Link  703 at Mon Apr 27 05:40:41 2015, MaxMem=   524288000 cpu:        23.4
 (Enter /opt/g09/l716.exe)
 Dipole        = 3.60830874D-06-4.84301684D-06 1.51283828D-06
 Polarizability= 1.42870941D+01 7.97967891D-05 1.42871112D+01
                 9.74979761D-05-3.26409807D-05 1.42873876D+01
 Full mass-weighted force constant matrix:
 Low frequencies ---   -5.5711   -0.0007    0.0007    0.0007   10.1519   13.6831
 Low frequencies --- 1335.2431 1335.2573 1335.3036
 Diagonal vibrational polarizability:
        0.3477145       0.3477374       0.3476767
 Harmonic frequencies (cm**-1), IR intensities (KM/Mole), Raman scattering
 activities (A**4/AMU), depolarization ratios for plane and unpolarized
 incident light, reduced masses (AMU), force constants (mDyne/A),
 and normal coordinates:
                      1                      2                      3
                      A                      A                      A
 Frequencies --   1335.2431              1335.2573              1335.3036
 Red. masses --      1.1801                 1.1801                 1.1801
 Frc consts  --      1.2397                 1.2397                 1.2398
 IR Inten    --     18.7245                18.7214                18.7199
  Atom  AN      X      Y      Z        X      Y      Z        X      Y      Z
     1   6    -0.02   0.12   0.03     0.12   0.02   0.00     0.00  -0.03   0.12
     2   1     0.17  -0.45  -0.31    -0.50   0.07  -0.22    -0.22  -0.20  -0.15
     3   1     0.16  -0.37   0.24    -0.57  -0.03   0.13     0.05   0.38  -0.14
     4   1     0.13  -0.57  -0.14     0.08   0.03   0.09     0.06   0.16  -0.58
     5   1    -0.22  -0.04  -0.15    -0.47  -0.32   0.00     0.06   0.01  -0.59
                      4                      5                      6
                      A                      A                      A
 Frequencies --   1555.2243              1555.2463              3018.5369
 Red. masses --      1.0078                 1.0078                 1.0078
 Frc consts  --      1.4362                 1.4363                 5.4104
 IR Inten    --      0.0000                 0.0000                 0.0000
  Atom  AN      X      Y      Z        X      Y      Z        X      Y      Z
     1   6     0.00   0.00   0.00     0.00   0.00   0.00     0.00   0.00   0.00
     2   1    -0.02   0.40   0.30     0.47  -0.09   0.14    -0.16  -0.29   0.37
     3   1     0.33   0.31  -0.22    -0.37   0.32  -0.11    -0.07  -0.23  -0.44
     4   1     0.11  -0.46  -0.17    -0.03  -0.18   0.46     0.49   0.09   0.06
     5   1    -0.42  -0.25   0.09    -0.08  -0.05  -0.49    -0.25   0.43   0.00
                      7                      8                      9
                      A                      A                      A
 Frequencies --   3131.0616              3131.1846              3131.2058
 Red. masses --      1.1007                 1.1007                 1.1007
 Frc consts  --      6.3575                 6.3580                 6.3581
 IR Inten    --     23.7239                23.7271                23.7273
  Atom  AN      X      Y      Z        X      Y      Z        X      Y      Z
     1   6    -0.02  -0.06   0.07     0.05  -0.07  -0.04     0.07   0.03   0.05
     2   1     0.28   0.50  -0.64    -0.01  -0.05   0.04     0.00  -0.03   0.06
     3   1    -0.05  -0.15  -0.25     0.09   0.25   0.48    -0.07  -0.28  -0.52
     4   1     0.20   0.03   0.04    -0.28  -0.07  -0.05    -0.76  -0.15  -0.09
     5   1    -0.19   0.30   0.02    -0.39   0.67  -0.01    -0.05   0.11   0.01

 -------------------
 - Thermochemistry -
 -------------------
 Temperature   298.150 Kelvin.  Pressure   1.00000 Atm.
 Atom     1 has atomic number  6 and mass  12.00000
 Atom     2 has atomic number  1 and mass   1.00783
 Atom     3 has atomic number  1 and mass   1.00783
 Atom     4 has atomic number  1 and mass   1.00783
 Atom     5 has atomic number  1 and mass   1.00783
 Molecular mass:    16.03130 amu.
 Principal axes and moments of inertia in atomic units:
                           1         2         3
     Eigenvalues --    11.45489  11.45498  11.45508
           X            0.76583   0.18236  -0.61665
           Y            0.59884   0.14717   0.78723
           Z           -0.23431   0.97216  -0.00350
 This molecule is an asymmetric top.
 Rotational symmetry number  1.
 Rotational temperatures (Kelvin)      7.56129     7.56124     7.56117
 Rotational constants (GHZ):         157.55197   157.55086   157.54940
 Zero-point vibrational energy     116805.0 (Joules/Mol)
                                   27.91705 (Kcal/Mol)
 Vibrational temperatures:   1921.11  1921.14  1921.20  2237.62  2237.65
          (Kelvin)           4343.00  4504.89  4505.07  4505.10
 
 Zero-point correction=                           0.044489 (Hartree/Particle)
 Thermal correction to Energy=                    0.047358
 Thermal correction to Enthalpy=                  0.048302
 Thermal correction to Gibbs Free Energy=         0.024820
 Sum of electronic and zero-point Energies=            -40.466690
 Sum of electronic and thermal Energies=               -40.463821
 Sum of electronic and thermal Enthalpies=             -40.462877
 Sum of electronic and thermal Free Energies=          -40.486359
 
                     E (Thermal)             CV                S
                      KCal/Mol        Cal/Mol-Kelvin    Cal/Mol-Kelvin
 Total                   29.718              6.481             49.422
 Electronic               0.000              0.000              0.000
 Translational            0.889              2.981             34.261
 Rotational               0.889              2.981             15.071
 Vibrational             27.940              0.519              0.089
                       Q            Log10(Q)             Ln(Q)
 Total Bot       0.383249D-11        -11.416519        -26.287506
 Total V=0       0.111378D+10          9.046799         20.831025
 Vib (Bot)       0.346126D-20        -20.460765        -47.112654
 Vib (V=0)       0.100590D+01          0.002553          0.005878
 Electronic      0.100000D+01          0.000000          0.000000
 Translational   0.252295D+07          6.401908         14.740939
 Rotational      0.438872D+03          2.642338          6.084208
 
                                                        freq-b971_74-82-8.gau
                                                             IR Spectrum
 
      3   3                                                          1        1                                                      
      1   0                                                          5        3                                                      
      3   1                                                          5        3                                                      
      1   9                                                          5        5                                                      
 
      X                                                                       X                                                      
      X                                                                       X                                                      
      X                                                                       X                                                      
      X                                                                       X                                                      
      X                                                                       X                                                      
      X                                                                       X                                                      
      X                                                                       X                                                      
      X                                                                       X                                                      
      X                                                                       X                                                      
      X                                                                       X                                                      
      X                                                                       X                                                      
      X                                                                       X                                                      
      X                                                                       X                                                      
      X                                                                       X                                                      
      X                                                                       X                                                      
      X                                                                       X                                                      
      X                                                                                                                              
      X                                                                                                                              
      X                                                                                                                              
      X                                                                                                                              
 
 -------------------------------------------------------------------
 Center     Atomic                   Forces (Hartrees/Bohr)
 Number     Number              X              Y              Z
 -------------------------------------------------------------------
      1        6           0.000009292   -0.000005138   -0.000004597
      2        1          -0.000003543   -0.000001370    0.000003031
      3        1          -0.000000967    0.000001838    0.000001620
      4        1          -0.000002659    0.000001431   -0.000000253
      5        1          -0.000002122    0.000003238    0.000000200
 -------------------------------------------------------------------
 Cartesian Forces:  Max     0.000009292 RMS     0.000003546
 Force constants in Cartesian coordinates: 
                1             2             3             4             5 
      1  0.539016D+00
      2 -0.261984D-05  0.538989D+00
      3  0.134889D-04  0.192644D-04  0.539001D+00
      4 -0.736219D-01 -0.514470D-01  0.660618D-01  0.763178D-01
      5 -0.514464D-01 -0.135727D+00  0.117036D+00  0.565414D-01  0.144574D+00
      6  0.660618D-01  0.117037D+00 -0.194863D+00 -0.726034D-01 -0.128628D+00
      7 -0.496135D-01 -0.173010D-01 -0.321825D-01  0.339580D-03  0.634969D-02
      8 -0.173017D-01 -0.104132D+00 -0.110735D+00  0.378473D-02  0.998646D-02
      9 -0.321816D-01 -0.110737D+00 -0.250510D+00 -0.396136D-02 -0.120930D-01
     10 -0.300959D+00 -0.498424D-01 -0.337501D-01 -0.859228D-02 -0.755720D-03
     11 -0.498418D-01 -0.542763D-01 -0.655912D-02 -0.180629D-01 -0.404941D-02
     12 -0.337502D-01 -0.656099D-02 -0.490322D-01  0.246167D-01  0.323163D-02
     13 -0.114821D+00  0.118593D+00 -0.142632D-03  0.555676D-02 -0.106889D-01
     14  0.118593D+00 -0.244853D+00  0.239061D-03  0.918377D-02 -0.147843D-01
     15 -0.143393D-03  0.241568D-03 -0.445951D-01 -0.141137D-01  0.204528D-01
                6             7             8             9            10 
      6  0.209567D+00
      7  0.936853D-02  0.499317D-01
      8  0.173607D-01  0.190144D-01  0.109849D+00
      9 -0.190731D-01  0.353683D-01  0.121700D+00  0.270721D+00
     10 -0.179011D-02 -0.246831D-02  0.125342D-04  0.205424D-03  0.326165D+00
     11 -0.418124D-02 -0.148119D-01 -0.378371D-02 -0.377021D-03  0.547756D-01
     12  0.389219D-02 -0.284121D-01 -0.398872D-02 -0.249566D-02  0.370921D-01
     13 -0.103675D-02  0.181049D-02 -0.550995D-02  0.569271D-03 -0.141450D-01
     14 -0.158851D-02  0.674884D-02 -0.119193D-01  0.150624D-02 -0.418999D-02
     15  0.477809D-03  0.158578D-01 -0.243369D-01  0.135821D-02 -0.175723D-02
               11            12            13            14            15 
     11  0.550576D-01
     12  0.720924D-02  0.492930D-01
     13  0.279411D-01  0.453555D-03  0.121599D+00
     14  0.705175D-02  0.108837D-03 -0.130335D+00  0.264505D+00
     15  0.390814D-02 -0.165724D-02  0.156560D-03 -0.265631D-03  0.444164D-01
 FormGI is forming the generalized inverse of G from B-inverse, IUseBI=4.
 Force constants in internal coordinates: 
                1             2             3             4             5 
      1  0.341654D+00
      2  0.194289D-02  0.341691D+00
      3  0.194199D-02  0.194327D-02  0.341696D+00
      4  0.194356D-02  0.194251D-02  0.194412D-02  0.341689D+00
      5  0.198553D-02  0.198326D-02 -0.124573D-02 -0.272276D-02  0.194220D-01
      6  0.311115D-02 -0.802594D-03  0.345842D-02 -0.576978D-02 -0.863095D-02
      7  0.607736D-02 -0.487901D-02 -0.540089D-02  0.419979D-02 -0.128766D-01
      8 -0.803510D-03  0.311032D-02  0.346085D-02 -0.576958D-02 -0.863067D-02
      9 -0.487769D-02  0.608107D-02 -0.540095D-02  0.419993D-02 -0.128775D-01
     10 -0.549291D-02 -0.549317D-02  0.512797D-02  0.586290D-02  0.235934D-01
     11 -0.384515D-02 -0.384242D-02 -0.271190D-02  0.104020D-01 -0.132161D-01
     12  0.316633D-02  0.316497D-02 -0.813991D-02  0.180876D-02  0.801658D-02
     13 -0.416821D-02  0.733426D-02 -0.406846D-02  0.904583D-03  0.400826D-02
     14 -0.733454D-02  0.416930D-02  0.407145D-02 -0.904180D-03 -0.400833D-02
                6             7             8             9            10 
      6  0.366042D-01
      7 -0.222516D-01  0.715191D-01
      8 -0.206229D-02  0.244770D-01  0.366053D-01
      9  0.244765D-01 -0.346993D-01 -0.222537D-01  0.715227D-01
     10 -0.281367D-01 -0.261679D-01 -0.281365D-01 -0.261681D-01  0.850162D-01
     11 -0.105838D-01  0.144081D-01 -0.105848D-01  0.144108D-01  0.556713D-02
     12 -0.920818D-02  0.677586D-02 -0.920865D-02  0.677649D-02 -0.315154D-02
     13 -0.139752D-01 -0.518580D-03  0.476648D-02  0.729467D-02 -0.157537D-02
     14 -0.476705D-02 -0.729444D-02  0.139751D-01  0.518173D-03  0.157617D-02
               11            12            13            14 
     11  0.291515D-01
     12  0.146062D-02  0.181165D-01
     13  0.730566D-03  0.905813D-02  0.183980D-01
     14 -0.730055D-03 -0.905836D-02  0.933987D-02  0.183982D-01
 Leave Link  716 at Mon Apr 27 05:40:41 2015, MaxMem=   524288000 cpu:         0.3
 (Enter /opt/g09/l103.exe)

 GradGradGradGradGradGradGradGradGradGradGradGradGradGradGradGradGradGrad
 Berny optimization.
 Red2BG is reusing G-inverse.
 Internal  Forces:  Max     0.000004215 RMS     0.000002018
 Search for a local minimum.
 Step number   1 out of a maximum of    2
 All quantities printed in internal units (Hartrees-Bohrs-Radians)
 Second derivative matrix not updated -- analytic derivatives used.
 The second derivative matrix:
                          R1        R2        R3        R4        A1
           R1           0.34165
           R2           0.00194   0.34169
           R3           0.00194   0.00194   0.34170
           R4           0.00194   0.00194   0.00194   0.34169
           A1           0.00199   0.00198  -0.00125  -0.00272   0.01942
           A2           0.00311  -0.00080   0.00346  -0.00577  -0.00863
           A3           0.00608  -0.00488  -0.00540   0.00420  -0.01288
           A4          -0.00080   0.00311   0.00346  -0.00577  -0.00863
           A5          -0.00488   0.00608  -0.00540   0.00420  -0.01288
           A6          -0.00549  -0.00549   0.00513   0.00586   0.02359
           D1          -0.00385  -0.00384  -0.00271   0.01040  -0.01322
           D2           0.00317   0.00316  -0.00814   0.00181   0.00802
           D3          -0.00417   0.00733  -0.00407   0.00090   0.00401
           D4          -0.00733   0.00417   0.00407  -0.00090  -0.00401
                          A2        A3        A4        A5        A6
           A2           0.03660
           A3          -0.02225   0.07152
           A4          -0.00206   0.02448   0.03661
           A5           0.02448  -0.03470  -0.02225   0.07152
           A6          -0.02814  -0.02617  -0.02814  -0.02617   0.08502
           D1          -0.01058   0.01441  -0.01058   0.01441   0.00557
           D2          -0.00921   0.00678  -0.00921   0.00678  -0.00315
           D3          -0.01398  -0.00052   0.00477   0.00729  -0.00158
           D4          -0.00477  -0.00729   0.01398   0.00052   0.00158
                          D1        D2        D3        D4
           D1           0.02915
           D2           0.00146   0.01812
           D3           0.00073   0.00906   0.01840
           D4          -0.00073  -0.00906   0.00934   0.01840
 ITU=  0
     Eigenvalues ---    0.03711   0.04180   0.06348   0.12931   0.12984
     Eigenvalues ---    0.34070   0.34072   0.34102   0.34751
 Angle between quadratic step and forces=  41.20 degrees.
 Linear search not attempted -- first point.
 Iteration  1 RMS(Cart)=  0.00001042 RMS(Int)=  0.00000000
 Iteration  2 RMS(Cart)=  0.00000000 RMS(Int)=  0.00000000
 ITry= 1 IFail=0 DXMaxC= 1.92D-05 DCOld= 1.00D+10 DXMaxT= 3.00D-01 DXLimC= 3.00D+00 Rises=F
 Variable       Old X    -DE/DX   Delta X   Delta X   Delta X     New X
                                 (Linear)    (Quad)   (Total)
    R1        2.06454   0.00000   0.00000  -0.00001  -0.00001   2.06452
    R2        2.06452   0.00000   0.00000   0.00001   0.00001   2.06452
    R3        2.06451   0.00000   0.00000   0.00001   0.00001   2.06452
    R4        2.06454   0.00000   0.00000  -0.00001  -0.00001   2.06452
    A1        1.91064   0.00000   0.00000  -0.00001  -0.00001   1.91063
    A2        1.91066   0.00000   0.00000  -0.00002  -0.00002   1.91063
    A3        1.91061   0.00000   0.00000   0.00002   0.00002   1.91064
    A4        1.91066   0.00000   0.00000  -0.00002  -0.00002   1.91064
    A5        1.91062   0.00000   0.00000   0.00001   0.00001   1.91063
    A6        1.91062   0.00000   0.00000   0.00001   0.00001   1.91063
    D1       -2.09443   0.00000   0.00000   0.00003   0.00003  -2.09439
    D2        2.09438   0.00000   0.00000   0.00002   0.00002   2.09440
    D3       -2.09440   0.00000   0.00000   0.00001   0.00001  -2.09439
    D4        2.09441   0.00000   0.00000  -0.00001  -0.00001   2.09440
         Item               Value     Threshold  Converged?
 Maximum Force            0.000004     0.000015     YES
 RMS     Force            0.000002     0.000010     YES
 Maximum Displacement     0.000019     0.000060     YES
 RMS     Displacement     0.000010     0.000040     YES
 Predicted change in Energy=-1.787016D-10
 Optimization completed.
    -- Stationary point found.
                           ----------------------------
                           !   Optimized Parameters   !
                           ! (Angstroms and Degrees)  !
 --------------------------                            --------------------------
 ! Name  Definition              Value          Derivative Info.                !
 --------------------------------------------------------------------------------
 ! R1    R(1,2)                  1.0925         -DE/DX =    0.0                 !
 ! R2    R(1,3)                  1.0925         -DE/DX =    0.0                 !
 ! R3    R(1,4)                  1.0925         -DE/DX =    0.0                 !
 ! R4    R(1,5)                  1.0925         -DE/DX =    0.0                 !
 ! A1    A(2,1,3)              109.4715         -DE/DX =    0.0                 !
 ! A2    A(2,1,4)              109.4725         -DE/DX =    0.0                 !
 ! A3    A(2,1,5)              109.47           -DE/DX =    0.0                 !
 ! A4    A(3,1,4)              109.4726         -DE/DX =    0.0                 !
 ! A5    A(3,1,5)              109.4704         -DE/DX =    0.0                 !
 ! A6    A(4,1,5)              109.4704         -DE/DX =    0.0                 !
 ! D1    D(2,1,4,3)           -120.0019         -DE/DX =    0.0                 !
 ! D2    D(2,1,5,3)            119.9991         -DE/DX =    0.0                 !
 ! D3    D(2,1,5,4)           -120.0003         -DE/DX =    0.0                 !
 ! D4    D(3,1,5,4)            120.0006         -DE/DX =    0.0                 !
 --------------------------------------------------------------------------------
 GradGradGradGradGradGradGradGradGradGradGradGradGradGradGradGradGradGrad

 Leave Link  103 at Mon Apr 27 05:40:42 2015, MaxMem=   524288000 cpu:         0.1
 (Enter /opt/g09/l9999.exe)
 1\1\GINC-DURER\Freq\RB971\6-311+G(d,p)\C1H4\PB556\27-Apr-2015\0\\#P Ge
 om=AllCheck Guess=TCheck SCRF=Check GenChk RB971/6-311+G(d,p) Freq\\fr
 eq-b971_74-82-8.gau\\0,1\C,1.05825,0.93523,0.8103\H,1.41623,1.56945,-0
 .00406\H,1.20721,1.4478,1.76352\H,-0.00532,0.72844,0.6703\H,1.61493,-0
 .00481,0.81143\\Version=ES64L-G09RevD.01\HF=-40.5111791\RMSD=3.779e-10
 \RMSF=3.546e-06\ZeroPoint=0.0444887\Thermal=0.0473581\Dipole=0.0000036
 ,-0.0000048,0.0000015\DipoleDeriv=-0.0276664,-0.0000003,0.0000097,-0.0
 000054,-0.0276841,-0.0000045,0.0000123,-0.0000061,-0.0276574,0.0569837
 ,-0.0421364,0.0540975,-0.0421361,0.0061238,0.0958729,0.05409,0.0958711
 ,-0.0423195,0.0766426,-0.0141701,-0.0263528,-0.0141679,0.0320031,-0.09
 06967,-0.0263535,-0.0906836,-0.087899,-0.1292044,-0.0408161,-0.027642,
 -0.0408287,0.0728278,-0.005378,-0.0276434,-0.0053693,0.0771145,0.02324
 45,0.0971228,-0.0001124,0.097138,-0.0832706,0.0002063,-0.0001053,0.000
 1879,0.0807613\Polar=14.2870941,0.0000798,14.2871112,0.0000975,-0.0000
 326,14.2873876\PG=C01 [X(C1H4)]\NImag=0\\0.53901554,-0.00000262,0.5389
 8855,0.00001349,0.00001926,0.53900086,-0.07362188,-0.05144697,0.066061
 82,0.07631782,-0.05144642,-0.13572662,0.11703623,0.05654139,0.14457383
 ,0.06606176,0.11703671,-0.19486347,-0.07260342,-0.12862768,0.20956661,
 -0.04961349,-0.01730100,-0.03218253,0.00033958,0.00634969,0.00936853,0
 .04993173,-0.01730169,-0.10413234,-0.11073543,0.00378473,0.00998646,0.
 01736071,0.01901437,0.10984892,-0.03218162,-0.11073655,-0.25051001,-0.
 00396136,-0.01209302,-0.01907314,0.03536829,0.12170036,0.27072060,-0.3
 0095898,-0.04984239,-0.03375015,-0.00859228,-0.00075572,-0.00179011,-0
 .00246831,0.00001253,0.00020542,0.32616454,-0.04984181,-0.05427626,-0.
 00655912,-0.01806291,-0.00404941,-0.00418124,-0.01481191,-0.00378371,-
 0.00037702,0.05477557,0.05505762,-0.03375023,-0.00656099,-0.04903225,0
 .02461668,0.00323163,0.00389219,-0.02841207,-0.00398872,-0.00249566,0.
 03709207,0.00720924,0.04929295,-0.11482119,0.11859298,-0.00014263,0.00
 555676,-0.01068894,-0.00103675,0.00181049,-0.00550995,0.00056927,-0.01
 414496,0.02794107,0.00045355,0.12159891,0.11859254,-0.24485333,0.00023
 906,0.00918377,-0.01478426,-0.00158851,0.00674884,-0.01191934,0.001506
 24,-0.00418999,0.00705175,0.00010884,-0.13033516,0.26450518,-0.0001433
 9,0.00024157,-0.04459514,-0.01411372,0.02045284,0.00047781,0.01585778,
 -0.02433692,0.00135821,-0.00175723,0.00390814,-0.00165724,0.00015656,-
 0.00026563,0.04441636\\-0.00000929,0.00000514,0.00000460,0.00000354,0.
 00000137,-0.00000303,0.00000097,-0.00000184,-0.00000162,0.00000266,-0.
 00000143,0.00000025,0.00000212,-0.00000324,-0.00000020\\\@


 CHARLIE BROWN.."I CAN'T GET THAT STUPID KITE IN THE
 AIR... I CAN'T... I C A N N O T..."
 LUCY.."OH COME NOW CHARLIE BROWN...THAT'S NO WAY TO TALK...
 THE TROUBLE WITH YOU IS YOU DON'T BELIEVE IN YOURSELF... YOU
 DON'T BELIEVE IN YOUR OWN ABILITIES...  YOU'VE GOT TO SAY TO
 YOURSELF...'I BELIEVE I CAN FLY THIS KITE.'... GO AHEAD SAY
 IT...."
 CHARLIE BROWN.."I BELIEVE THAT I CAN FLY THIS STUPID
 KITE.....I BELIEVE THAT I CAN FLY THIS KITE........
 I  A C T U A L L Y  B E L I E V E  T H A T  I  C A N ******"
 LUCY.."I'LL BET YOU TEN-TO-ONE YOU'RE WRONG......."    SCHULZ
 Job cpu time:       0 days  0 hours  1 minutes  6.0 seconds.
 File lengths (MBytes):  RWF=      5 Int=      0 D2E=      0 Chk=      1 Scr=      1
 Normal termination of Gaussian 09 at Mon Apr 27 05:40:42 2015.
