 Entering Gaussian System, Link 0=g09
 Input=0_0freq-b971_75-65-0.gau
 Output=0_0freq-b971_75-65-0.log
 Initial command:
 /opt/g09/l1.exe "/scratch/pb556/g09_run/add_hco//Gau-20968.inp" -scrdir="/scratch/pb556/g09_run/add_hco//"
 Entering Link 1 = /opt/g09/l1.exe PID=     20977.
  
 Copyright (c) 1988,1990,1992,1993,1995,1998,2003,2009,2013,
            Gaussian, Inc.  All Rights Reserved.
  
 This is part of the Gaussian(R) 09 program.  It is based on
 the Gaussian(R) 03 system (copyright 2003, Gaussian, Inc.),
 the Gaussian(R) 98 system (copyright 1998, Gaussian, Inc.),
 the Gaussian(R) 94 system (copyright 1995, Gaussian, Inc.),
 the Gaussian 92(TM) system (copyright 1992, Gaussian, Inc.),
 the Gaussian 90(TM) system (copyright 1990, Gaussian, Inc.),
 the Gaussian 88(TM) system (copyright 1988, Gaussian, Inc.),
 the Gaussian 86(TM) system (copyright 1986, Carnegie Mellon
 University), and the Gaussian 82(TM) system (copyright 1983,
 Carnegie Mellon University). Gaussian is a federally registered
 trademark of Gaussian, Inc.
  
 This software contains proprietary and confidential information,
 including trade secrets, belonging to Gaussian, Inc.
  
 This software is provided under written license and may be
 used, copied, transmitted, or stored only in accord with that
 written license.
  
 The following legend is applicable only to US Government
 contracts under FAR:
  
                    RESTRICTED RIGHTS LEGEND
  
 Use, reproduction and disclosure by the US Government is
 subject to restrictions as set forth in subparagraphs (a)
 and (c) of the Commercial Computer Software - Restricted
 Rights clause in FAR 52.227-19.
  
 Gaussian, Inc.
 340 Quinnipiac St., Bldg. 40, Wallingford CT 06492
  
  
 ---------------------------------------------------------------
 Warning -- This program may not be used in any manner that
 competes with the business of Gaussian, Inc. or will provide
 assistance to any competitor of Gaussian, Inc.  The licensee
 of this program is prohibited from giving any competitor of
 Gaussian, Inc. access to this program.  By using this program,
 the user acknowledges that Gaussian, Inc. is engaged in the
 business of creating and licensing software in the field of
 computational chemistry and represents and warrants to the
 licensee that it is not a competitor of Gaussian, Inc. and that
 it will not use this program in any manner prohibited above.
 ---------------------------------------------------------------
  

 Cite this work as:
 Gaussian 09, Revision D.01,
 M. J. Frisch, G. W. Trucks, H. B. Schlegel, G. E. Scuseria, 
 M. A. Robb, J. R. Cheeseman, G. Scalmani, V. Barone, B. Mennucci, 
 G. A. Petersson, H. Nakatsuji, M. Caricato, X. Li, H. P. Hratchian, 
 A. F. Izmaylov, J. Bloino, G. Zheng, J. L. Sonnenberg, M. Hada, 
 M. Ehara, K. Toyota, R. Fukuda, J. Hasegawa, M. Ishida, T. Nakajima, 
 Y. Honda, O. Kitao, H. Nakai, T. Vreven, J. A. Montgomery, Jr., 
 J. E. Peralta, F. Ogliaro, M. Bearpark, J. J. Heyd, E. Brothers, 
 K. N. Kudin, V. N. Staroverov, T. Keith, R. Kobayashi, J. Normand, 
 K. Raghavachari, A. Rendell, J. C. Burant, S. S. Iyengar, J. Tomasi, 
 M. Cossi, N. Rega, J. M. Millam, M. Klene, J. E. Knox, J. B. Cross, 
 V. Bakken, C. Adamo, J. Jaramillo, R. Gomperts, R. E. Stratmann, 
 O. Yazyev, A. J. Austin, R. Cammi, C. Pomelli, J. W. Ochterski, 
 R. L. Martin, K. Morokuma, V. G. Zakrzewski, G. A. Voth, 
 P. Salvador, J. J. Dannenberg, S. Dapprich, A. D. Daniels, 
 O. Farkas, J. B. Foresman, J. V. Ortiz, J. Cioslowski, 
 and D. J. Fox, Gaussian, Inc., Wallingford CT, 2013.
 
 ******************************************
 Gaussian 09:  ES64L-G09RevD.01 24-Apr-2013
                27-Apr-2015 
 ******************************************
 %NProcShared=8
 Will use up to    8 processors via shared memory.
 %Mem=500MW
 ----------------------------------------------------------------------
 #p rB971/6-311+G(d,p) Opt=(Tight, CalcAll) Freq GFInput Population=Non
 e Integral(Grid=UltraFine) Guess=MIX NoSymmetry
 ----------------------------------------------------------------------
 1/7=10,10=4,14=-1,18=20,19=15,26=4,38=1/1,3;
 2/9=110,12=2,15=1,17=6,18=5,40=1/2;
 3/5=4,6=6,7=111,11=2,16=1,24=10,25=1,30=1,71=2,74=-20,75=-5,116=1,140=1/1,2,3;
 4/13=-1/1;
 5/5=2,38=5/2;
 8/6=4,10=90,11=11/1;
 11/6=1,8=1,9=11,15=111,16=1,31=1/1,2,10;
 10/6=1,31=1/2;
 7/10=1,25=1,30=1/1,2,3,16;
 1/7=10,10=4,14=-1,18=20,19=15,26=4/3(3);
 2/9=110,15=1/2;
 7/8=1,9=1,25=1,30=1,44=-1/16;
 99//99;
 2/9=110,15=1/2;
 3/5=4,6=6,7=111,11=2,16=1,25=1,30=1,71=2,74=-20,75=-5,116=1,140=1/1,2,3;
 4/5=5,16=3,69=1/1;
 5/5=2,38=5/2;
 8/6=4,10=90,11=11/1;
 11/6=1,8=1,9=11,15=111,16=1,31=1/1,2,10;
 10/6=1,31=1/2;
 7/10=1,25=1,30=1/1,2,3,16;
 1/7=10,10=4,14=-1,18=20,19=15,26=4/3(-8);
 2/9=110,15=1/2;
 7/8=1,9=1,25=1,30=1,44=-1/16;
 99//99;
 Leave Link    1 at Mon Apr 27 05:58:29 2015, MaxMem=   524288000 cpu:         0.6
 (Enter /opt/g09/l101.exe)
 ---------------------
 freq-b971_75-65-0.gau
 ---------------------
 Symbolic Z-matrix:
 Charge =  0 Multiplicity = 1
 C                     0.77992   1.15524   2.67278 
 C                     1.73604   1.7606    1.63099 
 C                     2.81181   2.61475   2.30925 
 C                     2.37474   0.65742   0.7702 
 O                     1.01376   2.67513   0.78619 
 H                    -0.00946   0.57079   2.18336 
 H                     1.31285   0.48701   3.35832 
 H                     0.30592   1.94981   3.25746 
 H                     3.42375   2.0052    2.98194 
 H                     3.46377   3.0686    1.55654 
 H                     2.34636   3.41758   2.88927 
 H                     3.02722   1.10045   0.01133 
 H                     2.9681   -0.0298    1.3835 
 H                     1.60369   0.06733   0.25878 
 H                     0.32154   2.18298   0.3336 
 
 NAtoms=     15 NQM=       15 NQMF=       0 NMMI=      0 NMMIF=      0
                NMic=       0 NMicF=      0.
                    Isotopes and Nuclear Properties:
 (Nuclear quadrupole moments (NQMom) in fm**2, nuclear magnetic moments (NMagM)
  in nuclear magnetons)

  Atom         1           2           3           4           5           6           7           8           9          10
 IAtWgt=          12          12          12          12          16           1           1           1           1           1
 AtmWgt=  12.0000000  12.0000000  12.0000000  12.0000000  15.9949146   1.0078250   1.0078250   1.0078250   1.0078250   1.0078250
 NucSpn=           0           0           0           0           0           1           1           1           1           1
 AtZEff=   0.0000000   0.0000000   0.0000000   0.0000000   0.0000000   0.0000000   0.0000000   0.0000000   0.0000000   0.0000000
 NQMom=    0.0000000   0.0000000   0.0000000   0.0000000   0.0000000   0.0000000   0.0000000   0.0000000   0.0000000   0.0000000
 NMagM=    0.0000000   0.0000000   0.0000000   0.0000000   0.0000000   2.7928460   2.7928460   2.7928460   2.7928460   2.7928460
 AtZNuc=   6.0000000   6.0000000   6.0000000   6.0000000   8.0000000   1.0000000   1.0000000   1.0000000   1.0000000   1.0000000

  Atom        11          12          13          14          15
 IAtWgt=           1           1           1           1           1
 AtmWgt=   1.0078250   1.0078250   1.0078250   1.0078250   1.0078250
 NucSpn=           1           1           1           1           1
 AtZEff=   0.0000000   0.0000000   0.0000000   0.0000000   0.0000000
 NQMom=    0.0000000   0.0000000   0.0000000   0.0000000   0.0000000
 NMagM=    2.7928460   2.7928460   2.7928460   2.7928460   2.7928460
 AtZNuc=   1.0000000   1.0000000   1.0000000   1.0000000   1.0000000
 Leave Link  101 at Mon Apr 27 05:58:30 2015, MaxMem=   524288000 cpu:         1.8
 (Enter /opt/g09/l103.exe)

 GradGradGradGradGradGradGradGradGradGradGradGradGradGradGradGradGradGrad
 Berny optimization.
 Initialization pass.
                           ----------------------------
                           !    Initial Parameters    !
                           ! (Angstroms and Degrees)  !
 --------------------------                            --------------------------
 ! Name  Definition              Value          Derivative Info.                !
 --------------------------------------------------------------------------------
 ! R1    R(1,2)                  1.5382         calculate D2E/DX2 analytically  !
 ! R2    R(1,6)                  1.0974         calculate D2E/DX2 analytically  !
 ! R3    R(1,7)                  1.0957         calculate D2E/DX2 analytically  !
 ! R4    R(1,8)                  1.0945         calculate D2E/DX2 analytically  !
 ! R5    R(2,3)                  1.532          calculate D2E/DX2 analytically  !
 ! R6    R(2,4)                  1.5381         calculate D2E/DX2 analytically  !
 ! R7    R(2,5)                  1.4394         calculate D2E/DX2 analytically  !
 ! R8    R(3,9)                  1.0948         calculate D2E/DX2 analytically  !
 ! R9    R(3,10)                 1.0944         calculate D2E/DX2 analytically  !
 ! R10   R(3,11)                 1.0944         calculate D2E/DX2 analytically  !
 ! R11   R(4,12)                 1.0945         calculate D2E/DX2 analytically  !
 ! R12   R(4,13)                 1.0957         calculate D2E/DX2 analytically  !
 ! R13   R(4,14)                 1.0974         calculate D2E/DX2 analytically  !
 ! R14   R(5,15)                 0.9624         calculate D2E/DX2 analytically  !
 ! A1    A(2,1,6)              110.7735         calculate D2E/DX2 analytically  !
 ! A2    A(2,1,7)              111.1892         calculate D2E/DX2 analytically  !
 ! A3    A(2,1,8)              110.2004         calculate D2E/DX2 analytically  !
 ! A4    A(6,1,7)              107.7047         calculate D2E/DX2 analytically  !
 ! A5    A(6,1,8)              108.2626         calculate D2E/DX2 analytically  !
 ! A6    A(7,1,8)              108.6126         calculate D2E/DX2 analytically  !
 ! A7    A(1,2,3)              110.8586         calculate D2E/DX2 analytically  !
 ! A8    A(1,2,4)              110.786          calculate D2E/DX2 analytically  !
 ! A9    A(1,2,5)              109.6126         calculate D2E/DX2 analytically  !
 ! A10   A(3,2,4)              110.8588         calculate D2E/DX2 analytically  !
 ! A11   A(3,2,5)              104.9503         calculate D2E/DX2 analytically  !
 ! A12   A(4,2,5)              109.6095         calculate D2E/DX2 analytically  !
 ! A13   A(2,3,9)              110.7398         calculate D2E/DX2 analytically  !
 ! A14   A(2,3,10)             110.1851         calculate D2E/DX2 analytically  !
 ! A15   A(2,3,11)             110.183          calculate D2E/DX2 analytically  !
 ! A16   A(9,3,10)             108.6954         calculate D2E/DX2 analytically  !
 ! A17   A(9,3,11)             108.6951         calculate D2E/DX2 analytically  !
 ! A18   A(10,3,11)            108.2818         calculate D2E/DX2 analytically  !
 ! A19   A(2,4,12)             110.1972         calculate D2E/DX2 analytically  !
 ! A20   A(2,4,13)             111.1905         calculate D2E/DX2 analytically  !
 ! A21   A(2,4,14)             110.7755         calculate D2E/DX2 analytically  !
 ! A22   A(12,4,13)            108.6114         calculate D2E/DX2 analytically  !
 ! A23   A(12,4,14)            108.2644         calculate D2E/DX2 analytically  !
 ! A24   A(13,4,14)            107.704          calculate D2E/DX2 analytically  !
 ! A25   A(2,5,15)             108.1817         calculate D2E/DX2 analytically  !
 ! D1    D(6,1,2,3)            178.1361         calculate D2E/DX2 analytically  !
 ! D2    D(6,1,2,4)            -58.3458         calculate D2E/DX2 analytically  !
 ! D3    D(6,1,2,5)             62.7413         calculate D2E/DX2 analytically  !
 ! D4    D(7,1,2,3)            -62.1353         calculate D2E/DX2 analytically  !
 ! D5    D(7,1,2,4)             61.3829         calculate D2E/DX2 analytically  !
 ! D6    D(7,1,2,5)           -177.5301         calculate D2E/DX2 analytically  !
 ! D7    D(8,1,2,3)             58.3542         calculate D2E/DX2 analytically  !
 ! D8    D(8,1,2,4)           -178.1276         calculate D2E/DX2 analytically  !
 ! D9    D(8,1,2,5)            -57.0406         calculate D2E/DX2 analytically  !
 ! D10   D(1,2,3,9)             61.728          calculate D2E/DX2 analytically  !
 ! D11   D(1,2,3,10)          -177.9816         calculate D2E/DX2 analytically  !
 ! D12   D(1,2,3,11)           -58.5607         calculate D2E/DX2 analytically  !
 ! D13   D(4,2,3,9)            -61.7483         calculate D2E/DX2 analytically  !
 ! D14   D(4,2,3,10)            58.5421         calculate D2E/DX2 analytically  !
 ! D15   D(4,2,3,11)           177.963          calculate D2E/DX2 analytically  !
 ! D16   D(5,2,3,9)            179.9917         calculate D2E/DX2 analytically  !
 ! D17   D(5,2,3,10)           -59.7179         calculate D2E/DX2 analytically  !
 ! D18   D(5,2,3,11)            59.703          calculate D2E/DX2 analytically  !
 ! D19   D(1,2,4,12)           178.1387         calculate D2E/DX2 analytically  !
 ! D20   D(1,2,4,13)           -61.3746         calculate D2E/DX2 analytically  !
 ! D21   D(1,2,4,14)            58.3553         calculate D2E/DX2 analytically  !
 ! D22   D(3,2,4,12)           -58.3433         calculate D2E/DX2 analytically  !
 ! D23   D(3,2,4,13)            62.1434         calculate D2E/DX2 analytically  !
 ! D24   D(3,2,4,14)          -178.1266         calculate D2E/DX2 analytically  !
 ! D25   D(5,2,4,12)            57.0498         calculate D2E/DX2 analytically  !
 ! D26   D(5,2,4,13)           177.5365         calculate D2E/DX2 analytically  !
 ! D27   D(5,2,4,14)           -62.7336         calculate D2E/DX2 analytically  !
 ! D28   D(1,2,5,15)           -60.9493         calculate D2E/DX2 analytically  !
 ! D29   D(3,2,5,15)           179.9475         calculate D2E/DX2 analytically  !
 ! D30   D(4,2,5,15)            60.8457         calculate D2E/DX2 analytically  !
 --------------------------------------------------------------------------------
 Trust Radius=3.00D-01 FncErr=1.00D-07 GrdErr=1.00D-06
 Number of steps in this run=     79 maximum allowed number of steps=    100.
 GradGradGradGradGradGradGradGradGradGradGradGradGradGradGradGradGradGrad

 Leave Link  103 at Mon Apr 27 05:58:30 2015, MaxMem=   524288000 cpu:         0.1
 (Enter /opt/g09/l202.exe)
                          Input orientation:                          
 ---------------------------------------------------------------------
 Center     Atomic      Atomic             Coordinates (Angstroms)
 Number     Number       Type             X           Y           Z
 ---------------------------------------------------------------------
      1          6           0        0.779920    1.155240    2.672780
      2          6           0        1.736040    1.760600    1.630990
      3          6           0        2.811810    2.614750    2.309250
      4          6           0        2.374740    0.657420    0.770200
      5          8           0        1.013760    2.675130    0.786190
      6          1           0       -0.009460    0.570790    2.183360
      7          1           0        1.312850    0.487010    3.358320
      8          1           0        0.305920    1.949810    3.257460
      9          1           0        3.423750    2.005200    2.981940
     10          1           0        3.463770    3.068600    1.556540
     11          1           0        2.346360    3.417580    2.889270
     12          1           0        3.027220    1.100450    0.011330
     13          1           0        2.968100   -0.029800    1.383500
     14          1           0        1.603690    0.067330    0.258780
     15          1           0        0.321540    2.182980    0.333600
 ---------------------------------------------------------------------
                    Distance matrix (angstroms):
                    1          2          3          4          5
     1  C    0.000000
     2  C    1.538165   0.000000
     3  C    2.528023   1.531956   0.000000
     4  C    2.532012   1.538149   2.528012   0.000000
     5  O    2.433920   1.439354   2.357189   2.433860   0.000000
     6  H    1.097376   2.183468   3.486142   2.772893   2.725309
     7  H    1.095678   2.187416   2.806191   2.802680   3.390159
     8  H    1.094472   2.174040   2.760567   3.483784   2.671011
     9  H    2.794253   2.175606   1.094776   2.794410   3.328389
    10  H    3.479941   2.168285   1.094351   2.760092   2.598231
    11  H    2.760215   2.168258   1.094350   3.479906   2.598076
    12  H    3.483773   2.173992   2.760424   1.094481   2.670964
    13  H    2.802623   2.187408   2.806258   1.095666   3.390114
    14  H    2.773002   2.183493   3.486163   1.097395   2.725216
    15  H    2.595790   1.965308   3.207969   2.594915   0.962402
                    6          7          8          9         10
     6  H    0.000000
     7  H    1.770891   0.000000
     8  H    1.776190   1.778726   0.000000
     9  H    3.805548   2.627254   3.130470   0.000000
    10  H    4.323804   3.812804   3.757238   1.778816   0.000000
    11  H    3.761969   3.142673   2.540336   1.778813   1.773855
    12  H    3.770899   3.810212   4.320214   3.130548   2.540052
    13  H    3.141074   2.628090   3.810221   2.627518   3.142565
    14  H    2.561198   3.141316   3.770944   3.805727   3.761875
    15  H    2.475950   3.606652   2.933184   4.082771   3.486189
                   11         12         13         14         15
    11  H    0.000000
    12  H    3.757020   0.000000
    13  H    3.812917   1.778710   0.000000
    14  H    4.323796   1.776234   1.770888   0.000000
    15  H    3.486486   2.931967   3.605962   2.474971   0.000000
 Symmetry turned off by external request.
 Stoichiometry    C4H10O
 Framework group  C1[X(C4H10O)]
 Deg. of freedom    39
 Full point group                 C1      NOp   1
 Rotational constants (GHZ):      4.6759247      4.6497582      4.4686351
 Leave Link  202 at Mon Apr 27 05:58:30 2015, MaxMem=   524288000 cpu:         0.0
 (Enter /opt/g09/l301.exe)
 Standard basis: 6-311+G(d,p) (5D, 7F)
 Ernie: Thresh=  0.10000D-02 Tol=  0.10000D-05 Strict=F.
 AO basis set in the form of general basis input (Overlap normalization):
      1 0
 S   6 1.00       0.000000000000
      0.4563240000D+04  0.1966650249D-02
      0.6820240000D+03  0.1523060193D-01
      0.1549730000D+03  0.7612690966D-01
      0.4445530000D+02  0.2608010331D+00
      0.1302900000D+02  0.6164620782D+00
      0.1827730000D+01  0.2210060280D+00
 SP   3 1.00       0.000000000000
      0.2096420000D+02  0.1146600807D+00  0.4024869267D-01
      0.4803310000D+01  0.9199996477D+00  0.2375939567D+00
      0.1459330000D+01 -0.3030682134D-02  0.8158538515D+00
 SP   1 1.00       0.000000000000
      0.4834560000D+00  0.1000000000D+01  0.1000000000D+01
 SP   1 1.00       0.000000000000
      0.1455850000D+00  0.1000000000D+01  0.1000000000D+01
 SP   1 1.00       0.000000000000
      0.4380000000D-01  0.1000000000D+01  0.1000000000D+01
 D   1 1.00       0.000000000000
      0.6260000000D+00  0.1000000000D+01
 ****
      2 0
 S   6 1.00       0.000000000000
      0.4563240000D+04  0.1966650249D-02
      0.6820240000D+03  0.1523060193D-01
      0.1549730000D+03  0.7612690966D-01
      0.4445530000D+02  0.2608010331D+00
      0.1302900000D+02  0.6164620782D+00
      0.1827730000D+01  0.2210060280D+00
 SP   3 1.00       0.000000000000
      0.2096420000D+02  0.1146600807D+00  0.4024869267D-01
      0.4803310000D+01  0.9199996477D+00  0.2375939567D+00
      0.1459330000D+01 -0.3030682134D-02  0.8158538515D+00
 SP   1 1.00       0.000000000000
      0.4834560000D+00  0.1000000000D+01  0.1000000000D+01
 SP   1 1.00       0.000000000000
      0.1455850000D+00  0.1000000000D+01  0.1000000000D+01
 SP   1 1.00       0.000000000000
      0.4380000000D-01  0.1000000000D+01  0.1000000000D+01
 D   1 1.00       0.000000000000
      0.6260000000D+00  0.1000000000D+01
 ****
      3 0
 S   6 1.00       0.000000000000
      0.4563240000D+04  0.1966650249D-02
      0.6820240000D+03  0.1523060193D-01
      0.1549730000D+03  0.7612690966D-01
      0.4445530000D+02  0.2608010331D+00
      0.1302900000D+02  0.6164620782D+00
      0.1827730000D+01  0.2210060280D+00
 SP   3 1.00       0.000000000000
      0.2096420000D+02  0.1146600807D+00  0.4024869267D-01
      0.4803310000D+01  0.9199996477D+00  0.2375939567D+00
      0.1459330000D+01 -0.3030682134D-02  0.8158538515D+00
 SP   1 1.00       0.000000000000
      0.4834560000D+00  0.1000000000D+01  0.1000000000D+01
 SP   1 1.00       0.000000000000
      0.1455850000D+00  0.1000000000D+01  0.1000000000D+01
 SP   1 1.00       0.000000000000
      0.4380000000D-01  0.1000000000D+01  0.1000000000D+01
 D   1 1.00       0.000000000000
      0.6260000000D+00  0.1000000000D+01
 ****
      4 0
 S   6 1.00       0.000000000000
      0.4563240000D+04  0.1966650249D-02
      0.6820240000D+03  0.1523060193D-01
      0.1549730000D+03  0.7612690966D-01
      0.4445530000D+02  0.2608010331D+00
      0.1302900000D+02  0.6164620782D+00
      0.1827730000D+01  0.2210060280D+00
 SP   3 1.00       0.000000000000
      0.2096420000D+02  0.1146600807D+00  0.4024869267D-01
      0.4803310000D+01  0.9199996477D+00  0.2375939567D+00
      0.1459330000D+01 -0.3030682134D-02  0.8158538515D+00
 SP   1 1.00       0.000000000000
      0.4834560000D+00  0.1000000000D+01  0.1000000000D+01
 SP   1 1.00       0.000000000000
      0.1455850000D+00  0.1000000000D+01  0.1000000000D+01
 SP   1 1.00       0.000000000000
      0.4380000000D-01  0.1000000000D+01  0.1000000000D+01
 D   1 1.00       0.000000000000
      0.6260000000D+00  0.1000000000D+01
 ****
      5 0
 S   6 1.00       0.000000000000
      0.8588500000D+04  0.1895150083D-02
      0.1297230000D+04  0.1438590063D-01
      0.2992960000D+03  0.7073200310D-01
      0.8737710000D+02  0.2400010105D+00
      0.2567890000D+02  0.5947970261D+00
      0.3740040000D+01  0.2808020123D+00
 SP   3 1.00       0.000000000000
      0.4211750000D+02  0.1138890124D+00  0.3651139738D-01
      0.9628370000D+01  0.9208111006D+00  0.2371529830D+00
      0.2853320000D+01 -0.3274470358D-02  0.8197019412D+00
 SP   1 1.00       0.000000000000
      0.9056610000D+00  0.1000000000D+01  0.1000000000D+01
 SP   1 1.00       0.000000000000
      0.2556110000D+00  0.1000000000D+01  0.1000000000D+01
 SP   1 1.00       0.000000000000
      0.8450000000D-01  0.1000000000D+01  0.1000000000D+01
 D   1 1.00       0.000000000000
      0.1292000000D+01  0.1000000000D+01
 ****
      6 0
 S   3 1.00       0.000000000000
      0.3386500000D+02  0.2549381454D-01
      0.5094790000D+01  0.1903731086D+00
      0.1158790000D+01  0.8521614860D+00
 S   1 1.00       0.000000000000
      0.3258400000D+00  0.1000000000D+01
 S   1 1.00       0.000000000000
      0.1027410000D+00  0.1000000000D+01
 P   1 1.00       0.000000000000
      0.7500000000D+00  0.1000000000D+01
 ****
      7 0
 S   3 1.00       0.000000000000
      0.3386500000D+02  0.2549381454D-01
      0.5094790000D+01  0.1903731086D+00
      0.1158790000D+01  0.8521614860D+00
 S   1 1.00       0.000000000000
      0.3258400000D+00  0.1000000000D+01
 S   1 1.00       0.000000000000
      0.1027410000D+00  0.1000000000D+01
 P   1 1.00       0.000000000000
      0.7500000000D+00  0.1000000000D+01
 ****
      8 0
 S   3 1.00       0.000000000000
      0.3386500000D+02  0.2549381454D-01
      0.5094790000D+01  0.1903731086D+00
      0.1158790000D+01  0.8521614860D+00
 S   1 1.00       0.000000000000
      0.3258400000D+00  0.1000000000D+01
 S   1 1.00       0.000000000000
      0.1027410000D+00  0.1000000000D+01
 P   1 1.00       0.000000000000
      0.7500000000D+00  0.1000000000D+01
 ****
      9 0
 S   3 1.00       0.000000000000
      0.3386500000D+02  0.2549381454D-01
      0.5094790000D+01  0.1903731086D+00
      0.1158790000D+01  0.8521614860D+00
 S   1 1.00       0.000000000000
      0.3258400000D+00  0.1000000000D+01
 S   1 1.00       0.000000000000
      0.1027410000D+00  0.1000000000D+01
 P   1 1.00       0.000000000000
      0.7500000000D+00  0.1000000000D+01
 ****
     10 0
 S   3 1.00       0.000000000000
      0.3386500000D+02  0.2549381454D-01
      0.5094790000D+01  0.1903731086D+00
      0.1158790000D+01  0.8521614860D+00
 S   1 1.00       0.000000000000
      0.3258400000D+00  0.1000000000D+01
 S   1 1.00       0.000000000000
      0.1027410000D+00  0.1000000000D+01
 P   1 1.00       0.000000000000
      0.7500000000D+00  0.1000000000D+01
 ****
     11 0
 S   3 1.00       0.000000000000
      0.3386500000D+02  0.2549381454D-01
      0.5094790000D+01  0.1903731086D+00
      0.1158790000D+01  0.8521614860D+00
 S   1 1.00       0.000000000000
      0.3258400000D+00  0.1000000000D+01
 S   1 1.00       0.000000000000
      0.1027410000D+00  0.1000000000D+01
 P   1 1.00       0.000000000000
      0.7500000000D+00  0.1000000000D+01
 ****
     12 0
 S   3 1.00       0.000000000000
      0.3386500000D+02  0.2549381454D-01
      0.5094790000D+01  0.1903731086D+00
      0.1158790000D+01  0.8521614860D+00
 S   1 1.00       0.000000000000
      0.3258400000D+00  0.1000000000D+01
 S   1 1.00       0.000000000000
      0.1027410000D+00  0.1000000000D+01
 P   1 1.00       0.000000000000
      0.7500000000D+00  0.1000000000D+01
 ****
     13 0
 S   3 1.00       0.000000000000
      0.3386500000D+02  0.2549381454D-01
      0.5094790000D+01  0.1903731086D+00
      0.1158790000D+01  0.8521614860D+00
 S   1 1.00       0.000000000000
      0.3258400000D+00  0.1000000000D+01
 S   1 1.00       0.000000000000
      0.1027410000D+00  0.1000000000D+01
 P   1 1.00       0.000000000000
      0.7500000000D+00  0.1000000000D+01
 ****
     14 0
 S   3 1.00       0.000000000000
      0.3386500000D+02  0.2549381454D-01
      0.5094790000D+01  0.1903731086D+00
      0.1158790000D+01  0.8521614860D+00
 S   1 1.00       0.000000000000
      0.3258400000D+00  0.1000000000D+01
 S   1 1.00       0.000000000000
      0.1027410000D+00  0.1000000000D+01
 P   1 1.00       0.000000000000
      0.7500000000D+00  0.1000000000D+01
 ****
     15 0
 S   3 1.00       0.000000000000
      0.3386500000D+02  0.2549381454D-01
      0.5094790000D+01  0.1903731086D+00
      0.1158790000D+01  0.8521614860D+00
 S   1 1.00       0.000000000000
      0.3258400000D+00  0.1000000000D+01
 S   1 1.00       0.000000000000
      0.1027410000D+00  0.1000000000D+01
 P   1 1.00       0.000000000000
      0.7500000000D+00  0.1000000000D+01
 ****

   170 basis functions,   260 primitive gaussians,   175 cartesian basis functions
    21 alpha electrons       21 beta electrons
       nuclear repulsion energy       198.7009942960 Hartrees.
 IExCor= 1614 DFT=T Ex+Corr=B971 ExCW=0 ScaHFX=  0.210000
 ScaDFX=  1.000000  1.000000  1.000000  1.000000 ScalE2=  1.000000  1.000000
 IRadAn=      5 IRanWt=     -1 IRanGd=            0 ICorTp=0 IEmpDi=  4
 NAtoms=   15 NActive=   15 NUniq=   15 SFac= 1.00D+00 NAtFMM=   60 NAOKFM=F Big=F
 Integral buffers will be    131072 words long.
 Raffenetti 2 integral format.
 Two-electron integral symmetry is turned off.
 Leave Link  301 at Mon Apr 27 05:58:30 2015, MaxMem=   524288000 cpu:         0.4
 (Enter /opt/g09/l302.exe)
 NPDir=0 NMtPBC=     1 NCelOv=     1 NCel=       1 NClECP=     1 NCelD=      1
         NCelK=      1 NCelE2=     1 NClLst=     1 CellRange=     0.0.
 One-electron integrals computed using PRISM.
 NBasis=   170 RedAO= T EigKep=  4.16D-05  NBF=   170
 NBsUse=   170 1.00D-06 EigRej= -1.00D+00 NBFU=   170
 Precomputing XC quadrature grid using
 IXCGrd= 4 IRadAn=           5 IRanWt=          -1 IRanGd=           0 AccXCQ= 0.00D+00.
 Generated NRdTot=       0 NPtTot=           0 NUsed=           0 NTot=          32
 NSgBfM=   175   175   175   175   175 MxSgAt=    15 MxSgA2=    15.
 Leave Link  302 at Mon Apr 27 05:58:30 2015, MaxMem=   524288000 cpu:         2.0
 (Enter /opt/g09/l303.exe)
 DipDrv:  MaxL=1.
 Leave Link  303 at Mon Apr 27 05:58:30 2015, MaxMem=   524288000 cpu:         0.3
 (Enter /opt/g09/l401.exe)
 ExpMin= 4.38D-02 ExpMax= 8.59D+03 ExpMxC= 1.30D+03 IAcc=3 IRadAn=         5 AccDes= 0.00D+00
 Harris functional with IExCor= 1614 and IRadAn=       5 diagonalized for initial guess.
 HarFok:  IExCor= 1614 AccDes= 0.00D+00 IRadAn=         5 IDoV= 1 UseB2=F ITyADJ=14
 ICtDFT=  3500011 ScaDFX=  1.000000  1.000000  1.000000  1.000000
 FoFCou: FMM=F IPFlag=           0 FMFlag=      100000 FMFlg1=           0
         NFxFlg=           0 DoJE=T BraDBF=F KetDBF=T FulRan=T
         wScrn=  0.000000 ICntrl=     500 IOpCl=  0 I1Cent=   200000004 NGrid=           0
         NMat0=    1 NMatS0=      1 NMatT0=    0 NMatD0=    1 NMtDS0=    0 NMtDT0=    0
 Symmetry not used in FoFCou.
 Harris En= -226.996014621937    
 JPrj=0 DoOrth=F DoCkMO=T.
 Mixing orbitals, IMix= 1 IMixAn=  0 NRI=1 NE=   21 Coef=  7.07106781D-01  7.07106781D-01
 Leave Link  401 at Mon Apr 27 05:58:32 2015, MaxMem=   524288000 cpu:        11.2
 (Enter /opt/g09/l502.exe)
 Closed shell SCF:
 Using DIIS extrapolation, IDIIS=  1040.
 Two-electron integral symmetry not used.
 Keep R1 ints in memory in canonical form, NReq=108479085.
 IVT=      112905 IEndB=      112905 NGot=   524288000 MDV=   418534716
 LenX=   418534716 LenY=   418503650
 Requested convergence on RMS density matrix=1.00D-08 within 128 cycles.
 Requested convergence on MAX density matrix=1.00D-06.
 Requested convergence on             energy=1.00D-06.
 No special actions if energy rises.
 FoFCou: FMM=F IPFlag=           0 FMFlag=           0 FMFlg1=           0
         NFxFlg=           0 DoJE=F BraDBF=F KetDBF=F FulRan=T
         wScrn=  0.000000 ICntrl=     600 IOpCl=  0 I1Cent=           0 NGrid=           0
         NMat0=    1 NMatS0=  14535 NMatT0=    0 NMatD0=    1 NMtDS0=    0 NMtDT0=    0
 Symmetry not used in FoFCou.

 Cycle   1  Pass 1  IDiag  1:
 E= -233.157375192265    
 DIIS: error= 7.17D-02 at cycle   1 NSaved=   1.
 NSaved= 1 IEnMin= 1 EnMin= -233.157375192265     IErMin= 1 ErrMin= 7.17D-02
 ErrMax= 7.17D-02  0.00D+00 EMaxC= 1.00D-01 BMatC= 6.81D-01 BMatP= 6.81D-01
 IDIUse=3 WtCom= 2.83D-01 WtEn= 7.17D-01
 Coeff-Com:  0.100D+01
 Coeff-En:   0.100D+01
 Coeff:      0.100D+01
 Gap=     0.033 Goal=   None    Shift=    0.000
 GapD=    0.033 DampG=0.250 DampE=0.500 DampFc=0.2500 IDamp=-1.
 Damping current iteration by 2.50D-01
 RMSDP=7.30D-02 MaxDP=4.68D+00              OVMax= 4.83D-01

 Cycle   2  Pass 1  IDiag  1:
 E= -233.330517290351     Delta-E=       -0.173142098086 Rises=F Damp=T
 DIIS: error= 5.20D-02 at cycle   2 NSaved=   2.
 NSaved= 2 IEnMin= 2 EnMin= -233.330517290351     IErMin= 2 ErrMin= 5.20D-02
 ErrMax= 5.20D-02  0.00D+00 EMaxC= 1.00D-01 BMatC= 2.46D-01 BMatP= 6.81D-01
 IDIUse=3 WtCom= 4.80D-01 WtEn= 5.20D-01
 Coeff-Com: -0.803D+00 0.180D+01
 Coeff-En:   0.000D+00 0.100D+01
 Coeff:     -0.386D+00 0.139D+01
 Gap=     0.350 Goal=   None    Shift=    0.000
 RMSDP=5.47D-02 MaxDP=3.57D+00 DE=-1.73D-01 OVMax= 1.81D-01

 Cycle   3  Pass 1  IDiag  1:
 E= -233.645443803284     Delta-E=       -0.314926512933 Rises=F Damp=F
 DIIS: error= 1.77D-02 at cycle   3 NSaved=   3.
 NSaved= 3 IEnMin= 3 EnMin= -233.645443803284     IErMin= 3 ErrMin= 1.77D-02
 ErrMax= 1.77D-02  0.00D+00 EMaxC= 1.00D-01 BMatC= 2.29D-02 BMatP= 2.46D-01
 IDIUse=3 WtCom= 8.23D-01 WtEn= 1.77D-01
 Coeff-Com:  0.380D+00-0.465D+00 0.109D+01
 Coeff-En:   0.000D+00 0.000D+00 0.100D+01
 Coeff:      0.313D+00-0.383D+00 0.107D+01
 Gap=     0.282 Goal=   None    Shift=    0.000
 RMSDP=2.08D-03 MaxDP=4.39D-02 DE=-3.15D-01 OVMax= 6.98D-02

 Cycle   4  Pass 1  IDiag  1:
 E= -233.661314383205     Delta-E=       -0.015870579921 Rises=F Damp=F
 DIIS: error= 9.87D-03 at cycle   4 NSaved=   4.
 NSaved= 4 IEnMin= 4 EnMin= -233.661314383205     IErMin= 4 ErrMin= 9.87D-03
 ErrMax= 9.87D-03  0.00D+00 EMaxC= 1.00D-01 BMatC= 9.06D-03 BMatP= 2.29D-02
 IDIUse=3 WtCom= 9.01D-01 WtEn= 9.87D-02
 Coeff-Com: -0.556D-01 0.898D-01 0.313D+00 0.653D+00
 Coeff-En:   0.000D+00 0.000D+00 0.234D+00 0.766D+00
 Coeff:     -0.501D-01 0.810D-01 0.305D+00 0.664D+00
 Gap=     0.282 Goal=   None    Shift=    0.000
 RMSDP=5.41D-04 MaxDP=1.41D-02 DE=-1.59D-02 OVMax= 2.47D-02

 Cycle   5  Pass 1  IDiag  1:
 E= -233.668327066206     Delta-E=       -0.007012683001 Rises=F Damp=F
 DIIS: error= 9.20D-04 at cycle   5 NSaved=   5.
 NSaved= 5 IEnMin= 5 EnMin= -233.668327066206     IErMin= 5 ErrMin= 9.20D-04
 ErrMax= 9.20D-04  0.00D+00 EMaxC= 1.00D-01 BMatC= 1.30D-04 BMatP= 9.06D-03
 IDIUse=3 WtCom= 9.91D-01 WtEn= 9.20D-03
 Coeff-Com: -0.157D-01 0.243D-01 0.701D-01 0.210D+00 0.712D+00
 Coeff-En:   0.000D+00 0.000D+00 0.000D+00 0.000D+00 0.100D+01
 Coeff:     -0.156D-01 0.241D-01 0.694D-01 0.208D+00 0.714D+00
 Gap=     0.279 Goal=   None    Shift=    0.000
 RMSDP=7.80D-05 MaxDP=1.63D-03 DE=-7.01D-03 OVMax= 3.00D-03

 Cycle   6  Pass 1  IDiag  1:
 E= -233.668410323876     Delta-E=       -0.000083257670 Rises=F Damp=F
 DIIS: error= 4.48D-04 at cycle   6 NSaved=   6.
 NSaved= 6 IEnMin= 6 EnMin= -233.668410323876     IErMin= 6 ErrMin= 4.48D-04
 ErrMax= 4.48D-04  0.00D+00 EMaxC= 1.00D-01 BMatC= 2.31D-05 BMatP= 1.30D-04
 IDIUse=3 WtCom= 9.96D-01 WtEn= 4.48D-03
 Coeff-Com: -0.248D-03 0.309D-03-0.313D-02 0.234D-01 0.348D+00 0.631D+00
 Coeff-En:   0.000D+00 0.000D+00 0.000D+00 0.000D+00 0.941D-01 0.906D+00
 Coeff:     -0.247D-03 0.308D-03-0.312D-02 0.233D-01 0.347D+00 0.632D+00
 Gap=     0.280 Goal=   None    Shift=    0.000
 RMSDP=2.69D-05 MaxDP=7.62D-04 DE=-8.33D-05 OVMax= 1.22D-03

 Cycle   7  Pass 1  IDiag  1:
 E= -233.668431843034     Delta-E=       -0.000021519158 Rises=F Damp=F
 DIIS: error= 8.56D-05 at cycle   7 NSaved=   7.
 NSaved= 7 IEnMin= 7 EnMin= -233.668431843034     IErMin= 7 ErrMin= 8.56D-05
 ErrMax= 8.56D-05  0.00D+00 EMaxC= 1.00D-01 BMatC= 4.82D-07 BMatP= 2.31D-05
 IDIUse=1 WtCom= 1.00D+00 WtEn= 0.00D+00
 Coeff-Com:  0.273D-03-0.569D-03-0.402D-02 0.377D-03 0.654D-01 0.181D+00
 Coeff-Com:  0.757D+00
 Coeff:      0.273D-03-0.569D-03-0.402D-02 0.377D-03 0.654D-01 0.181D+00
 Coeff:      0.757D+00
 Gap=     0.280 Goal=   None    Shift=    0.000
 RMSDP=8.92D-06 MaxDP=2.20D-04 DE=-2.15D-05 OVMax= 2.68D-04

 Cycle   8  Pass 1  IDiag  1:
 E= -233.668432222364     Delta-E=       -0.000000379330 Rises=F Damp=F
 DIIS: error= 3.26D-05 at cycle   8 NSaved=   8.
 NSaved= 8 IEnMin= 8 EnMin= -233.668432222364     IErMin= 8 ErrMin= 3.26D-05
 ErrMax= 3.26D-05  0.00D+00 EMaxC= 1.00D-01 BMatC= 1.17D-07 BMatP= 4.82D-07
 IDIUse=1 WtCom= 1.00D+00 WtEn= 0.00D+00
 Coeff-Com: -0.650D-04 0.155D-04-0.170D-02-0.136D-02-0.393D-03 0.313D-01
 Coeff-Com:  0.381D+00 0.591D+00
 Coeff:     -0.650D-04 0.155D-04-0.170D-02-0.136D-02-0.393D-03 0.313D-01
 Coeff:      0.381D+00 0.591D+00
 Gap=     0.280 Goal=   None    Shift=    0.000
 RMSDP=2.94D-06 MaxDP=6.07D-05 DE=-3.79D-07 OVMax= 7.71D-05

 Cycle   9  Pass 1  IDiag  1:
 E= -233.668432335121     Delta-E=       -0.000000112757 Rises=F Damp=F
 DIIS: error= 6.43D-06 at cycle   9 NSaved=   9.
 NSaved= 9 IEnMin= 9 EnMin= -233.668432335121     IErMin= 9 ErrMin= 6.43D-06
 ErrMax= 6.43D-06  0.00D+00 EMaxC= 1.00D-01 BMatC= 5.04D-09 BMatP= 1.17D-07
 IDIUse=1 WtCom= 1.00D+00 WtEn= 0.00D+00
 Coeff-Com: -0.570D-05-0.138D-04-0.362D-03-0.653D-03-0.530D-02-0.529D-03
 Coeff-Com:  0.101D+00 0.238D+00 0.668D+00
 Coeff:     -0.570D-05-0.138D-04-0.362D-03-0.653D-03-0.530D-02-0.529D-03
 Coeff:      0.101D+00 0.238D+00 0.668D+00
 Gap=     0.280 Goal=   None    Shift=    0.000
 RMSDP=7.16D-07 MaxDP=1.33D-05 DE=-1.13D-07 OVMax= 2.04D-05

 Cycle  10  Pass 1  IDiag  1:
 E= -233.668432340138     Delta-E=       -0.000000005016 Rises=F Damp=F
 DIIS: error= 1.00D-06 at cycle  10 NSaved=  10.
 NSaved=10 IEnMin=10 EnMin= -233.668432340138     IErMin=10 ErrMin= 1.00D-06
 ErrMax= 1.00D-06  0.00D+00 EMaxC= 1.00D-01 BMatC= 1.46D-10 BMatP= 5.04D-09
 IDIUse=1 WtCom= 1.00D+00 WtEn= 0.00D+00
 Coeff-Com:  0.520D-05-0.811D-05 0.269D-04-0.836D-04-0.111D-02-0.179D-02
 Coeff-Com:  0.103D-02 0.177D-01 0.164D+00 0.820D+00
 Coeff:      0.520D-05-0.811D-05 0.269D-04-0.836D-04-0.111D-02-0.179D-02
 Coeff:      0.103D-02 0.177D-01 0.164D+00 0.820D+00
 Gap=     0.280 Goal=   None    Shift=    0.000
 RMSDP=1.75D-07 MaxDP=3.42D-06 DE=-5.02D-09 OVMax= 5.21D-06

 Cycle  11  Pass 1  IDiag  1:
 E= -233.668432340292     Delta-E=       -0.000000000155 Rises=F Damp=F
 DIIS: error= 1.71D-07 at cycle  11 NSaved=  11.
 NSaved=11 IEnMin=11 EnMin= -233.668432340292     IErMin=11 ErrMin= 1.71D-07
 ErrMax= 1.71D-07  0.00D+00 EMaxC= 1.00D-01 BMatC= 5.14D-12 BMatP= 1.46D-10
 IDIUse=1 WtCom= 1.00D+00 WtEn= 0.00D+00
 Coeff-Com:  0.297D-06 0.288D-06 0.199D-04 0.168D-05-0.388D-04-0.420D-03
 Coeff-Com: -0.375D-02-0.626D-02 0.102D-01 0.183D+00 0.817D+00
 Coeff:      0.297D-06 0.288D-06 0.199D-04 0.168D-05-0.388D-04-0.420D-03
 Coeff:     -0.375D-02-0.626D-02 0.102D-01 0.183D+00 0.817D+00
 Gap=     0.280 Goal=   None    Shift=    0.000
 RMSDP=3.00D-08 MaxDP=5.42D-07 DE=-1.55D-10 OVMax= 9.30D-07

 Cycle  12  Pass 1  IDiag  1:
 E= -233.668432340293     Delta-E=       -0.000000000001 Rises=F Damp=F
 DIIS: error= 5.35D-08 at cycle  12 NSaved=  12.
 NSaved=12 IEnMin=12 EnMin= -233.668432340293     IErMin=12 ErrMin= 5.35D-08
 ErrMax= 5.35D-08  0.00D+00 EMaxC= 1.00D-01 BMatC= 3.61D-13 BMatP= 5.14D-12
 IDIUse=1 WtCom= 1.00D+00 WtEn= 0.00D+00
 Coeff-Com: -0.247D-06 0.651D-06 0.532D-05 0.249D-05 0.224D-04-0.914D-04
 Coeff-Com: -0.140D-02-0.277D-02-0.828D-03 0.448D-01 0.301D+00 0.660D+00
 Coeff:     -0.247D-06 0.651D-06 0.532D-05 0.249D-05 0.224D-04-0.914D-04
 Coeff:     -0.140D-02-0.277D-02-0.828D-03 0.448D-01 0.301D+00 0.660D+00
 Gap=     0.280 Goal=   None    Shift=    0.000
 RMSDP=5.06D-09 MaxDP=1.51D-07 DE=-7.39D-13 OVMax= 1.90D-07

 SCF Done:  E(RB971) =  -233.668432340     A.U. after   12 cycles
            NFock= 12  Conv=0.51D-08     -V/T= 2.0040
 KE= 2.327328882606D+02 PE=-9.419566408926D+02 EE= 2.768543259958D+02
 Leave Link  502 at Mon Apr 27 05:58:59 2015, MaxMem=   524288000 cpu:       176.1
 (Enter /opt/g09/l801.exe)
 DoSCS=F DFT=T ScalE2(SS,OS)=  1.000000  1.000000
 Range of M.O.s used for correlation:     1   170
 NBasis=   170 NAE=    21 NBE=    21 NFC=     0 NFV=     0
 NROrb=    170 NOA=    21 NOB=    21 NVA=   149 NVB=   149

 **** Warning!!: The largest alpha MO coefficient is  0.69533679D+02

 Leave Link  801 at Mon Apr 27 05:58:59 2015, MaxMem=   524288000 cpu:         0.3
 (Enter /opt/g09/l1101.exe)
 Using compressed storage, NAtomX=    15.
 Will process     16 centers per pass.
 Leave Link 1101 at Mon Apr 27 05:58:59 2015, MaxMem=   524288000 cpu:         1.9
 (Enter /opt/g09/l1102.exe)
 Symmetrizing basis deriv contribution to polar:
 IMax=3 JMax=2 DiffMx= 0.00D+00
 Leave Link 1102 at Mon Apr 27 05:58:59 2015, MaxMem=   524288000 cpu:         0.3
 (Enter /opt/g09/l1110.exe)
 Forming Gx(P) for the SCF density, NAtomX=    15.
 Integral derivatives from FoFJK, PRISM(SPDF).
 Do as many integral derivatives as possible in FoFJK.
 G2DrvN: MDV=     524287776.
 G2DrvN: will do    16 centers at a time, making    1 passes.
 Calling FoFCou, ICntrl=  3107 FMM=F I1Cent=   0 AccDes= 0.00D+00.
 FoFJK:  IHMeth= 1 ICntrl=    3107 DoSepK=F KAlg= 0 I1Cent=   0 FoldK=F
 IRaf=         0 NMat=   1 IRICut=       1 DoRegI=T DoRafI=F ISym2E= 0.
 FoFCou: FMM=F IPFlag=           0 FMFlag=      100000 FMFlg1=           0
         NFxFlg=           0 DoJE=F BraDBF=F KetDBF=F FulRan=T
         wScrn=  0.000000 ICntrl=    3107 IOpCl=  0 I1Cent=           0 NGrid=           0
         NMat0=    1 NMatS0=      1 NMatT0=    0 NMatD0=    1 NMtDS0=    0 NMtDT0=    0
 Symmetry not used in FoFCou.
 End of G2Drv F.D. properties file   721 does not exist.
 End of G2Drv F.D. properties file   722 does not exist.
 End of G2Drv F.D. properties file   788 does not exist.
 Leave Link 1110 at Mon Apr 27 06:00:02 2015, MaxMem=   524288000 cpu:       495.4
 (Enter /opt/g09/l1002.exe)
 Minotr:  Closed shell wavefunction.
          IDoAtm=111111111111111
          Direct CPHF calculation.
          Differentiating once with respect to electric field.
                with respect to dipole field.
          Differentiating once with respect to nuclear coordinates.
          Requested convergence is 1.0D-08 RMS, and 1.0D-07 maximum.
          Secondary convergence is 1.0D-12 RMS, and 1.0D-12 maximum.
          NewPWx=T KeepS1=F KeepF1=F KeepIn=T MapXYZ=F SortEE=F KeepMc=T.
          MDV=     524287676 using IRadAn=       1.
 Generate precomputed XC quadrature information.
 Keep R1 ints in memory in canonical form, NReq=108372530.
 FoFCou: FMM=F IPFlag=           0 FMFlag=           0 FMFlg1=           0
         NFxFlg=           0 DoJE=F BraDBF=F KetDBF=F FulRan=T
         wScrn=  0.000000 ICntrl=     600 IOpCl=  0 I1Cent=           0 NGrid=           0
         NMat0=    1 NMatS0=  14535 NMatT0=    0 NMatD0=    1 NMtDS0=    0 NMtDT0=    0
 Symmetry not used in FoFCou.
          Solving linear equations simultaneously, MaxMat=       0.
          There are    48 degrees of freedom in the 1st order CPHF.  IDoFFX=6 NUNeed=     3.
     45 vectors produced by pass  0 Test12= 6.52D-15 2.08D-09 XBig12= 3.36D+01 1.31D+00.
 AX will form    45 AO Fock derivatives at one time.
     45 vectors produced by pass  1 Test12= 6.52D-15 2.08D-09 XBig12= 3.08D+00 3.55D-01.
     45 vectors produced by pass  2 Test12= 6.52D-15 2.08D-09 XBig12= 3.37D-02 3.02D-02.
     45 vectors produced by pass  3 Test12= 6.52D-15 2.08D-09 XBig12= 6.76D-05 1.32D-03.
     45 vectors produced by pass  4 Test12= 6.52D-15 2.08D-09 XBig12= 9.00D-08 4.06D-05.
     21 vectors produced by pass  5 Test12= 6.52D-15 2.08D-09 XBig12= 5.43D-11 9.01D-07.
      3 vectors produced by pass  6 Test12= 6.52D-15 2.08D-09 XBig12= 4.71D-14 4.12D-08.
 InvSVY:  IOpt=1 It=  1 EMax= 7.11D-15
 Solved reduced A of dimension   249 with    48 vectors.
 FullF1:  Do perturbations    1 to     3.
 Isotropic polarizability for W=    0.000000       55.72 Bohr**3.
 End of Minotr F.D. properties file   721 does not exist.
 End of Minotr F.D. properties file   722 does not exist.
 End of Minotr F.D. properties file   788 does not exist.
 Leave Link 1002 at Mon Apr 27 06:01:07 2015, MaxMem=   524288000 cpu:       525.3
 (Enter /opt/g09/l701.exe)
 Compute integral second derivatives.
 ... and contract with generalized density number  0.
 Leave Link  701 at Mon Apr 27 06:01:08 2015, MaxMem=   524288000 cpu:         4.6
 (Enter /opt/g09/l702.exe)
 L702 exits ... SP integral derivatives will be done elsewhere.
 Leave Link  702 at Mon Apr 27 06:01:08 2015, MaxMem=   524288000 cpu:         0.3
 (Enter /opt/g09/l703.exe)
 Compute integral second derivatives, UseDBF=F ICtDFT=           0.
 Integral derivatives from FoFJK, PRISM(SPDF).
 Calling FoFJK, ICntrl=    100127 FMM=F ISym2X=0 I1Cent= 0 IOpClX= 0 NMat=1 NMatS=1 NMatT=0.
 FoFJK:  IHMeth= 1 ICntrl=  100127 DoSepK=F KAlg= 0 I1Cent=   0 FoldK=F
 IRaf=         0 NMat=   1 IRICut=       1 DoRegI=T DoRafI=F ISym2E= 0.
 FoFCou: FMM=F IPFlag=           0 FMFlag=      100000 FMFlg1=         800
         NFxFlg=           0 DoJE=F BraDBF=F KetDBF=F FulRan=T
         wScrn=  0.000000 ICntrl=  100127 IOpCl=  0 I1Cent=           0 NGrid=           0
         NMat0=    1 NMatS0=      1 NMatT0=    0 NMatD0=    1 NMtDS0=    0 NMtDT0=    0
 Symmetry not used in FoFCou.
 Leave Link  703 at Mon Apr 27 06:02:49 2015, MaxMem=   524288000 cpu:       803.5
 (Enter /opt/g09/l716.exe)
 Dipole        =-6.25936386D-02-6.56695596D-01 1.18693331D-01
 Polarizability= 5.62283749D+01 1.03324469D+00 5.52132455D+01
                -2.75475055D-01 1.13254784D+00 5.57098616D+01
 -------------------------------------------------------------------
 Center     Atomic                   Forces (Hartrees/Bohr)
 Number     Number              X              Y              Z
 -------------------------------------------------------------------
      1        6           0.000004416   -0.000003584   -0.000001696
      2        6          -0.000000639    0.000005118    0.000004188
      3        6          -0.000003070    0.000000222   -0.000001488
      4        6          -0.000001610    0.000002256   -0.000006699
      5        8           0.000007670    0.000002626    0.000006925
      6        1          -0.000001296   -0.000001824   -0.000000431
      7        1          -0.000000382    0.000000198   -0.000000716
      8        1          -0.000000587    0.000002302    0.000001179
      9        1           0.000000483    0.000000668   -0.000000155
     10        1          -0.000000727    0.000000593    0.000000862
     11        1           0.000000877   -0.000000752   -0.000001046
     12        1          -0.000002225   -0.000001560    0.000002578
     13        1           0.000001916   -0.000001362    0.000001237
     14        1           0.000001742    0.000000634    0.000000360
     15        1          -0.000006567   -0.000005536   -0.000005098
 -------------------------------------------------------------------
 Cartesian Forces:  Max     0.000007670 RMS     0.000002979
 FormGI is forming the generalized inverse of G from B-inverse, IUseBI=4.
 Leave Link  716 at Mon Apr 27 06:02:49 2015, MaxMem=   524288000 cpu:         0.3
 (Enter /opt/g09/l103.exe)

 GradGradGradGradGradGradGradGradGradGradGradGradGradGradGradGradGradGrad
 Berny optimization.
 Red2BG is reusing G-inverse.
 Internal  Forces:  Max     0.000009651 RMS     0.000001585
 Search for a local minimum.
 Step number   1 out of a maximum of   79
 All quantities printed in internal units (Hartrees-Bohrs-Radians)
 RMS Force = .15848D-05 SwitMx=.10000D-02 MixMth= 2
 Mixed Optimization -- En-DIIS/RFO-DIIS
 Second derivative matrix not updated -- analytic derivatives used.
 ITU=  0
     Eigenvalues ---    0.00198   0.00256   0.00337   0.00347   0.03952
     Eigenvalues ---    0.04360   0.04371   0.04381   0.04525   0.04538
     Eigenvalues ---    0.04579   0.06188   0.06397   0.11626   0.11750
     Eigenvalues ---    0.11904   0.12095   0.12507   0.13769   0.14081
     Eigenvalues ---    0.14504   0.14691   0.16202   0.17823   0.18904
     Eigenvalues ---    0.26542   0.27178   0.28264   0.32765   0.32918
     Eigenvalues ---    0.33254   0.33405   0.33547   0.33563   0.33898
     Eigenvalues ---    0.33917   0.34122   0.35202   0.53263
 RFO step:  Lambda= 0.00000000D+00 EMin= 1.97508667D-03
 Linear search not attempted -- first point.
 Iteration  1 RMS(Cart)=  0.00004316 RMS(Int)=  0.00000001
 Iteration  2 RMS(Cart)=  0.00000000 RMS(Int)=  0.00000000
 ITry= 1 IFail=0 DXMaxC= 2.25D-04 DCOld= 1.00D+10 DXMaxT= 3.00D-01 DXLimC= 3.00D+00 Rises=F
 Variable       Old X    -DE/DX   Delta X   Delta X   Delta X     New X
                                 (Linear)    (Quad)   (Total)
    R1        2.90671   0.00000   0.00000   0.00000   0.00000   2.90671
    R2        2.07374   0.00000   0.00000   0.00001   0.00001   2.07375
    R3        2.07053   0.00000   0.00000   0.00000   0.00000   2.07053
    R4        2.06825   0.00000   0.00000   0.00001   0.00001   2.06826
    R5        2.89498   0.00000   0.00000  -0.00001  -0.00001   2.89497
    R6        2.90668   0.00000   0.00000   0.00001   0.00001   2.90669
    R7        2.71999   0.00000   0.00000  -0.00001  -0.00001   2.71998
    R8        2.06883   0.00000   0.00000   0.00000   0.00000   2.06883
    R9        2.06802   0.00000   0.00000   0.00000   0.00000   2.06802
   R10        2.06802   0.00000   0.00000   0.00000   0.00000   2.06802
   R11        2.06827   0.00000   0.00000  -0.00001  -0.00001   2.06826
   R12        2.07051   0.00000   0.00000   0.00001   0.00001   2.07052
   R13        2.07378   0.00000   0.00000   0.00000   0.00000   2.07377
   R14        1.81868   0.00001   0.00000   0.00002   0.00002   1.81869
    A1        1.93336   0.00000   0.00000   0.00000   0.00000   1.93337
    A2        1.94062   0.00000   0.00000   0.00001   0.00001   1.94063
    A3        1.92336   0.00000   0.00000  -0.00002  -0.00002   1.92334
    A4        1.87980   0.00000   0.00000   0.00000   0.00000   1.87980
    A5        1.88954   0.00000   0.00000   0.00000   0.00000   1.88954
    A6        1.89565   0.00000   0.00000   0.00000   0.00000   1.89565
    A7        1.93485   0.00000   0.00000   0.00001   0.00001   1.93486
    A8        1.93358   0.00000   0.00000  -0.00001  -0.00001   1.93357
    A9        1.91310   0.00000   0.00000   0.00000   0.00000   1.91310
   A10        1.93485   0.00000   0.00000   0.00001   0.00001   1.93486
   A11        1.83173   0.00000   0.00000   0.00000   0.00000   1.83173
   A12        1.91305   0.00000   0.00000  -0.00001  -0.00001   1.91304
   A13        1.93277   0.00000   0.00000   0.00001   0.00001   1.93278
   A14        1.92309   0.00000   0.00000   0.00000   0.00000   1.92310
   A15        1.92306   0.00000   0.00000   0.00000   0.00000   1.92306
   A16        1.89709   0.00000   0.00000   0.00000   0.00000   1.89709
   A17        1.89709   0.00000   0.00000   0.00000   0.00000   1.89708
   A18        1.88987   0.00000   0.00000  -0.00001  -0.00001   1.88987
   A19        1.92330   0.00000   0.00000   0.00001   0.00001   1.92331
   A20        1.94064   0.00000   0.00000   0.00000   0.00000   1.94064
   A21        1.93340   0.00000   0.00000   0.00000   0.00000   1.93340
   A22        1.89563   0.00000   0.00000   0.00000   0.00000   1.89562
   A23        1.88957   0.00000   0.00000   0.00000   0.00000   1.88957
   A24        1.87979   0.00000   0.00000  -0.00001  -0.00001   1.87978
   A25        1.88813   0.00000   0.00000   0.00000   0.00000   1.88813
    D1        3.10906   0.00000   0.00000  -0.00001  -0.00001   3.10905
    D2       -1.01833   0.00000   0.00000   0.00000   0.00000  -1.01833
    D3        1.09504   0.00000   0.00000  -0.00002  -0.00002   1.09502
    D4       -1.08447   0.00000   0.00000   0.00000   0.00000  -1.08447
    D5        1.07133   0.00000   0.00000   0.00001   0.00001   1.07134
    D6       -3.09848   0.00000   0.00000  -0.00001  -0.00001  -3.09849
    D7        1.01847   0.00000   0.00000   0.00000   0.00000   1.01847
    D8       -3.10891   0.00000   0.00000   0.00001   0.00001  -3.10891
    D9       -0.99555   0.00000   0.00000  -0.00001  -0.00001  -0.99555
   D10        1.07736   0.00000   0.00000  -0.00003  -0.00003   1.07733
   D11       -3.10636   0.00000   0.00000  -0.00002  -0.00002  -3.10639
   D12       -1.02208   0.00000   0.00000  -0.00003  -0.00003  -1.02211
   D13       -1.07771   0.00000   0.00000  -0.00003  -0.00003  -1.07774
   D14        1.02175   0.00000   0.00000  -0.00002  -0.00002   1.02173
   D15        3.10604   0.00000   0.00000  -0.00003  -0.00003   3.10601
   D16        3.14145   0.00000   0.00000  -0.00002  -0.00002   3.14143
   D17       -1.04227   0.00000   0.00000  -0.00002  -0.00002  -1.04229
   D18        1.04201   0.00000   0.00000  -0.00003  -0.00003   1.04199
   D19        3.10911   0.00000   0.00000   0.00002   0.00002   3.10912
   D20       -1.07119   0.00000   0.00000   0.00002   0.00002  -1.07117
   D21        1.01849   0.00000   0.00000   0.00001   0.00001   1.01850
   D22       -1.01828   0.00000   0.00000   0.00003   0.00003  -1.01825
   D23        1.08461   0.00000   0.00000   0.00003   0.00003   1.08463
   D24       -3.10890   0.00000   0.00000   0.00002   0.00002  -3.10888
   D25        0.99571   0.00000   0.00000   0.00003   0.00003   0.99573
   D26        3.09860   0.00000   0.00000   0.00002   0.00002   3.09862
   D27       -1.09491   0.00000   0.00000   0.00002   0.00002  -1.09489
   D28       -1.06377   0.00000   0.00000  -0.00022  -0.00022  -1.06399
   D29        3.14068   0.00000   0.00000  -0.00023  -0.00023   3.14044
   D30        1.06196   0.00000   0.00000  -0.00024  -0.00024   1.06172
         Item               Value     Threshold  Converged?
 Maximum Force            0.000010     0.000015     YES
 RMS     Force            0.000002     0.000010     YES
 Maximum Displacement     0.000225     0.000060     NO 
 RMS     Displacement     0.000043     0.000040     NO 
 Predicted change in Energy=-4.864774D-10
 Lowest energy point so far.  Saving SCF results.
 GradGradGradGradGradGradGradGradGradGradGradGradGradGradGradGradGradGrad

 Leave Link  103 at Mon Apr 27 06:02:49 2015, MaxMem=   524288000 cpu:         0.1
 (Enter /opt/g09/l202.exe)
                          Input orientation:                          
 ---------------------------------------------------------------------
 Center     Atomic      Atomic             Coordinates (Angstroms)
 Number     Number       Type             X           Y           Z
 ---------------------------------------------------------------------
      1          6           0        0.779928    1.155227    2.672800
      2          6           0        1.736032    1.760606    1.631010
      3          6           0        2.811805    2.614756    2.309253
      4          6           0        2.374718    0.657432    0.770194
      5          8           0        1.013738    2.675135    0.786228
      6          1           0       -0.009464    0.570787    2.183382
      7          1           0        1.312860    0.486991    3.358329
      8          1           0        0.305937    1.949802    3.257490
      9          1           0        3.423749    2.005217    2.981950
     10          1           0        3.463764    3.068598    1.556539
     11          1           0        2.346365    3.417596    2.889263
     12          1           0        3.027201    1.100458    0.011334
     13          1           0        2.968073   -0.029808    1.383485
     14          1           0        1.603663    0.067356    0.258771
     15          1           0        0.321641    2.182938    0.333481
 ---------------------------------------------------------------------
                    Distance matrix (angstroms):
                    1          2          3          4          5
     1  C    0.000000
     2  C    1.538163   0.000000
     3  C    2.528025   1.531951   0.000000
     4  C    2.532007   1.538153   2.528016   0.000000
     5  O    2.433914   1.439349   2.357180   2.433854   0.000000
     6  H    1.097379   2.183470   3.486146   2.772892   2.725301
     7  H    1.095676   2.187419   2.806204   2.802683   3.390155
     8  H    1.094476   2.174030   2.760560   3.483778   2.670997
     9  H    2.794252   2.175606   1.094776   2.794433   3.328384
    10  H    3.479942   2.168281   1.094350   2.760087   2.598234
    11  H    2.760234   2.168254   1.094348   3.479908   2.598057
    12  H    3.483768   2.173997   2.760422   1.094475   2.670974
    13  H    2.802609   2.187413   2.806276   1.095671   3.390112
    14  H    2.773001   2.183496   3.486163   1.097392   2.725203
    15  H    2.595887   1.965311   3.207968   2.594805   0.962412
                    6          7          8          9         10
     6  H    0.000000
     7  H    1.770893   0.000000
     8  H    1.776195   1.778730   0.000000
     9  H    3.805555   2.627265   3.130454   0.000000
    10  H    4.323807   3.812811   3.757234   1.778813   0.000000
    11  H    3.761984   3.142706   2.540346   1.778809   1.773847
    12  H    3.770899   3.810207   4.320208   3.130559   2.540043
    13  H    3.141062   2.628082   3.810212   2.627558   3.142574
    14  H    2.561200   3.141324   3.770943   3.805749   3.761865
    15  H    2.476045   3.606724   2.933330   4.082774   3.486144
                   11         12         13         14         15
    11  H    0.000000
    12  H    3.757013   0.000000
    13  H    3.812936   1.778706   0.000000
    14  H    4.323795   1.776228   1.770886   0.000000
    15  H    3.486533   2.931825   3.605878   2.474843   0.000000
 Symmetry turned off by external request.
 Stoichiometry    C4H10O
 Framework group  C1[X(C4H10O)]
 Deg. of freedom    39
 Full point group                 C1      NOp   1
 Rotational constants (GHZ):      4.6759537      4.6497641      4.4686307
 Leave Link  202 at Mon Apr 27 06:02:49 2015, MaxMem=   524288000 cpu:         0.3
 (Enter /opt/g09/l301.exe)
 Standard basis: 6-311+G(d,p) (5D, 7F)
 Ernie: Thresh=  0.10000D-02 Tol=  0.10000D-05 Strict=F.
   170 basis functions,   260 primitive gaussians,   175 cartesian basis functions
    21 alpha electrons       21 beta electrons
       nuclear repulsion energy       198.7011521157 Hartrees.
 IExCor= 1614 DFT=T Ex+Corr=B971 ExCW=0 ScaHFX=  0.210000
 ScaDFX=  1.000000  1.000000  1.000000  1.000000 ScalE2=  1.000000  1.000000
 IRadAn=      5 IRanWt=     -1 IRanGd=            0 ICorTp=0 IEmpDi=  4
 NAtoms=   15 NActive=   15 NUniq=   15 SFac= 1.00D+00 NAtFMM=   60 NAOKFM=F Big=F
 Integral buffers will be    131072 words long.
 Raffenetti 2 integral format.
 Two-electron integral symmetry is turned off.
 Leave Link  301 at Mon Apr 27 06:02:49 2015, MaxMem=   524288000 cpu:         0.4
 (Enter /opt/g09/l302.exe)
 NPDir=0 NMtPBC=     1 NCelOv=     1 NCel=       1 NClECP=     1 NCelD=      1
         NCelK=      1 NCelE2=     1 NClLst=     1 CellRange=     0.0.
 One-electron integrals computed using PRISM.
 NBasis=   170 RedAO= T EigKep=  4.16D-05  NBF=   170
 NBsUse=   170 1.00D-06 EigRej= -1.00D+00 NBFU=   170
 Precomputing XC quadrature grid using
 IXCGrd= 4 IRadAn=           5 IRanWt=          -1 IRanGd=           0 AccXCQ= 0.00D+00.
 Generated NRdTot=       0 NPtTot=           0 NUsed=           0 NTot=          32
 NSgBfM=   175   175   175   175   175 MxSgAt=    15 MxSgA2=    15.
 Leave Link  302 at Mon Apr 27 06:02:50 2015, MaxMem=   524288000 cpu:         2.0
 (Enter /opt/g09/l303.exe)
 DipDrv:  MaxL=1.
 Leave Link  303 at Mon Apr 27 06:02:50 2015, MaxMem=   524288000 cpu:         0.4
 (Enter /opt/g09/l401.exe)
 Initial guess from the checkpoint file:  "/scratch/pb556/g09_run/add_hco//Gau-20977.chk"
 B after Tr=    -0.000029    0.000012    0.000029
         Rot=    1.000000   -0.000003   -0.000004   -0.000001 Ang=   0.00 deg.
 Guess basis will be translated and rotated to current coordinates.
 JPrj=2 DoOrth=T DoCkMO=T.
 Leave Link  401 at Mon Apr 27 06:02:50 2015, MaxMem=   524288000 cpu:         1.0
 (Enter /opt/g09/l502.exe)
 Closed shell SCF:
 Using DIIS extrapolation, IDIIS=  1040.
 Two-electron integral symmetry not used.
 Keep R1 ints in memory in canonical form, NReq=108479085.
 IVT=      112905 IEndB=      112905 NGot=   524288000 MDV=   418534716
 LenX=   418534716 LenY=   418503650
 Requested convergence on RMS density matrix=1.00D-08 within 128 cycles.
 Requested convergence on MAX density matrix=1.00D-06.
 Requested convergence on             energy=1.00D-06.
 No special actions if energy rises.
 FoFCou: FMM=F IPFlag=           0 FMFlag=           0 FMFlg1=           0
         NFxFlg=           0 DoJE=F BraDBF=F KetDBF=F FulRan=T
         wScrn=  0.000000 ICntrl=     600 IOpCl=  0 I1Cent=           0 NGrid=           0
         NMat0=    1 NMatS0=  14535 NMatT0=    0 NMatD0=    1 NMtDS0=    0 NMtDT0=    0
 Symmetry not used in FoFCou.

 Cycle   1  Pass 1  IDiag  1:
 E= -233.668432333803    
 DIIS: error= 7.30D-06 at cycle   1 NSaved=   1.
 NSaved= 1 IEnMin= 1 EnMin= -233.668432333803     IErMin= 1 ErrMin= 7.30D-06
 ErrMax= 7.30D-06  0.00D+00 EMaxC= 1.00D-01 BMatC= 5.61D-09 BMatP= 5.61D-09
 IDIUse=1 WtCom= 1.00D+00 WtEn= 0.00D+00
 Coeff-Com:  0.100D+01
 Coeff:      0.100D+01
 Gap=     0.495 Goal=   None    Shift=    0.000
 RMSDP=1.81D-06 MaxDP=4.94D-05              OVMax= 4.13D-05

 Cycle   2  Pass 1  IDiag  1:
 E= -233.668432340699     Delta-E=       -0.000000006896 Rises=F Damp=F
 DIIS: error= 8.82D-07 at cycle   2 NSaved=   2.
 NSaved= 2 IEnMin= 2 EnMin= -233.668432340699     IErMin= 2 ErrMin= 8.82D-07
 ErrMax= 8.82D-07  0.00D+00 EMaxC= 1.00D-01 BMatC= 9.03D-11 BMatP= 5.61D-09
 IDIUse=1 WtCom= 1.00D+00 WtEn= 0.00D+00
 Coeff-Com: -0.455D-01 0.105D+01
 Coeff:     -0.455D-01 0.105D+01
 Gap=     0.280 Goal=   None    Shift=    0.000
 RMSDP=1.89D-07 MaxDP=6.28D-06 DE=-6.90D-09 OVMax= 4.73D-06

 Cycle   3  Pass 1  IDiag  1:
 E= -233.668432340756     Delta-E=       -0.000000000056 Rises=F Damp=F
 DIIS: error= 6.39D-07 at cycle   3 NSaved=   3.
 NSaved= 3 IEnMin= 3 EnMin= -233.668432340756     IErMin= 3 ErrMin= 6.39D-07
 ErrMax= 6.39D-07  0.00D+00 EMaxC= 1.00D-01 BMatC= 4.42D-11 BMatP= 9.03D-11
 IDIUse=1 WtCom= 1.00D+00 WtEn= 0.00D+00
 Coeff-Com: -0.252D-01 0.435D+00 0.590D+00
 Coeff:     -0.252D-01 0.435D+00 0.590D+00
 Gap=     0.280 Goal=   None    Shift=    0.000
 RMSDP=4.96D-08 MaxDP=1.30D-06 DE=-5.64D-11 OVMax= 1.91D-06

 Cycle   4  Pass 1  IDiag  1:
 E= -233.668432340776     Delta-E=       -0.000000000020 Rises=F Damp=F
 DIIS: error= 3.72D-07 at cycle   4 NSaved=   4.
 NSaved= 4 IEnMin= 4 EnMin= -233.668432340776     IErMin= 4 ErrMin= 3.72D-07
 ErrMax= 3.72D-07  0.00D+00 EMaxC= 1.00D-01 BMatC= 1.18D-11 BMatP= 4.42D-11
 IDIUse=1 WtCom= 1.00D+00 WtEn= 0.00D+00
 Coeff-Com: -0.735D-02 0.112D+00 0.352D+00 0.543D+00
 Coeff:     -0.735D-02 0.112D+00 0.352D+00 0.543D+00
 Gap=     0.280 Goal=   None    Shift=    0.000
 RMSDP=1.98D-08 MaxDP=4.82D-07 DE=-2.03D-11 OVMax= 7.44D-07

 Cycle   5  Pass 1  IDiag  1:
 E= -233.668432340784     Delta-E=       -0.000000000008 Rises=F Damp=F
 DIIS: error= 2.76D-08 at cycle   5 NSaved=   5.
 NSaved= 5 IEnMin= 5 EnMin= -233.668432340784     IErMin= 5 ErrMin= 2.76D-08
 ErrMax= 2.76D-08  0.00D+00 EMaxC= 1.00D-01 BMatC= 1.75D-13 BMatP= 1.18D-11
 IDIUse=1 WtCom= 1.00D+00 WtEn= 0.00D+00
 Coeff-Com: -0.108D-02 0.103D-01 0.882D-01 0.186D+00 0.716D+00
 Coeff:     -0.108D-02 0.103D-01 0.882D-01 0.186D+00 0.716D+00
 Gap=     0.280 Goal=   None    Shift=    0.000
 RMSDP=3.48D-09 MaxDP=9.96D-08 DE=-8.24D-12 OVMax= 1.34D-07

 SCF Done:  E(RB971) =  -233.668432341     A.U. after    5 cycles
            NFock=  5  Conv=0.35D-08     -V/T= 2.0040
 KE= 2.327328867458D+02 PE=-9.419569649274D+02 EE= 2.768544937252D+02
 Leave Link  502 at Mon Apr 27 06:03:02 2015, MaxMem=   524288000 cpu:        83.5
 (Enter /opt/g09/l801.exe)
 DoSCS=F DFT=T ScalE2(SS,OS)=  1.000000  1.000000
 Range of M.O.s used for correlation:     1   170
 NBasis=   170 NAE=    21 NBE=    21 NFC=     0 NFV=     0
 NROrb=    170 NOA=    21 NOB=    21 NVA=   149 NVB=   149

 **** Warning!!: The largest alpha MO coefficient is  0.69532440D+02

 Leave Link  801 at Mon Apr 27 06:03:03 2015, MaxMem=   524288000 cpu:         0.3
 (Enter /opt/g09/l1101.exe)
 Using compressed storage, NAtomX=    15.
 Will process     16 centers per pass.
 Leave Link 1101 at Mon Apr 27 06:03:03 2015, MaxMem=   524288000 cpu:         1.9
 (Enter /opt/g09/l1102.exe)
 Symmetrizing basis deriv contribution to polar:
 IMax=3 JMax=2 DiffMx= 0.00D+00
 Leave Link 1102 at Mon Apr 27 06:03:03 2015, MaxMem=   524288000 cpu:         0.3
 (Enter /opt/g09/l1110.exe)
 Forming Gx(P) for the SCF density, NAtomX=    15.
 Integral derivatives from FoFJK, PRISM(SPDF).
 Do as many integral derivatives as possible in FoFJK.
 G2DrvN: MDV=     524287776.
 G2DrvN: will do    16 centers at a time, making    1 passes.
 Calling FoFCou, ICntrl=  3107 FMM=F I1Cent=   0 AccDes= 0.00D+00.
 FoFJK:  IHMeth= 1 ICntrl=    3107 DoSepK=F KAlg= 0 I1Cent=   0 FoldK=F
 IRaf=         0 NMat=   1 IRICut=       1 DoRegI=T DoRafI=F ISym2E= 0.
 FoFCou: FMM=F IPFlag=           0 FMFlag=      100000 FMFlg1=           0
         NFxFlg=           0 DoJE=F BraDBF=F KetDBF=F FulRan=T
         wScrn=  0.000000 ICntrl=    3107 IOpCl=  0 I1Cent=           0 NGrid=           0
         NMat0=    1 NMatS0=      1 NMatT0=    0 NMatD0=    1 NMtDS0=    0 NMtDT0=    0
 Symmetry not used in FoFCou.
 End of G2Drv F.D. properties file   721 does not exist.
 End of G2Drv F.D. properties file   722 does not exist.
 End of G2Drv F.D. properties file   788 does not exist.
 Leave Link 1110 at Mon Apr 27 06:04:05 2015, MaxMem=   524288000 cpu:       494.1
 (Enter /opt/g09/l1002.exe)
 Minotr:  Closed shell wavefunction.
          IDoAtm=111111111111111
          Direct CPHF calculation.
          Differentiating once with respect to electric field.
                with respect to dipole field.
          Differentiating once with respect to nuclear coordinates.
          Requested convergence is 1.0D-08 RMS, and 1.0D-07 maximum.
          Secondary convergence is 1.0D-12 RMS, and 1.0D-12 maximum.
          NewPWx=T KeepS1=F KeepF1=F KeepIn=T MapXYZ=F SortEE=F KeepMc=T.
          MDV=     524287676 using IRadAn=       1.
 Generate precomputed XC quadrature information.
 Keep R1 ints in memory in canonical form, NReq=108372530.
 FoFCou: FMM=F IPFlag=           0 FMFlag=           0 FMFlg1=           0
         NFxFlg=           0 DoJE=F BraDBF=F KetDBF=F FulRan=T
         wScrn=  0.000000 ICntrl=     600 IOpCl=  0 I1Cent=           0 NGrid=           0
         NMat0=    1 NMatS0=  14535 NMatT0=    0 NMatD0=    1 NMtDS0=    0 NMtDT0=    0
 Symmetry not used in FoFCou.
          Solving linear equations simultaneously, MaxMat=       0.
          There are    48 degrees of freedom in the 1st order CPHF.  IDoFFX=6 NUNeed=     3.
     45 vectors produced by pass  0 Test12= 6.52D-15 2.08D-09 XBig12= 3.36D+01 1.31D+00.
 AX will form    45 AO Fock derivatives at one time.
     45 vectors produced by pass  1 Test12= 6.52D-15 2.08D-09 XBig12= 3.08D+00 3.55D-01.
     45 vectors produced by pass  2 Test12= 6.52D-15 2.08D-09 XBig12= 3.37D-02 3.02D-02.
     45 vectors produced by pass  3 Test12= 6.52D-15 2.08D-09 XBig12= 6.76D-05 1.32D-03.
     45 vectors produced by pass  4 Test12= 6.52D-15 2.08D-09 XBig12= 9.00D-08 4.06D-05.
     21 vectors produced by pass  5 Test12= 6.52D-15 2.08D-09 XBig12= 5.43D-11 9.01D-07.
      3 vectors produced by pass  6 Test12= 6.52D-15 2.08D-09 XBig12= 4.71D-14 4.12D-08.
 InvSVY:  IOpt=1 It=  1 EMax= 7.99D-15
 Solved reduced A of dimension   249 with    48 vectors.
 FullF1:  Do perturbations    1 to     3.
 Isotropic polarizability for W=    0.000000       55.72 Bohr**3.
 End of Minotr F.D. properties file   721 does not exist.
 End of Minotr F.D. properties file   722 does not exist.
 End of Minotr F.D. properties file   788 does not exist.
 Leave Link 1002 at Mon Apr 27 06:05:11 2015, MaxMem=   524288000 cpu:       525.1
 (Enter /opt/g09/l701.exe)
 Compute integral second derivatives.
 ... and contract with generalized density number  0.
 Leave Link  701 at Mon Apr 27 06:05:11 2015, MaxMem=   524288000 cpu:         2.5
 (Enter /opt/g09/l702.exe)
 L702 exits ... SP integral derivatives will be done elsewhere.
 Leave Link  702 at Mon Apr 27 06:05:12 2015, MaxMem=   524288000 cpu:         0.3
 (Enter /opt/g09/l703.exe)
 Compute integral second derivatives, UseDBF=F ICtDFT=           0.
 Integral derivatives from FoFJK, PRISM(SPDF).
 Calling FoFJK, ICntrl=    100127 FMM=F ISym2X=0 I1Cent= 0 IOpClX= 0 NMat=1 NMatS=1 NMatT=0.
 FoFJK:  IHMeth= 1 ICntrl=  100127 DoSepK=F KAlg= 0 I1Cent=   0 FoldK=F
 IRaf=         0 NMat=   1 IRICut=       1 DoRegI=T DoRafI=F ISym2E= 0.
 FoFCou: FMM=F IPFlag=           0 FMFlag=      100000 FMFlg1=         800
         NFxFlg=           0 DoJE=F BraDBF=F KetDBF=F FulRan=T
         wScrn=  0.000000 ICntrl=  100127 IOpCl=  0 I1Cent=           0 NGrid=           0
         NMat0=    1 NMatS0=      1 NMatT0=    0 NMatD0=    1 NMtDS0=    0 NMtDT0=    0
 Symmetry not used in FoFCou.
 Leave Link  703 at Mon Apr 27 06:06:52 2015, MaxMem=   524288000 cpu:       802.7
 (Enter /opt/g09/l716.exe)
 Dipole        =-6.25060498D-02-6.56714933D-01 1.18585067D-01
 Polarizability= 5.62280764D+01 1.03330966D+00 5.52132992D+01
                -2.75370154D-01 1.13260350D+00 5.57101499D+01
 -------------------------------------------------------------------
 Center     Atomic                   Forces (Hartrees/Bohr)
 Number     Number              X              Y              Z
 -------------------------------------------------------------------
      1        6           0.000000233   -0.000000385    0.000000090
      2        6          -0.000000049    0.000000071   -0.000000015
      3        6          -0.000000232    0.000000241   -0.000000022
      4        6           0.000000147    0.000000248   -0.000000153
      5        8          -0.000000455   -0.000000181    0.000000215
      6        1           0.000000338   -0.000000588    0.000000137
      7        1           0.000000528   -0.000000312   -0.000000021
      8        1           0.000000078   -0.000000586    0.000000228
      9        1           0.000000026    0.000000359   -0.000000165
     10        1          -0.000000477    0.000000485   -0.000000050
     11        1          -0.000000386    0.000000029    0.000000092
     12        1          -0.000000086    0.000000504   -0.000000187
     13        1           0.000000427    0.000000363   -0.000000289
     14        1           0.000000251    0.000000064   -0.000000112
     15        1          -0.000000343   -0.000000313    0.000000253
 -------------------------------------------------------------------
 Cartesian Forces:  Max     0.000000588 RMS     0.000000291
 FormGI is forming the generalized inverse of G from B-inverse, IUseBI=4.
 Leave Link  716 at Mon Apr 27 06:06:53 2015, MaxMem=   524288000 cpu:         1.1
 (Enter /opt/g09/l103.exe)

 GradGradGradGradGradGradGradGradGradGradGradGradGradGradGradGradGradGrad
 Berny optimization.
 Using GEDIIS/GDIIS optimizer.
 Red2BG is reusing G-inverse.
 Internal  Forces:  Max     0.000000032 RMS     0.000000009
 Search for a local minimum.
 Step number   2 out of a maximum of   79
 All quantities printed in internal units (Hartrees-Bohrs-Radians)
 RMS Force = .88893D-08 SwitMx=.10000D-02 MixMth= 2
 Mixed Optimization -- En-DIIS/RFO-DIIS
 Swapping is turned off.
 Second derivative matrix not updated -- analytic derivatives used.
 DE= -4.91D-10 DEPred=-4.86D-10 R= 1.01D+00
 Trust test= 1.01D+00 RLast= 4.17D-04 DXMaxT set to 3.00D-01
 ITU=  0  0
     Eigenvalues ---    0.00198   0.00256   0.00337   0.00347   0.03952
     Eigenvalues ---    0.04360   0.04371   0.04381   0.04525   0.04538
     Eigenvalues ---    0.04579   0.06188   0.06397   0.11626   0.11750
     Eigenvalues ---    0.11904   0.12095   0.12507   0.13769   0.14081
     Eigenvalues ---    0.14504   0.14691   0.16203   0.17823   0.18904
     Eigenvalues ---    0.26542   0.27178   0.28265   0.32765   0.32918
     Eigenvalues ---    0.33254   0.33405   0.33547   0.33562   0.33898
     Eigenvalues ---    0.33917   0.34122   0.35203   0.53259
 En-DIIS/RFO-DIIS IScMMF=        0 using points:     2    1
 RFO step:  Lambda=-1.34093234D-14.
 NNeg= 0 NP= 2 Switch=  2.50D-03 Rises=F DC=  4.91D-10 SmlDif=  1.00D-05
 RMS Error=  0.2499884339D-07 NUsed= 2 EDIIS=F
 DidBck=F Rises=F RFO-DIIS coefs:    1.00140   -0.00140
 Iteration  1 RMS(Cart)=  0.00000013 RMS(Int)=  0.00000000
 ITry= 1 IFail=0 DXMaxC= 4.02D-07 DCOld= 1.00D+10 DXMaxT= 3.00D-01 DXLimC= 3.00D+00 Rises=F
 Variable       Old X    -DE/DX   Delta X   Delta X   Delta X     New X
                                 (Linear)    (Quad)   (Total)
    R1        2.90671   0.00000   0.00000   0.00000   0.00000   2.90671
    R2        2.07375   0.00000   0.00000   0.00000   0.00000   2.07375
    R3        2.07053   0.00000   0.00000   0.00000   0.00000   2.07053
    R4        2.06826   0.00000   0.00000   0.00000   0.00000   2.06826
    R5        2.89497   0.00000   0.00000   0.00000   0.00000   2.89497
    R6        2.90669   0.00000   0.00000   0.00000   0.00000   2.90669
    R7        2.71998   0.00000   0.00000   0.00000   0.00000   2.71998
    R8        2.06883   0.00000   0.00000   0.00000   0.00000   2.06883
    R9        2.06802   0.00000   0.00000   0.00000   0.00000   2.06802
   R10        2.06802   0.00000   0.00000   0.00000   0.00000   2.06802
   R11        2.06826   0.00000   0.00000   0.00000   0.00000   2.06826
   R12        2.07052   0.00000   0.00000   0.00000   0.00000   2.07052
   R13        2.07377   0.00000   0.00000   0.00000   0.00000   2.07377
   R14        1.81869   0.00000   0.00000   0.00000   0.00000   1.81869
    A1        1.93337   0.00000   0.00000   0.00000   0.00000   1.93337
    A2        1.94063   0.00000   0.00000   0.00000   0.00000   1.94063
    A3        1.92334   0.00000   0.00000   0.00000   0.00000   1.92334
    A4        1.87980   0.00000   0.00000   0.00000   0.00000   1.87980
    A5        1.88954   0.00000   0.00000   0.00000   0.00000   1.88954
    A6        1.89565   0.00000   0.00000   0.00000   0.00000   1.89565
    A7        1.93486   0.00000   0.00000   0.00000   0.00000   1.93486
    A8        1.93357   0.00000   0.00000   0.00000   0.00000   1.93357
    A9        1.91310   0.00000   0.00000   0.00000   0.00000   1.91310
   A10        1.93486   0.00000   0.00000   0.00000   0.00000   1.93486
   A11        1.83173   0.00000   0.00000   0.00000   0.00000   1.83173
   A12        1.91304   0.00000   0.00000   0.00000   0.00000   1.91304
   A13        1.93278   0.00000   0.00000   0.00000   0.00000   1.93278
   A14        1.92310   0.00000   0.00000   0.00000   0.00000   1.92310
   A15        1.92306   0.00000   0.00000   0.00000   0.00000   1.92306
   A16        1.89709   0.00000   0.00000   0.00000   0.00000   1.89709
   A17        1.89708   0.00000   0.00000   0.00000   0.00000   1.89708
   A18        1.88987   0.00000   0.00000   0.00000   0.00000   1.88987
   A19        1.92331   0.00000   0.00000   0.00000   0.00000   1.92331
   A20        1.94064   0.00000   0.00000   0.00000   0.00000   1.94064
   A21        1.93340   0.00000   0.00000   0.00000   0.00000   1.93340
   A22        1.89562   0.00000   0.00000   0.00000   0.00000   1.89562
   A23        1.88957   0.00000   0.00000   0.00000   0.00000   1.88957
   A24        1.87978   0.00000   0.00000   0.00000   0.00000   1.87978
   A25        1.88813   0.00000   0.00000   0.00000   0.00000   1.88813
    D1        3.10905   0.00000   0.00000   0.00000   0.00000   3.10905
    D2       -1.01833   0.00000   0.00000   0.00000   0.00000  -1.01833
    D3        1.09502   0.00000   0.00000   0.00000   0.00000   1.09502
    D4       -1.08447   0.00000   0.00000   0.00000   0.00000  -1.08447
    D5        1.07134   0.00000   0.00000   0.00000   0.00000   1.07134
    D6       -3.09849   0.00000   0.00000   0.00000   0.00000  -3.09849
    D7        1.01847   0.00000   0.00000   0.00000   0.00000   1.01847
    D8       -3.10891   0.00000   0.00000   0.00000   0.00000  -3.10891
    D9       -0.99555   0.00000   0.00000   0.00000   0.00000  -0.99555
   D10        1.07733   0.00000   0.00000   0.00000   0.00000   1.07733
   D11       -3.10639   0.00000   0.00000   0.00000   0.00000  -3.10639
   D12       -1.02211   0.00000   0.00000   0.00000   0.00000  -1.02211
   D13       -1.07774   0.00000   0.00000   0.00000   0.00000  -1.07774
   D14        1.02173   0.00000   0.00000   0.00000   0.00000   1.02173
   D15        3.10601   0.00000   0.00000   0.00000   0.00000   3.10601
   D16        3.14143   0.00000   0.00000   0.00000   0.00000   3.14143
   D17       -1.04229   0.00000   0.00000   0.00000   0.00000  -1.04229
   D18        1.04199   0.00000   0.00000   0.00000   0.00000   1.04199
   D19        3.10912   0.00000   0.00000   0.00000   0.00000   3.10912
   D20       -1.07117   0.00000   0.00000   0.00000   0.00000  -1.07117
   D21        1.01850   0.00000   0.00000   0.00000   0.00000   1.01850
   D22       -1.01825   0.00000   0.00000   0.00000   0.00000  -1.01825
   D23        1.08463   0.00000   0.00000   0.00000   0.00000   1.08463
   D24       -3.10888   0.00000   0.00000   0.00000   0.00000  -3.10888
   D25        0.99573   0.00000   0.00000   0.00000   0.00000   0.99573
   D26        3.09862   0.00000   0.00000   0.00000   0.00000   3.09862
   D27       -1.09489   0.00000   0.00000   0.00000   0.00000  -1.09489
   D28       -1.06399   0.00000   0.00000   0.00000   0.00000  -1.06399
   D29        3.14044   0.00000   0.00000   0.00000   0.00000   3.14044
   D30        1.06172   0.00000   0.00000   0.00000   0.00000   1.06172
         Item               Value     Threshold  Converged?
 Maximum Force            0.000000     0.000015     YES
 RMS     Force            0.000000     0.000010     YES
 Maximum Displacement     0.000000     0.000060     YES
 RMS     Displacement     0.000000     0.000040     YES
 Predicted change in Energy=-2.156046D-14
 Optimization completed.
    -- Stationary point found.
                           ----------------------------
                           !   Optimized Parameters   !
                           ! (Angstroms and Degrees)  !
 --------------------------                            --------------------------
 ! Name  Definition              Value          Derivative Info.                !
 --------------------------------------------------------------------------------
 ! R1    R(1,2)                  1.5382         -DE/DX =    0.0                 !
 ! R2    R(1,6)                  1.0974         -DE/DX =    0.0                 !
 ! R3    R(1,7)                  1.0957         -DE/DX =    0.0                 !
 ! R4    R(1,8)                  1.0945         -DE/DX =    0.0                 !
 ! R5    R(2,3)                  1.532          -DE/DX =    0.0                 !
 ! R6    R(2,4)                  1.5382         -DE/DX =    0.0                 !
 ! R7    R(2,5)                  1.4393         -DE/DX =    0.0                 !
 ! R8    R(3,9)                  1.0948         -DE/DX =    0.0                 !
 ! R9    R(3,10)                 1.0943         -DE/DX =    0.0                 !
 ! R10   R(3,11)                 1.0943         -DE/DX =    0.0                 !
 ! R11   R(4,12)                 1.0945         -DE/DX =    0.0                 !
 ! R12   R(4,13)                 1.0957         -DE/DX =    0.0                 !
 ! R13   R(4,14)                 1.0974         -DE/DX =    0.0                 !
 ! R14   R(5,15)                 0.9624         -DE/DX =    0.0                 !
 ! A1    A(2,1,6)              110.7737         -DE/DX =    0.0                 !
 ! A2    A(2,1,7)              111.1898         -DE/DX =    0.0                 !
 ! A3    A(2,1,8)              110.1995         -DE/DX =    0.0                 !
 ! A4    A(6,1,7)              107.7048         -DE/DX =    0.0                 !
 ! A5    A(6,1,8)              108.2624         -DE/DX =    0.0                 !
 ! A6    A(7,1,8)              108.6128         -DE/DX =    0.0                 !
 ! A7    A(1,2,3)              110.8592         -DE/DX =    0.0                 !
 ! A8    A(1,2,4)              110.7855         -DE/DX =    0.0                 !
 ! A9    A(1,2,5)              109.6126         -DE/DX =    0.0                 !
 ! A10   A(3,2,4)              110.8591         -DE/DX =    0.0                 !
 ! A11   A(3,2,5)              104.9502         -DE/DX =    0.0                 !
 ! A12   A(4,2,5)              109.6092         -DE/DX =    0.0                 !
 ! A13   A(2,3,9)              110.7402         -DE/DX =    0.0                 !
 ! A14   A(2,3,10)             110.1853         -DE/DX =    0.0                 !
 ! A15   A(2,3,11)             110.1832         -DE/DX =    0.0                 !
 ! A16   A(9,3,10)             108.6952         -DE/DX =    0.0                 !
 ! A17   A(9,3,11)             108.6949         -DE/DX =    0.0                 !
 ! A18   A(10,3,11)            108.2813         -DE/DX =    0.0                 !
 ! A19   A(2,4,12)             110.1977         -DE/DX =    0.0                 !
 ! A20   A(2,4,13)             111.1903         -DE/DX =    0.0                 !
 ! A21   A(2,4,14)             110.7757         -DE/DX =    0.0                 !
 ! A22   A(12,4,13)            108.6112         -DE/DX =    0.0                 !
 ! A23   A(12,4,14)            108.2645         -DE/DX =    0.0                 !
 ! A24   A(13,4,14)            107.7037         -DE/DX =    0.0                 !
 ! A25   A(2,5,15)             108.1817         -DE/DX =    0.0                 !
 ! D1    D(6,1,2,3)            178.1353         -DE/DX =    0.0                 !
 ! D2    D(6,1,2,4)            -58.346          -DE/DX =    0.0                 !
 ! D3    D(6,1,2,5)             62.7403         -DE/DX =    0.0                 !
 ! D4    D(7,1,2,3)            -62.1354         -DE/DX =    0.0                 !
[...]
 ! A9    A(1,2,5)              109.6126         -DE/DX =    0.0                 !
 ! A10   A(3,2,4)              110.8591         -DE/DX =    0.0                 !
 ! A11   A(3,2,5)              104.9502         -DE/DX =    0.0                 !
 ! A12   A(4,2,5)              109.6092         -DE/DX =    0.0                 !
 ! A13   A(2,3,9)              110.7402         -DE/DX =    0.0                 !
 ! A14   A(2,3,10)             110.1853         -DE/DX =    0.0                 !
 ! A15   A(2,3,11)             110.1832         -DE/DX =    0.0                 !
 ! A16   A(9,3,10)             108.6952         -DE/DX =    0.0                 !
 ! A17   A(9,3,11)             108.6949         -DE/DX =    0.0                 !
 ! A18   A(10,3,11)            108.2813         -DE/DX =    0.0                 !
 ! A19   A(2,4,12)             110.1977         -DE/DX =    0.0                 !
 ! A20   A(2,4,13)             111.1903         -DE/DX =    0.0                 !
 ! A21   A(2,4,14)             110.7757         -DE/DX =    0.0                 !
 ! A22   A(12,4,13)            108.6112         -DE/DX =    0.0                 !
 ! A23   A(12,4,14)            108.2645         -DE/DX =    0.0                 !
 ! A24   A(13,4,14)            107.7037         -DE/DX =    0.0                 !
 ! A25   A(2,5,15)             108.1817         -DE/DX =    0.0                 !
 ! D1    D(6,1,2,3)            178.1353         -DE/DX =    0.0                 !
 ! D2    D(6,1,2,4)            -58.346          -DE/DX =    0.0                 !
 ! D3    D(6,1,2,5)             62.7403         -DE/DX =    0.0                 !
 ! D4    D(7,1,2,3)            -62.1354         -DE/DX =    0.0                 !
 ! D5    D(7,1,2,4)             61.3833         -DE/DX =    0.0                 !
 ! D6    D(7,1,2,5)           -177.5304         -DE/DX =    0.0                 !
 ! D7    D(8,1,2,3)             58.3541         -DE/DX =    0.0                 !
 ! D8    D(8,1,2,4)           -178.1273         -DE/DX =    0.0                 !
 ! D9    D(8,1,2,5)            -57.0409         -DE/DX =    0.0                 !
 ! D10   D(1,2,3,9)             61.7265         -DE/DX =    0.0                 !
 ! D11   D(1,2,3,10)          -177.9829         -DE/DX =    0.0                 !
 ! D12   D(1,2,3,11)           -58.5624         -DE/DX =    0.0                 !
 ! D13   D(4,2,3,9)            -61.7499         -DE/DX =    0.0                 !
 ! D14   D(4,2,3,10)            58.5407         -DE/DX =    0.0                 !
 ! D15   D(4,2,3,11)           177.9612         -DE/DX =    0.0                 !
 ! D16   D(5,2,3,9)            179.9904         -DE/DX =    0.0                 !
 ! D17   D(5,2,3,10)           -59.719          -DE/DX =    0.0                 !
 ! D18   D(5,2,3,11)            59.7015         -DE/DX =    0.0                 !
 ! D19   D(1,2,4,12)           178.1397         -DE/DX =    0.0                 !
 ! D20   D(1,2,4,13)           -61.3738         -DE/DX =    0.0                 !
 ! D21   D(1,2,4,14)            58.3557         -DE/DX =    0.0                 !
 ! D22   D(3,2,4,12)           -58.3416         -DE/DX =    0.0                 !
 ! D23   D(3,2,4,13)            62.145          -DE/DX =    0.0                 !
 ! D24   D(3,2,4,14)          -178.1255         -DE/DX =    0.0                 !
 ! D25   D(5,2,4,12)            57.0514         -DE/DX =    0.0                 !
 ! D26   D(5,2,4,13)           177.5379         -DE/DX =    0.0                 !
 ! D27   D(5,2,4,14)           -62.7326         -DE/DX =    0.0                 !
 ! D28   D(1,2,5,15)           -60.9621         -DE/DX =    0.0                 !
 ! D29   D(3,2,5,15)           179.9341         -DE/DX =    0.0                 !
 ! D30   D(4,2,5,15)            60.8321         -DE/DX =    0.0                 !
 --------------------------------------------------------------------------------
 GradGradGradGradGradGradGradGradGradGradGradGradGradGradGradGradGradGrad

 Leave Link  103 at Mon Apr 27 06:10:48 2015, MaxMem=   524288000 cpu:         0.1
 (Enter /opt/g09/l9999.exe)
 1\1\GINC-DURER\Freq\RB971\6-311+G(d,p)\C4H10O1\PB556\27-Apr-2015\0\\#P
  Geom=AllCheck Guess=TCheck SCRF=Check GenChk RB971/6-311+G(d,p) Freq\
 \freq-b971_75-65-0.gau\\0,1\C,0.7799282941,1.1552273285,2.672799799\C,
 1.7360320422,1.760606253,1.6310095556\C,2.8118048526,2.6147559386,2.30
 92534324\C,2.3747177279,0.6574321366,0.7701944926\O,1.0137379864,2.675
 1349761,0.7862282835\H,-0.0094637742,0.5707865043,2.1833823214\H,1.312
 8604427,0.4869906582,3.3583286715\H,0.3059369132,1.9498015404,3.257489
 9908\H,3.4237488783,2.0052170368,2.9819502821\H,3.4637639311,3.0685975
 45,1.5565391608\H,2.3463651398,3.4175962979,2.8892628678\H,3.027201348
 2,1.1004578738,0.0113339902\H,2.9680727603,-0.0298079595,1.3834849265\
 H,1.6036625239,0.0673559522,0.2587710692\H,0.3216409334,2.1829379182,0
 .3334811565\\Version=ES64L-G09RevD.01\HF=-233.6684323\RMSD=2.250e-09\R
 MSF=2.904e-07\ZeroPoint=0.1346508\Thermal=0.1414428\Dipole=-0.0625063,
 -0.6567156,0.1185854\DipoleDeriv=-0.0065373,-0.0585127,0.1130319,-0.00
 18894,0.020705,0.0532318,0.0594485,0.0469995,-0.0451352,0.5243472,-0.1
 599865,0.0809456,-0.1247193,0.5349055,-0.1197304,0.071748,-0.149176,0.
 5771179,-0.0087363,-0.0341234,-0.0312111,-0.0779761,0.016836,-0.059518
 3,-0.0197103,-0.0227803,0.0285687,0.0147019,0.0499193,0.0412335,0.0790
 24,-0.0404499,-0.028712,0.0723858,-0.0942925,-0.0051757,-0.6096086,0.2
 703428,-0.0743249,0.234621,-0.5835133,0.1913622,-0.0650048,0.2211457,-
 0.7175623,-0.0697223,-0.1005481,-0.0441954,-0.1014664,-0.0024753,-0.03
 53316,-0.0978994,-0.0650086,-0.0145525,0.0032752,0.0796731,-0.0802829,
 0.0446418,-0.010458,0.0943317,-0.0370901,0.0840727,-0.0238334,0.020110
 7,0.0355265,0.0641659,0.0761666,-0.046635,-0.0981943,0.0627823,-0.0562
 994,-0.0068004,0.0038622,0.036048,-0.0680968,0.0791224,-0.016497,0.089
 9871,-0.0793675,0.0538682,-0.0068413,-0.0249987,-0.0685517,0.0599545,-
 0.0688975,0.0306674,0.0286421,0.1034469,0.0662197,-0.0348985,0.0167046
 ,0.0745351,0.0568011,0.0260774,-0.0477422,-0.0991831,0.026109,-0.09581
 75,0.0018507,-0.0138183,-0.0275134,0.0973083,-0.0615073,0.0192931,0.06
 8297,0.0969306,0.0208072,-0.0388405,0.0034388,0.0850904,-0.0476891,0.0
 774955,-0.0224282,0.044885,-0.079744,0.0908728,-0.0119697,-0.0778248,-
 0.099851,-0.0966022,-0.0560125,-0.0160136,-0.0701247,-0.054107,-0.0764
 721,0.0070872,0.2248056,-0.0820485,-0.0710384,-0.1246802,0.1638055,-0.
 0599426,-0.0599279,-0.0241393,0.2909851\Polar=56.2280762,1.0333099,55.
 2132989,-0.2753709,1.1326035,55.7101502\PG=C01 [X(C4H10O1)]\NImag=0\\0
 .52228138,-0.03285644,0.55422472,0.04636346,0.03106831,0.51406217,-0.1
 2067023,-0.02216014,0.04078053,0.49398265,-0.02860503,-0.08516729,0.01
 727746,0.03036299,0.47981109,0.04841943,0.01840663,-0.11500928,-0.0007
 6088,0.02701964,0.47758558,-0.02067240,-0.01734546,-0.00512606,-0.1236
 1572,-0.04139213,-0.02866496,0.52167795,-0.01414819,-0.00985664,-0.004
 38789,-0.05081081,-0.11330140,-0.03294706,-0.04559775,0.53962566,0.015
 98554,0.01094096,0.01126334,-0.02623117,-0.02506021,-0.09185701,-0.031
 83171,-0.02929175,0.55479729,-0.01153305,0.01381072,0.01888485,-0.0902
 8452,0.02013183,0.02305466,0.01064754,-0.01702732,-0.01203899,0.546273
 93,-0.00429387,0.01032422,0.00277452,0.02430240,-0.11790780,-0.0403402
 8,0.00329526,-0.01846047,-0.01660633,0.03414267,0.51016702,0.01429631,
 -0.01738290,-0.01699204,0.02790245,-0.04814571,-0.11286268,0.00457718,
 -0.01563602,-0.01146048,0.02363065,-0.05074124,0.53435766,0.00832541,-
 0.00785898,0.00535671,-0.09973113,0.04180504,-0.04085472,-0.02495760,0
 .01987455,-0.02807025,-0.01531800,0.02063709,-0.01639998,0.39560284,0.
 01390531,-0.01938564,0.02275131,0.00704314,-0.13412378,0.02416865,-0.0
 0681982,0.01093017,-0.00796944,0.02588662,-0.02971909,0.02403249,0.131
 16187,0.34957937,-0.01979371,0.02801572,-0.02663345,-0.03177782,0.0533
 4569,-0.10464064,-0.02109436,0.01441829,-0.01913642,0.00167362,-0.0038
 8189,0.00732468,0.24773452,0.03460410,0.25875966,-0.17529663,-0.095994
 79,-0.08271516,-0.01671733,-0.01010168,-0.01231917,-0.00174887,-0.0010
 4815,0.00454825,0.00052514,-0.00055290,-0.00131714,0.00189877,0.001736
 37,-0.00000720,0.19151940,-0.09614155,-0.11745417,-0.06224988,-0.00935
 593,-0.00831818,-0.00711948,-0.00122672,-0.00060029,0.00292440,0.00110
 831,0.00006141,-0.00032612,0.00108398,0.00087292,-0.00058073,0.1081038
 4,0.12553098,-0.08387699,-0.06202957,-0.10034230,0.01627760,0.01262593
 ,0.00876978,0.00236085,0.00169154,-0.00272281,-0.00021515,0.00075179,0
 .00130876,0.00093331,-0.00177219,0.00257464,0.09022564,0.06723597,0.10
 760930,-0.11055846,0.07883949,-0.07972311,0.01039659,-0.01036642,0.009
 76245,0.00049943,0.00010544,-0.00024157,0.00018961,0.00027338,-0.00035
 316,0.00025373,-0.00397737,0.00502817,-0.01121950,0.01458542,-0.013404
 28,0.11796406,0.07754180,-0.14148098,0.09840847,0.00864137,-0.00783749
 ,0.00438361,0.00068857,0.00007661,-0.00010394,0.00038986,-0.00002320,-
 0.00051940,-0.00191817,-0.00109652,0.00418065,-0.00855450,0.01116738,-
 0.01160383,-0.08573042,0.15201754,-0.07818188,0.09807275,-0.14663441,-
 0.01461737,0.01023425,-0.01093569,-0.00086728,-0.00054456,0.00038604,-
 0.00052990,-0.00019501,0.00043888,0.00267678,0.00421407,-0.00495314,-0
 .00637724,0.00889746,-0.00939669,0.08698772,-0.10935119,0.15753580,-0.
 09378149,0.08147725,0.05883575,-0.01059647,0.01697528,0.01035900,0.000
 61741,0.00145837,0.00019085,-0.00226726,-0.00300124,0.00255409,0.00121
 236,-0.00024724,-0.00210121,0.01058264,-0.01750778,-0.01245486,-0.0069
 9446,0.01039346,0.00879092,0.10109802,0.08309909,-0.18854329,-0.103270
 37,-0.00584804,0.00788941,0.00770700,0.00004135,0.00089083,0.00045484,
 -0.00129783,-0.00030155,0.00167002,-0.00062517,0.00159356,-0.00114824,
 0.00732346,-0.01176663,-0.00743932,0.00660035,-0.01324135,-0.01042611,
 -0.08907446,0.20276479,0.05819584,-0.10151840,-0.11886718,0.01009113,-
 0.01774927,-0.01311757,-0.00123553,-0.00061767,0.00039501,0.00264096,0
 .00331529,-0.00279708,-0.00174950,-0.00023051,0.00249312,0.00656216,-0
 .00992329,-0.00816158,-0.00869298,0.01542556,0.01195528,-0.06693076,0.
 11177424,0.12810816,0.00045359,0.00081154,-0.00003671,-0.01027371,0.01
 625541,-0.01069019,-0.12687337,0.07960951,-0.08880038,0.00036854,0.000
 75976,0.00052348,-0.00441839,-0.00326007,-0.00327489,0.00036548,-0.000
 10506,0.00020412,-0.00026475,-0.00079657,0.00044783,-0.00008390,-0.000
 02191,-0.00007318,0.13656538,0.00027159,0.00028614,0.00008987,-0.00834
 373,0.00968089,-0.01023714,0.08227673,-0.13030169,0.09110466,0.0001716
 0,0.00035341,0.00006070,-0.00374912,-0.00092065,-0.00277395,0.00024002
 ,0.00015250,-0.00014749,-0.00035396,0.00005414,0.00003022,-0.00000761,
 -0.00005698,0.00013473,-0.08862847,0.13969076,0.00062612,0.00041697,0.
 00004572,-0.00421470,0.01037974,-0.00888327,-0.08951054,0.08887089,-0.
 14413068,0.00014118,0.00068344,0.00008434,-0.00314153,-0.00236160,-0.0
 0151944,0.00011110,-0.00019248,0.00000134,0.00011060,-0.00012818,0.000
 54346,0.00006107,-0.00011519,0.00004130,0.09965801,-0.09896872,0.15486
 041,-0.00282937,-0.00219978,-0.00367419,-0.01533471,-0.00979425,0.0177
 3362,-0.13699358,-0.06269433,0.10726568,0.00046599,0.00123917,0.000732
 32,0.00180008,0.00059655,0.00042029,-0.00090786,-0.00097923,0.00092672
 ,0.00022247,-0.00008763,0.00008517,0.00032732,0.00012745,-0.00025337,0
 .01204673,0.00754580,-0.01325295,0.14837255,-0.00224558,-0.00169764,-0
 .00282193,-0.01072825,-0.00943399,0.01446150,-0.06319513,-0.09008002,0
 .07364442,-0.00017450,0.00041459,0.00137991,0.00175560,0.00084934,0.00
 002719,-0.00114044,-0.00013502,0.00076377,0.00023420,0.00020067,-0.000
 27003,-0.00018194,0.00014353,0.00011684,-0.01107679,-0.00757271,0.0112
 3313,0.07209820,0.09664738,-0.00199676,-0.00129777,-0.00074946,-0.0093
 2590,-0.00642968,0.00898019,0.10942405,0.07548843,-0.17447305,-0.00048
 054,0.00008575,0.00098267,0.00090931,-0.00033208,0.00112076,-0.0005542
 4,-0.00031575,0.00075479,-0.00002684,-0.00022604,0.00000941,-0.0002557
 1,0.00002981,-0.00000319,0.01162276,0.00626761,-0.01288252,-0.11815590
 ,-0.08071063,0.18728764,0.00137574,-0.00011321,-0.00069445,0.00929008,
 -0.01794679,-0.01282554,-0.09680899,0.08506538,0.06185829,-0.00319858,
 -0.00205056,-0.00196765,0.00144018,0.00008967,0.00142188,0.00015802,0.
 00025327,-0.00001892,-0.00006644,0.00001186,0.00010687,-0.00024659,0.0
 0000963,0.00019932,-0.00788910,0.01143206,0.01007574,-0.00827619,0.014
 10001,0.00856416,0.10338140,0.00129515,0.00029648,-0.00025863,0.009715
 09,-0.01569792,-0.00957178,0.08259933,-0.18566418,-0.10101862,-0.00399
 451,-0.00116144,-0.00112953,0.00043573,0.00145442,0.00142365,-0.000052
 79,0.00042405,0.00022876,-0.00005193,-0.00006954,-0.00006264,-0.000919
 18,0.00007972,0.00049956,0.00637867,-0.01229233,-0.00944559,-0.0061356
 0,0.01073173,0.00742821,-0.08963076,0.20207660,0.00052323,0.00105450,0
 .00019577,0.00724678,-0.01106951,-0.00937464,0.06045167,-0.10041164,-0
 .11905487,-0.00312378,-0.00098617,-0.00091666,0.00054114,0.00051858,0.
 00087266,-0.00007349,0.00014827,-0.00007275,-0.00007051,0.00013460,0.0
 0002371,-0.00019585,0.00003776,0.00061953,-0.00860002,0.01537576,0.011
 77071,0.00892755,-0.01681990,-0.01138795,-0.06596628,0.11266163,0.1268
 1449,-0.00065650,0.00318305,0.00111691,-0.00949284,-0.00651854,0.01002
 235,0.00026744,-0.00047181,-0.00102943,-0.13880753,-0.06507861,0.10677
 666,0.00127107,-0.00075703,-0.00172738,0.00043415,0.00013741,-0.000251
 95,0.00014504,-0.00017828,0.00008841,-0.00026082,-0.00027379,0.0010009
 8,0.00003025,0.00007303,-0.00012481,0.00063736,0.00017503,-0.00001068,
 -0.00004799,0.00007952,-0.00015955,0.14865641,0.00181966,-0.00336133,-
 0.00220043,0.01471711,0.00870297,-0.01711074,0.00079028,0.00129871,0.0
 0007787,-0.06634964,-0.09177422,0.07677827,-0.00178376,0.00210919,0.00
 009119,0.00020189,-0.00007078,0.00008675,-0.00014647,-0.00001632,-0.00
 015768,0.00098883,0.00067486,-0.00103992,-0.00012486,-0.00006148,0.000
 02329,-0.00026103,-0.00023804,-0.00000522,0.00003651,0.00012726,0.0002
 4845,0.07105799,0.09813828,0.00094124,-0.00413273,-0.00134815,0.010715
 34,0.00968868,-0.01501479,0.00045095,0.00129718,0.00034068,0.10731678,
 0.07471412,-0.17059051,-0.00171455,0.00034758,0.00193076,0.00012358,0.
 00009382,0.00016555,-0.00026688,-0.00009358,0.00036433,0.00117163,0.00
 041340,-0.00067607,0.00006747,-0.00004729,-0.00006764,-0.00054157,-0.0
 0088161,0.00004706,-0.00023109,-0.00006184,0.00039003,-0.11920944,-0.0
 8065032,0.18512144,0.00009731,-0.00027984,-0.00032902,-0.00747169,0.00
 495734,-0.00977147,0.00004405,-0.00065270,-0.00041437,-0.12160354,0.08
 781632,-0.07845150,-0.00132205,0.00396634,0.00147851,-0.00003620,0.000
 16308,0.00001972,-0.00006437,-0.00007459,0.00087989,0.00022111,-0.0002
 3093,0.00008544,0.00048919,-0.00014911,0.00008820,0.00003601,-0.000070
 27,0.00010576,-0.00006734,-0.00010346,0.00015256,0.01166264,-0.0124796
 5,0.01070409,0.12952200,-0.00051488,0.00043836,0.00058964,0.00904022,-
 0.01101241,0.01661216,0.00002923,0.00057361,0.00093007,0.08752563,-0.1
 4639267,0.09027129,0.00489750,-0.00554922,-0.00225655,-0.00008589,0.00
 001193,-0.00011849,0.00009721,0.00057482,-0.00052613,-0.00028001,0.000
 03411,-0.00011114,-0.00044019,-0.00022241,-0.00084511,0.00007163,-0.00
 009398,-0.00003207,-0.00013710,0.00035001,-0.00011540,0.00731741,-0.00
 814588,0.00608542,-0.09730209,0.15821903,-0.00013722,0.00037879,0.0000
 7218,0.00853058,-0.00860218,0.01007072,-0.00011262,0.00031335,0.000356
 63,-0.07954053,0.09191897,-0.13077890,0.00305029,-0.00479531,0.0010754
 6,0.00004361,0.00006740,-0.00006458,0.00053217,-0.00020830,-0.00023506
 ,-0.00024901,0.00002010,0.00023777,-0.00004894,-0.00039536,0.00000101,
 -0.00012507,-0.00000602,-0.00005559,0.00013320,0.00022643,0.00014960,-
 0.01294633,0.01217420,-0.01179438,0.08751493,-0.10001865,0.13996752,0.
 00102366,0.00034734,-0.00012285,0.00770129,0.00839020,0.00631065,-0.00
 023400,0.00179832,0.00123796,-0.17608257,-0.09614731,-0.08367913,0.002
 21591,-0.00130729,0.00149845,0.00012698,0.00011128,-0.00004657,-0.0000
 5352,-0.00009353,0.00009073,0.00019684,0.00000898,-0.00016656,0.000014
 86,0.00001905,0.00024819,0.00004825,0.00031966,-0.00001240,0.00069845,
 0.00037503,0.00022128,-0.01332743,-0.00863318,-0.00956519,-0.01240699,
 -0.00966589,-0.00680122,0.19012784,-0.00077845,0.00032551,0.00136694,-
 0.01864293,-0.01360474,-0.01097189,0.00358747,-0.00314057,-0.00235130,
 -0.09605654,-0.11731298,-0.06173370,-0.00055630,0.00229955,0.00076904,
 0.00063997,0.00060256,-0.00012121,0.00012142,0.00002963,0.00010860,0.0
 0011833,0.00001835,0.00029458,-0.00009621,0.00025243,-0.00011582,0.000
 26650,0.00031359,0.00015356,-0.00106302,-0.00073807,-0.00105615,-0.008
 57438,-0.00724258,-0.00664462,0.01480223,0.01156064,0.00921364,0.10509
 443,0.12751771,-0.00135421,-0.00014390,0.00053842,-0.01539710,-0.00863
 563,-0.01037051,0.00300425,-0.00246947,-0.00169679,-0.08253788,-0.0619
 5626,-0.09966677,0.00051759,0.00187624,0.00082725,0.00096255,0.0001900
 5,-0.00013344,-0.00000730,-0.00009322,-0.00006492,0.00019738,0.0002648
 5,0.00031290,0.00027502,0.00022506,0.00025180,-0.00013319,-0.00013893,
 0.00014695,-0.00092516,-0.00106443,-0.00024823,0.01593404,0.01163404,0
 .01122614,-0.01222504,-0.01019915,-0.00860868,0.09128883,0.07102181,0.
 10694946,0.00244104,0.00033926,0.00108334,-0.01718225,-0.01415325,-0.0
 0977521,-0.00184929,0.00453950,-0.00242870,0.00062430,-0.00134155,0.00
 117541,-0.26827316,-0.16801704,-0.17947887,0.00031579,-0.00023029,-0.0
 0067924,-0.00044943,-0.00023324,0.00041934,-0.00002470,0.00016182,0.00
 032604,-0.00053082,-0.00079791,-0.00087567,0.00038495,0.00013019,0.000
 19292,0.00025735,0.00000970,0.00012528,-0.00051127,0.00016633,0.000037
 65,0.00089986,-0.00055278,0.00015616,-0.00004959,0.00113747,0.00040023
 ,0.28394722,0.00165142,0.00105154,0.00086262,0.02206749,0.01032064,0.0
 1553918,0.00226878,-0.00199032,0.00232437,0.00173310,0.00173278,0.0014
 2195,-0.20515985,-0.17889361,-0.12623415,-0.00071441,-0.00047867,-0.00
 015240,-0.00023036,-0.00035537,-0.00002400,-0.00019207,-0.00017934,-0.
 00037060,0.00073526,0.00095799,0.00056523,0.00020656,-0.00004940,-0.00
 010414,-0.00005694,0.00008320,0.00027923,-0.00017100,-0.00014062,-0.00
 012824,-0.00036266,-0.00034595,-0.00028707,-0.00061709,-0.00088101,-0.
 00051107,0.17884178,0.16916815,-0.00001039,-0.00184937,0.00039868,-0.0
 1921947,-0.01487920,-0.01334018,-0.00182589,0.00422638,-0.00300687,0.0
 0112407,0.00046329,0.00156814,-0.16978910,-0.09505189,-0.12009589,0.00
 078676,0.00115038,-0.00029002,0.00036550,-0.00020521,0.00096299,0.0000
 2671,0.00002722,-0.00054041,-0.00127437,-0.00071867,-0.00011653,0.0000
 4489,0.00002228,0.00022229,0.00026962,0.00014481,0.00021861,0.00052024
 ,0.00005026,-0.00009444,0.00016230,-0.00026589,-0.00039370,-0.00050217
 ,0.00006652,0.00053643,0.18932131,0.10681908,0.13397091\\-0.00000023,0
 .00000039,-0.00000010,0.00000010,0.00000002,-0.00000005,0.00000022,-0.
 00000024,0.00000002,-0.00000015,-0.00000024,0.00000016,0.00000045,0.00
 000015,-0.00000019,-0.00000036,0.00000057,-0.00000014,-0.00000052,0.00
 000029,0.00000004,-0.00000009,0.00000059,-0.00000022,-0.00000002,-0.00
 000036,0.00000017,0.00000046,-0.00000049,0.00000007,0.00000039,-0.0000
 0004,-0.00000010,0.00000008,-0.00000051,0.00000019,-0.00000042,-0.0000
 0037,0.00000029,-0.00000026,-0.00000007,0.00000011,0.00000035,0.000000
 31,-0.00000025\\\@


 THE CHYMISTS ARE A STRANGE CLASS OF MORTALS IMPELLED
 BY AN ALMOST INSANE IMPULSE TO SEEK THEIR PLEASURE
 AMONG SMOKE AND VAPOR, SOOT AND FLAME, POISONS AND
 POVERTY; YET AMONG ALL THESE EVILS I SEEM TO LIVE
 SO SWEETLY, THAT I MAY DIE IF I WOULD CHANGE PLACES
 WITH THE PERSIAN KING.
   --  JOHANN JOACHIM BECHER, 1635-1682
 ACTA LABORATORII CHYMICA MONACENSIS, 1669
 Job cpu time:       0 days  0 hours 31 minutes  6.6 seconds.
 File lengths (MBytes):  RWF=     45 Int=      0 D2E=      0 Chk=      3 Scr=      1
 Normal termination of Gaussian 09 at Mon Apr 27 06:10:48 2015.
