 Entering Gaussian System, Link 0=g09
 Initial command:
 /usr/local/Cluster-Apps/gaussian/g09/l1.exe "/rds/user/am2145/hpc-work/scratch/46088835/Gau-51634.inp" -scrdir="/rds/user/am2145/hpc-work/scratch/46088835/"
 Entering Link 1 = /usr/local/Cluster-Apps/gaussian/g09/l1.exe PID=     51635.
  
 Copyright (c) 1988,1990,1992,1993,1995,1998,2003,2009,2013,
            Gaussian, Inc.  All Rights Reserved.
  
 This is part of the Gaussian(R) 09 program.  It is based on
 the Gaussian(R) 03 system (copyright 2003, Gaussian, Inc.),
 the Gaussian(R) 98 system (copyright 1998, Gaussian, Inc.),
 the Gaussian(R) 94 system (copyright 1995, Gaussian, Inc.),
 the Gaussian 92(TM) system (copyright 1992, Gaussian, Inc.),
 the Gaussian 90(TM) system (copyright 1990, Gaussian, Inc.),
 the Gaussian 88(TM) system (copyright 1988, Gaussian, Inc.),
 the Gaussian 86(TM) system (copyright 1986, Carnegie Mellon
 University), and the Gaussian 82(TM) system (copyright 1983,
 Carnegie Mellon University). Gaussian is a federally registered
 trademark of Gaussian, Inc.
  
 This software contains proprietary and confidential information,
 including trade secrets, belonging to Gaussian, Inc.
  
 This software is provided under written license and may be
 used, copied, transmitted, or stored only in accord with that
 written license.
  
 The following legend is applicable only to US Government
 contracts under FAR:
  
                    RESTRICTED RIGHTS LEGEND
  
 Use, reproduction and disclosure by the US Government is
 subject to restrictions as set forth in subparagraphs (a)
 and (c) of the Commercial Computer Software - Restricted
 Rights clause in FAR 52.227-19.
  
 Gaussian, Inc.
 340 Quinnipiac St., Bldg. 40, Wallingford CT 06492
  
  
 ---------------------------------------------------------------
 Warning -- This program may not be used in any manner that
 competes with the business of Gaussian, Inc. or will provide
 assistance to any competitor of Gaussian, Inc.  The licensee
 of this program is prohibited from giving any competitor of
 Gaussian, Inc. access to this program.  By using this program,
 the user acknowledges that Gaussian, Inc. is engaged in the
 business of creating and licensing software in the field of
 computational chemistry and represents and warrants to the
 licensee that it is not a competitor of Gaussian, Inc. and that
 it will not use this program in any manner prohibited above.
 ---------------------------------------------------------------
  

 Cite this work as:
 Gaussian 09, Revision D.01,
 M. J. Frisch, G. W. Trucks, H. B. Schlegel, G. E. Scuseria, 
 M. A. Robb, J. R. Cheeseman, G. Scalmani, V. Barone, B. Mennucci, 
 G. A. Petersson, H. Nakatsuji, M. Caricato, X. Li, H. P. Hratchian, 
 A. F. Izmaylov, J. Bloino, G. Zheng, J. L. Sonnenberg, M. Hada, 
 M. Ehara, K. Toyota, R. Fukuda, J. Hasegawa, M. Ishida, T. Nakajima, 
 Y. Honda, O. Kitao, H. Nakai, T. Vreven, J. A. Montgomery, Jr., 
 J. E. Peralta, F. Ogliaro, M. Bearpark, J. J. Heyd, E. Brothers, 
 K. N. Kudin, V. N. Staroverov, T. Keith, R. Kobayashi, J. Normand, 
 K. Raghavachari, A. Rendell, J. C. Burant, S. S. Iyengar, J. Tomasi, 
 M. Cossi, N. Rega, J. M. Millam, M. Klene, J. E. Knox, J. B. Cross, 
 V. Bakken, C. Adamo, J. Jaramillo, R. Gomperts, R. E. Stratmann, 
 O. Yazyev, A. J. Austin, R. Cammi, C. Pomelli, J. W. Ochterski, 
 R. L. Martin, K. Morokuma, V. G. Zakrzewski, G. A. Voth, 
 P. Salvador, J. J. Dannenberg, S. Dapprich, A. D. Daniels, 
 O. Farkas, J. B. Foresman, J. V. Ortiz, J. Cioslowski, 
 and D. J. Fox, Gaussian, Inc., Wallingford CT, 2013.
 
 ******************************************
 Gaussian 09:  ES64L-G09RevD.01 24-Apr-2013
                 3-Sep-2021 
 ******************************************
 %NProcShared=20
 Will use up to   20 processors via shared memory.
 %mem=32GB
 %Chk=ethane_scan.chk
 ------------------------------------
 #n B3LYP/6-31G(d,p) Opt=ModRedundant
 ------------------------------------
 1/14=-1,18=120,19=15,26=3,38=1/1,3;
 2/9=110,12=2,17=6,18=5,40=1/2;
 3/5=1,6=6,7=101,11=2,16=1,25=1,30=1,71=1,74=-5/1,2,3;
 4//1;
 5/5=2,38=5/2;
 6/7=2,8=2,9=2,10=2,28=1/1;
 7//1,2,3,16;
 1/14=-1,18=20,19=15,26=3/3(2);
 2/9=110/2;
 99//99;
 2/9=110/2;
 3/5=1,6=6,7=101,11=2,16=1,25=1,30=1,71=1,74=-5/1,2,3;
 4/5=5,16=3,69=1/1;
 5/5=2,38=5/2;
 7//1,2,3,16;
 1/14=-1,18=20,19=15,26=3/3(-5);
 2/9=110/2;
 6/7=2,8=2,9=2,10=2,19=2,28=1/1;
 99/9=1/99;
 -----------
 ethane_scan
 -----------
 Symbolic Z-matrix:
 Charge =  0 Multiplicity = 1
 C                     0.96447  -0.03774  -0.08777 
 C                     2.49647  -0.03774  -0.08777 
 H                     0.60781  -0.43619  -1.01455 
 H                     0.60781   0.96411   0.03054 
 H                     0.6078   -0.64112   0.72069 
 H                     2.85314   0.56565  -0.89624 
 H                     2.85314  -1.03958  -0.20609 
 H                     2.85314   0.36072   0.83901 
 
 The following ModRedundant input section has been read:
 D       4       1       2       8 S  12 30.000                                
 

 GradGradGradGradGradGradGradGradGradGradGradGradGradGradGradGradGradGrad
 Berny optimization.
 Initialization pass.
                           ----------------------------
                           !    Initial Parameters    !
                           ! (Angstroms and Degrees)  !
 --------------------------                            --------------------------
 ! Name  Definition              Value          Derivative Info.                !
 --------------------------------------------------------------------------------
 ! R1    R(1,2)                  1.532          estimate D2E/DX2                !
 ! R2    R(1,3)                  1.07           estimate D2E/DX2                !
 ! R3    R(1,4)                  1.07           estimate D2E/DX2                !
 ! R4    R(1,5)                  1.07           estimate D2E/DX2                !
 ! R5    R(2,6)                  1.07           estimate D2E/DX2                !
 ! R6    R(2,7)                  1.07           estimate D2E/DX2                !
 ! R7    R(2,8)                  1.07           estimate D2E/DX2                !
 ! A1    A(2,1,3)              109.4709         estimate D2E/DX2                !
 ! A2    A(2,1,4)              109.4708         estimate D2E/DX2                !
 ! A3    A(2,1,5)              109.4715         estimate D2E/DX2                !
 ! A4    A(3,1,4)              109.471          estimate D2E/DX2                !
 ! A5    A(3,1,5)              109.4717         estimate D2E/DX2                !
 ! A6    A(4,1,5)              109.4715         estimate D2E/DX2                !
 ! A7    A(1,2,6)              109.4713         estimate D2E/DX2                !
 ! A8    A(1,2,7)              109.4714         estimate D2E/DX2                !
 ! A9    A(1,2,8)              109.4714         estimate D2E/DX2                !
 ! A10   A(6,2,7)              109.4709         estimate D2E/DX2                !
 ! A11   A(6,2,8)              109.471          estimate D2E/DX2                !
 ! A12   A(7,2,8)              109.4714         estimate D2E/DX2                !
 ! D1    D(3,1,2,6)             59.9996         estimate D2E/DX2                !
 ! D2    D(3,1,2,7)            -60.0001         estimate D2E/DX2                !
 ! D3    D(3,1,2,8)            179.9995         estimate D2E/DX2                !
 ! D4    D(4,1,2,6)            -59.9997         estimate D2E/DX2                !
 ! D5    D(4,1,2,7)           -179.9994         estimate D2E/DX2                !
 ! D6    D(4,1,2,8)             60.0002         Scan                            !
 ! D7    D(5,1,2,6)           -179.9999         estimate D2E/DX2                !
 ! D8    D(5,1,2,7)             60.0004         estimate D2E/DX2                !
 ! D9    D(5,1,2,8)            -60.0            estimate D2E/DX2                !
 --------------------------------------------------------------------------------
 Trust Radius=3.00D-01 FncErr=1.00D-07 GrdErr=1.00D-06
 Number of optimizations in scan=  13
 Number of steps in this run=     38 maximum allowed number of steps=    100.
 GradGradGradGradGradGradGradGradGradGradGradGradGradGradGradGradGradGrad

                          Input orientation:                          
 ---------------------------------------------------------------------
 Center     Atomic      Atomic             Coordinates (Angstroms)
 Number     Number       Type             X           Y           Z
 ---------------------------------------------------------------------
      1          6           0        0.964470   -0.037740   -0.087770
      2          6           0        2.496470   -0.037740   -0.087770
      3          1           0        0.607810   -0.436190   -1.014550
      4          1           0        0.607810    0.964110    0.030540
      5          1           0        0.607800   -0.641120    0.720690
      6          1           0        2.853140    0.565650   -0.896240
      7          1           0        2.853140   -1.039580   -0.206090
      8          1           0        2.853140    0.360720    0.839010
 ---------------------------------------------------------------------
                    Distance matrix (angstroms):
                    1          2          3          4          5
     1  C    0.000000
     2  C    1.532000   0.000000
     3  H    1.069995   2.141196   0.000000
     4  H    1.070003   2.141200   1.747299   0.000000
     5  H    1.069995   2.141203   1.747299   1.747304   0.000000
     6  H    2.141209   1.070008   2.461542   2.461544   3.018660
     7  H    2.141205   1.069998   2.461543   3.018654   2.461553
     8  H    2.141207   1.070002   3.018652   2.461546   2.461551
                    6          7          8
     6  H    0.000000
     7  H    1.747304   0.000000
     8  H    1.747309   1.747305   0.000000
 This structure is nearly, but not quite of a higher symmetry.
 Consider Symm=Loose if the higher symmetry is desired.
 Stoichiometry    C2H6
 Framework group  C1[X(C2H6)]
 Deg. of freedom    18
 Full point group                 C1      NOp   1
 Largest Abelian subgroup         C1      NOp   1
 Largest concise Abelian subgroup C1      NOp   1
                         Standard orientation:                         
 ---------------------------------------------------------------------
 Center     Atomic      Atomic             Coordinates (Angstroms)
 Number     Number       Type             X           Y           Z
 ---------------------------------------------------------------------
      1          6           0        0.606955   -0.213060   -0.415896
      2          6           0       -0.606954    0.213062    0.415892
      3          1           0        0.378470   -1.115077   -0.944147
      4          1           0        1.441991   -0.380796    0.231782
      5          1           0        0.848236    0.559066   -1.116248
      6          1           0       -0.848234   -0.559075    1.116252
      7          1           0       -1.441996    0.380790   -0.231772
      8          1           0       -0.378472    1.115080    0.944157
 ---------------------------------------------------------------------
 Rotational constants (GHZ):     82.1231325     20.3941756     20.3941674
 Standard basis: 6-31G(d,p) (6D, 7F)
 There are    60 symmetry adapted cartesian basis functions of A   symmetry.
 There are    60 symmetry adapted basis functions of A   symmetry.
    60 basis functions,    98 primitive gaussians,    60 cartesian basis functions
     9 alpha electrons        9 beta electrons
       nuclear repulsion energy        42.7690000456 Hartrees.
 NAtoms=    8 NActive=    8 NUniq=    8 SFac= 1.00D+00 NAtFMM=   60 NAOKFM=F Big=F
 Integral buffers will be    131072 words long.
 Raffenetti 2 integral format.
 Two-electron integral symmetry is turned on.
 One-electron integrals computed using PRISM.
 NBasis=    60 RedAO= T EigKep=  7.64D-03  NBF=    60
 NBsUse=    60 1.00D-06 EigRej= -1.00D+00 NBFU=    60
 ExpMin= 1.61D-01 ExpMax= 3.05D+03 ExpMxC= 4.57D+02 IAcc=1 IRadAn=         1 AccDes= 0.00D+00
 Harris functional with IExCor=  402 and IRadAn=       1 diagonalized for initial guess.
 HarFok:  IExCor=  402 AccDes= 0.00D+00 IRadAn=         1 IDoV= 1 UseB2=F ITyADJ=14
 ICtDFT=  3500011 ScaDFX=  1.000000  1.000000  1.000000  1.000000
 FoFCou: FMM=F IPFlag=           0 FMFlag=      100000 FMFlg1=           0
         NFxFlg=           0 DoJE=T BraDBF=F KetDBF=T FulRan=T
         wScrn=  0.000000 ICntrl=     500 IOpCl=  0 I1Cent=   200000004 NGrid=           0
         NMat0=    1 NMatS0=      1 NMatT0=    0 NMatD0=    1 NMtDS0=    0 NMtDT0=    0
 Petite list used in FoFCou.
 Keep R1 ints in memory in canonical form, NReq=2587875.
 Requested convergence on RMS density matrix=1.00D-08 within 128 cycles.
 Requested convergence on MAX density matrix=1.00D-06.
 Requested convergence on             energy=1.00D-06.
 No special actions if energy rises.
 Integral accuracy reduced to 1.0D-05 until final iterations.
 Initial convergence to 1.0D-05 achieved.  Increase integral accuracy.
 SCF Done:  E(RB3LYP) =  -79.8355300376     A.U. after   10 cycles
            NFock= 10  Conv=0.23D-08     -V/T= 2.0080

 **********************************************************************

            Population analysis using the SCF density.

 **********************************************************************

 Orbital symmetries:
       Occupied  (A) (A) (A) (A) (A) (A) (A) (A) (A)
       Virtual   (A) (A) (A) (A) (A) (A) (A) (A) (A) (A) (A) (A)
                 (A) (A) (A) (A) (A) (A) (A) (A) (A) (A) (A) (A)
                 (A) (A) (A) (A) (A) (A) (A) (A) (A) (A) (A) (A)
                 (A) (A) (A) (A) (A) (A) (A) (A) (A) (A) (A) (A)
                 (A) (A) (A)
 The electronic state is 1-A.
 Alpha  occ. eigenvalues --  -10.16289 -10.16268  -0.75348  -0.61458  -0.43764
 Alpha  occ. eigenvalues --   -0.43763  -0.35327  -0.34471  -0.34471
 Alpha virt. eigenvalues --    0.10674   0.16701   0.17603   0.17603   0.19220
 Alpha virt. eigenvalues --    0.19220   0.23867   0.50619   0.54091   0.54092
 Alpha virt. eigenvalues --    0.60413   0.60414   0.66790   0.88040   0.88040
 Alpha virt. eigenvalues --    0.89884   0.91505   0.91505   0.98376   1.07646
 Alpha virt. eigenvalues --    1.32299   1.32299   1.44875   1.69451   1.69451
 Alpha virt. eigenvalues --    1.88238   2.05806   2.05891   2.09369   2.09370
 Alpha virt. eigenvalues --    2.10129   2.10129   2.30630   2.30630   2.34384
 Alpha virt. eigenvalues --    2.52410   2.52411   2.69743   2.74689   2.85540
 Alpha virt. eigenvalues --    2.85540   2.97494   2.97494   3.23251   3.32162
 Alpha virt. eigenvalues --    3.41863   3.41863   3.57951   3.57951   4.33418
 Alpha virt. eigenvalues --    4.59021
          Condensed to atoms (all electrons):
               1          2          3          4          5          6
     1  C    4.867998   0.373331   0.396727   0.396726   0.396728  -0.037113
     2  C    0.373331   4.868002  -0.037113  -0.037114  -0.037113   0.396726
     3  H    0.396727  -0.037113   0.601781  -0.032306  -0.032304  -0.004498
     4  H    0.396726  -0.037114  -0.032306   0.601786  -0.032305  -0.004497
     5  H    0.396728  -0.037113  -0.032304  -0.032305   0.601779   0.005485
     6  H   -0.037113   0.396726  -0.004498  -0.004497   0.005485   0.601784
     7  H   -0.037114   0.396726  -0.004498   0.005485  -0.004497  -0.032306
     8  H   -0.037112   0.396726   0.005485  -0.004498  -0.004498  -0.032304
               7          8
     1  C   -0.037114  -0.037112
     2  C    0.396726   0.396726
     3  H   -0.004498   0.005485
     4  H    0.005485  -0.004498
     5  H   -0.004497  -0.004498
     6  H   -0.032306  -0.032304
     7  H    0.601785  -0.032306
     8  H   -0.032306   0.601782
 Mulliken charges:
               1
     1  C   -0.320171
     2  C   -0.320172
     3  H    0.106725
     4  H    0.106723
     5  H    0.106725
     6  H    0.106722
     7  H    0.106724
     8  H    0.106724
 Sum of Mulliken charges =   0.00000
 Mulliken charges with hydrogens summed into heavy atoms:
               1
     1  C    0.000002
     2  C   -0.000002
 Electronic spatial extent (au):  <R**2>=            106.9811
 Charge=              0.0000 electrons
 Dipole moment (field-independent basis, Debye):
    X=              0.0000    Y=              0.0000    Z=              0.0000  Tot=              0.0000
 Quadrupole moment (field-independent basis, Debye-Ang):
   XX=            -15.0647   YY=            -14.5832   ZZ=            -14.7734
   XY=              0.1928   XZ=              0.3763   YZ=             -0.1321
 Traceless Quadrupole moment (field-independent basis, Debye-Ang):
   XX=             -0.2576   YY=              0.2239   ZZ=              0.0337
   XY=              0.1928   XZ=              0.3763   YZ=             -0.1321
 Octapole moment (field-independent basis, Debye-Ang**2):
  XXX=              0.0000  YYY=              0.0000  ZZZ=             -0.0001  XYY=              0.0000
  XXY=              0.0000  XXZ=              0.0000  XZZ=              0.0000  YZZ=              0.0000
  YYZ=              0.0000  XYZ=              0.0000
 Hexadecapole moment (field-independent basis, Debye-Ang**3):
 XXXX=            -65.4388 YYYY=            -32.5079 ZZZZ=            -46.3591 XXXY=              6.2230
 XXXZ=             14.2642 YYYX=              6.9136 YYYZ=             -3.7212 ZZZX=             12.6049
 ZZZY=             -4.8931 XXYY=            -16.8435 XXZZ=            -18.5720 YYZZ=            -12.0566
 XXYZ=             -2.2073 YYXZ=              3.9586 ZZXY=              2.6564
 N-N= 4.276900004560D+01 E-N=-2.695317895736D+02  KE= 7.919800672327D+01
 Calling FoFJK, ICntrl=      2127 FMM=F ISym2X=0 I1Cent= 0 IOpClX= 0 NMat=1 NMatS=1 NMatT=0.
 ***** Axes restored to original set *****
 -------------------------------------------------------------------
 Center     Atomic                   Forces (Hartrees/Bohr)
 Number     Number              X              Y              Z
 -------------------------------------------------------------------
      1        6           0.022038026    0.000002619    0.000009601
      2        6          -0.022033012    0.000008495   -0.000012864
      3        1          -0.009795216   -0.005682964   -0.013220756
      4        1          -0.009772889    0.014281420    0.001695617
      5        1          -0.009764972   -0.008611445    0.011526388
      6        1           0.009761429    0.008606402   -0.011519299
      7        1           0.009773541   -0.014285007   -0.001695239
      8        1           0.009793093    0.005680480    0.013216553
 -------------------------------------------------------------------
 Cartesian Forces:  Max     0.022038026 RMS     0.010774641

 GradGradGradGradGradGradGradGradGradGradGradGradGradGradGradGradGradGrad
 Berny optimization.
 FormGI is forming the generalized inverse of G from B-inverse, IUseBI=4.
 Internal  Forces:  Max     0.016836094 RMS     0.008432238
 Search for a local minimum.
 Step number   1 out of a maximum of   38 on scan point     1 out of    13
 All quantities printed in internal units (Hartrees-Bohrs-Radians)
 Mixed Optimization -- RFO/linear search
 Second derivative matrix not updated -- first step.
 ITU=  0
     Eigenvalues ---    0.01852   0.05789   0.05789   0.05789   0.16000
     Eigenvalues ---    0.16000   0.16000   0.16000   0.16000   0.16000
     Eigenvalues ---    0.29239   0.37229   0.37230   0.37230   0.37230
     Eigenvalues ---    0.37231   0.372311000.000001000.000001000.00000
     Eigenvalues --- 1000.000001000.000001000.000001000.000001000.00000
     Eigenvalues --- 1000.000001000.000001000.00000
 RFO step:  Lambda=-6.10912513D-03 EMin= 1.85179636D-02
 Linear search not attempted -- first point.
 Iteration  1 RMS(Cart)=  0.03782293 RMS(Int)=  0.00039997
 Iteration  2 RMS(Cart)=  0.00042324 RMS(Int)=  0.00023937
 Iteration  3 RMS(Cart)=  0.00000023 RMS(Int)=  0.00023937
 Iteration  1 RMS(Cart)=  0.00000005 RMS(Int)=  0.00000009
 Variable       Old X    -DE/DX   Delta X   Delta X   Delta X     New X
                                 (Linear)    (Quad)   (Total)
    R1        2.89506   0.00730   0.00000   0.02444   0.02444   2.91950
    R2        2.02200   0.01684   0.00000   0.04449   0.04449   2.06649
    R3        2.02201   0.01682   0.00000   0.04444   0.04444   2.06646
    R4        2.02200   0.01682   0.00000   0.04444   0.04444   2.06643
    R5        2.02202   0.01681   0.00000   0.04441   0.04441   2.06644
    R6        2.02200   0.01682   0.00000   0.04445   0.04445   2.06646
    R7        2.02201   0.01683   0.00000   0.04448   0.04448   2.06649
    A1        1.91063   0.00449   0.00000   0.02701   0.02663   1.93726
    A2        1.91063   0.00447   0.00000   0.02689   0.02651   1.93714
    A3        1.91064   0.00446   0.00000   0.02687   0.02649   1.93713
    A4        1.91063  -0.00448   0.00000  -0.02694  -0.02729   1.88334
    A5        1.91064  -0.00447   0.00000  -0.02694  -0.02730   1.88334
    A6        1.91064  -0.00446   0.00000  -0.02688  -0.02724   1.88340
    A7        1.91063   0.00446   0.00000   0.02687   0.02650   1.93713
    A8        1.91064   0.00446   0.00000   0.02688   0.02650   1.93714
    A9        1.91064   0.00449   0.00000   0.02700   0.02663   1.93726
   A10        1.91063  -0.00446   0.00000  -0.02687  -0.02723   1.88340
   A11        1.91063  -0.00447   0.00000  -0.02694  -0.02729   1.88334
   A12        1.91064  -0.00447   0.00000  -0.02694  -0.02730   1.88334
    D1        1.04719   0.00000   0.00000   0.00001   0.00001   1.04720
    D2       -1.04720   0.00000   0.00000   0.00001   0.00001  -1.04719
    D3        3.14158   0.00000   0.00000   0.00001   0.00001  -3.14159
    D4       -1.04719   0.00000   0.00000   0.00000   0.00000  -1.04719
    D5       -3.14158   0.00000   0.00000   0.00000   0.00000  -3.14158
    D6        1.04720   0.00000   0.00000   0.00000   0.00000   1.04720
    D7       -3.14159   0.00000   0.00000   0.00001   0.00001  -3.14159
    D8        1.04720   0.00000   0.00000   0.00001   0.00001   1.04721
    D9       -1.04720   0.00000   0.00000   0.00001   0.00001  -1.04719
         Item               Value     Threshold  Converged?
 Maximum Force            0.016836     0.000450     NO 
 RMS     Force            0.008587     0.000300     NO 
 Maximum Displacement     0.078624     0.001800     NO 
 RMS     Displacement     0.038000     0.001200     NO 
 Predicted change in Energy=-3.119015D-03
 GradGradGradGradGradGradGradGradGradGradGradGradGradGradGradGradGradGrad

                          Input orientation:                          
 ---------------------------------------------------------------------
 Center     Atomic      Atomic             Coordinates (Angstroms)
 Number     Number       Type             X           Y           Z
 ---------------------------------------------------------------------
      1          6           0        0.958006   -0.037744   -0.087793
      2          6           0        2.502938   -0.037730   -0.087750
      3          1           0        0.566204   -0.440995   -1.025720
      4          1           0        0.566293    0.976167    0.031935
      5          1           0        0.566298   -0.648394    0.730398
      6          1           0        2.894644    0.572927   -0.905938
      7          1           0        2.894654   -1.051638   -0.207489
      8          1           0        2.894743    0.365518    0.850177
 ---------------------------------------------------------------------
                    Distance matrix (angstroms):
                    1          2          3          4          5
     1  C    0.000000
     2  C    1.544932   0.000000
     3  H    1.093539   2.189372   0.000000
     4  H    1.093521   2.189271   1.768327   0.000000
     5  H    1.093510   2.189258   1.768322   1.768346   0.000000
     6  H    2.189258   1.093511   2.542444   2.542328   3.096840
     7  H    2.189273   1.093521   2.542453   3.096867   2.542337
     8  H    2.189374   1.093539   3.097022   2.542458   2.542443
                    6          7          8
     6  H    0.000000
     7  H    1.768344   0.000000
     8  H    1.768321   1.768329   0.000000
 Stoichiometry    C2H6
 Framework group  C1[X(C2H6)]
 Deg. of freedom    18
 Full point group                 C1      NOp   1
 Largest Abelian subgroup         C1      NOp   1
 Largest concise Abelian subgroup C1      NOp   1
                         Standard orientation:                         
 ---------------------------------------------------------------------
 Center     Atomic      Atomic             Coordinates (Angstroms)
 Number     Number       Type             X           Y           Z
 ---------------------------------------------------------------------
      1          6           0        0.772466    0.000001    0.000013
      2          6           0       -0.772466    0.000000   -0.000013
      3          1           0        1.164315    0.141027   -1.011121
      4          1           0        1.164161   -0.946216    0.383470
      5          1           0        1.164146    0.805178    0.627740
      6          1           0       -1.164144   -0.805183   -0.627735
      7          1           0       -1.164163    0.946211   -0.383479
      8          1           0       -1.164317   -0.141022    1.011122
 ---------------------------------------------------------------------
 Rotational constants (GHZ):     80.1815723     19.6888947     19.6888174
 Standard basis: 6-31G(d,p) (6D, 7F)
 There are    60 symmetry adapted cartesian basis functions of A   symmetry.
 There are    60 symmetry adapted basis functions of A   symmetry.
    60 basis functions,    98 primitive gaussians,    60 cartesian basis functions
     9 alpha electrons        9 beta electrons
       nuclear repulsion energy        42.0105303540 Hartrees.
 NAtoms=    8 NActive=    8 NUniq=    8 SFac= 1.00D+00 NAtFMM=   60 NAOKFM=F Big=F
 Integral buffers will be    131072 words long.
 Raffenetti 2 integral format.
 Two-electron integral symmetry is turned on.
 One-electron integrals computed using PRISM.
 NBasis=    60 RedAO= T EigKep=  8.36D-03  NBF=    60
 NBsUse=    60 1.00D-06 EigRej= -1.00D+00 NBFU=    60
 Initial guess from the checkpoint file:  "ethane_scan.chk"
 B after Tr=     0.000000    0.000000    0.000000
         Rot=    0.780559   -0.535634    0.319584    0.041113 Ang= -77.38 deg.
 ExpMin= 1.61D-01 ExpMax= 3.05D+03 ExpMxC= 4.57D+02 IAcc=1 IRadAn=         1 AccDes= 0.00D+00
 Harris functional with IExCor=  402 and IRadAn=       1 diagonalized for initial guess.
 HarFok:  IExCor=  402 AccDes= 0.00D+00 IRadAn=         1 IDoV= 1 UseB2=F ITyADJ=14
 ICtDFT=  3500011 ScaDFX=  1.000000  1.000000  1.000000  1.000000
 FoFCou: FMM=F IPFlag=           0 FMFlag=      100000 FMFlg1=           0
         NFxFlg=           0 DoJE=T BraDBF=F KetDBF=T FulRan=T
         wScrn=  0.000000 ICntrl=     500 IOpCl=  0 I1Cent=   200000004 NGrid=           0
         NMat0=    1 NMatS0=      1 NMatT0=    0 NMatD0=    1 NMtDS0=    0 NMtDT0=    0
 Petite list used in FoFCou.
 Keep R1 ints in memory in canonical form, NReq=2587875.
 Requested convergence on RMS density matrix=1.00D-08 within 128 cycles.
 Requested convergence on MAX density matrix=1.00D-06.
 Requested convergence on             energy=1.00D-06.
 No special actions if energy rises.
 Integral accuracy reduced to 1.0D-05 until final iterations.
 Initial convergence to 1.0D-05 achieved.  Increase integral accuracy.
 SCF Done:  E(RB3LYP) =  -79.8386195483     A.U. after    9 cycles
            NFock=  9  Conv=0.14D-08     -V/T= 2.0109
 Calling FoFJK, ICntrl=      2127 FMM=F ISym2X=0 I1Cent= 0 IOpClX= 0 NMat=1 NMatS=1 NMatT=0.
 ***** Axes restored to original set *****
 -------------------------------------------------------------------
 Center     Atomic                   Forces (Hartrees/Bohr)
 Number     Number              X              Y              Z
 -------------------------------------------------------------------
      1        6           0.008674988    0.000011067   -0.000004296
      2        6          -0.008674241   -0.000010134    0.000003511
      3        1          -0.000718354   -0.000199389   -0.000442407
      4        1          -0.000757084    0.000491436    0.000057282
      5        1          -0.000749496   -0.000299381    0.000399168
      6        1           0.000749132    0.000299090   -0.000398811
      7        1           0.000756943   -0.000491730   -0.000056871
      8        1           0.000718111    0.000199042    0.000442425
 -------------------------------------------------------------------
 Cartesian Forces:  Max     0.008674988 RMS     0.002543432

 GradGradGradGradGradGradGradGradGradGradGradGradGradGradGradGradGradGrad
 Berny optimization.
 Using GEDIIS/GDIIS optimizer.
 FormGI is forming the generalized inverse of G from B-inverse, IUseBI=4.
 Internal  Forces:  Max     0.006450055 RMS     0.001309227
 Search for a local minimum.
 Step number   2 out of a maximum of   38 on scan point     1 out of    13
 All quantities printed in internal units (Hartrees-Bohrs-Radians)
 Mixed Optimization -- RFO/linear search
 Update second derivatives using D2CorX and points    1    2
 DE= -3.09D-03 DEPred=-3.12D-03 R= 9.91D-01
 TightC=F SS=  1.41D+00  RLast= 1.45D-01 DXNew= 5.0454D-01 4.3623D-01
 Trust test= 9.91D-01 RLast= 1.45D-01 DXMaxT set to 4.36D-01
 ITU=  1  0
 Use linear search instead of GDIIS.
     Eigenvalues ---    0.01746   0.05509   0.05509   0.05509   0.15240
     Eigenvalues ---    0.16000   0.16000   0.16000   0.16000   0.16000
     Eigenvalues ---    0.29161   0.37229   0.37230   0.37230   0.37230
     Eigenvalues ---    0.37231   0.387051000.000001000.000001000.00000
     Eigenvalues --- 1000.000001000.000001000.000001000.000001000.00000
     Eigenvalues --- 1000.000001000.000001000.00000
 RFO step:  Lambda=-1.76602867D-04 EMin= 1.74648330D-02
 Quartic linear search produced a step of  0.03700.
 Iteration  1 RMS(Cart)=  0.00309323 RMS(Int)=  0.00001561
 Iteration  2 RMS(Cart)=  0.00000860 RMS(Int)=  0.00001368
 Iteration  3 RMS(Cart)=  0.00000000 RMS(Int)=  0.00001368
 Iteration  1 RMS(Cart)=  0.00000003 RMS(Int)=  0.00000005
 Variable       Old X    -DE/DX   Delta X   Delta X   Delta X     New X
                                 (Linear)    (Quad)   (Total)
    R1        2.91950  -0.00645   0.00090  -0.02303  -0.02212   2.89737
    R2        2.06649   0.00071   0.00165   0.00165   0.00330   2.06978
    R3        2.06646   0.00074   0.00164   0.00173   0.00337   2.06983
    R4        2.06643   0.00073   0.00164   0.00172   0.00337   2.06980
    R5        2.06644   0.00073   0.00164   0.00172   0.00337   2.06980
    R6        2.06646   0.00074   0.00164   0.00173   0.00337   2.06983
    R7        2.06649   0.00071   0.00165   0.00165   0.00329   2.06978
    A1        1.93726   0.00048   0.00099   0.00296   0.00392   1.94118
    A2        1.93714   0.00052   0.00098   0.00325   0.00421   1.94135
    A3        1.93713   0.00051   0.00098   0.00317   0.00413   1.94126
    A4        1.88334  -0.00053  -0.00101  -0.00325  -0.00428   1.87905
    A5        1.88334  -0.00053  -0.00101  -0.00330  -0.00433   1.87901
    A6        1.88340  -0.00054  -0.00101  -0.00333  -0.00435   1.87905
    A7        1.93713   0.00051   0.00098   0.00317   0.00413   1.94126
    A8        1.93714   0.00052   0.00098   0.00325   0.00420   1.94135
    A9        1.93726   0.00048   0.00099   0.00296   0.00392   1.94118
   A10        1.88340  -0.00054  -0.00101  -0.00332  -0.00435   1.87905
   A11        1.88334  -0.00053  -0.00101  -0.00330  -0.00433   1.87901
   A12        1.88334  -0.00053  -0.00101  -0.00326  -0.00429   1.87905
    D1        1.04720   0.00001   0.00000   0.00011   0.00011   1.04732
    D2       -1.04719   0.00000   0.00000   0.00004   0.00004  -1.04715
    D3       -3.14159   0.00000   0.00000   0.00002   0.00002  -3.14157
    D4       -1.04719   0.00000   0.00000   0.00009   0.00009  -1.04710
    D5       -3.14158   0.00000   0.00000   0.00002   0.00002  -3.14156
    D6        1.04720   0.00000   0.00000   0.00000   0.00000   1.04720
    D7       -3.14159   0.00000   0.00000   0.00002   0.00002  -3.14157
    D8        1.04721   0.00000   0.00000  -0.00006  -0.00006   1.04716
    D9       -1.04719   0.00000   0.00000  -0.00007  -0.00007  -1.04726
         Item               Value     Threshold  Converged?
 Maximum Force            0.006450     0.000450     NO 
 RMS     Force            0.001333     0.000300     NO 
 Maximum Displacement     0.011063     0.001800     NO 
 RMS     Displacement     0.003096     0.001200     NO 
 Predicted change in Energy=-9.118134D-05
 GradGradGradGradGradGradGradGradGradGradGradGradGradGradGradGradGradGrad

                          Input orientation:                          
 ---------------------------------------------------------------------
 Center     Atomic      Atomic             Coordinates (Angstroms)
 Number     Number       Type             X           Y           Z
 ---------------------------------------------------------------------
      1          6           0        0.963860   -0.037703   -0.087754
      2          6           0        2.497085   -0.037769   -0.087790
      3          1           0        0.567359   -0.441013   -1.025716
      4          1           0        0.567266    0.976237    0.031968
      5          1           0        0.567308   -0.648393    0.730458
      6          1           0        2.893636    0.572941   -0.905987
      7          1           0        2.893679   -1.051706   -0.207540
      8          1           0        2.893588    0.365516    0.850182
 ---------------------------------------------------------------------
                    Distance matrix (angstroms):
                    1          2          3          4          5
     1  C    0.000000
     2  C    1.533225   0.000000
     3  H    1.095283   2.183152   0.000000
     4  H    1.095306   2.183289   1.768415   0.000000
     5  H    1.095293   2.183215   1.768376   1.768420   0.000000
     6  H    2.183215   1.095293   2.540474   2.540553   3.095386
     7  H    2.183289   1.095306   2.540496   3.095499   2.540571
     8  H    2.183153   1.095283   3.095290   2.540517   2.540457
                    6          7          8
     6  H    0.000000
     7  H    1.768419   0.000000
     8  H    1.768377   1.768415   0.000000
 Stoichiometry    C2H6
 Framework group  C1[X(C2H6)]
 Deg. of freedom    18
 Full point group                 C1      NOp   1
 Largest Abelian subgroup         C1      NOp   1
 Largest concise Abelian subgroup C1      NOp   1
                         Standard orientation:                         
 ---------------------------------------------------------------------
 Center     Atomic      Atomic             Coordinates (Angstroms)
 Number     Number       Type             X           Y           Z
 ---------------------------------------------------------------------
      1          6           0        0.766612    0.000000   -0.000003
      2          6           0       -0.766612   -0.000001    0.000003
      3          1           0        1.163071    0.468457   -0.907204
      4          1           0        1.163254   -1.019840    0.047921
      5          1           0        1.163161    0.551498    0.859221
      6          1           0       -1.163160   -0.551520   -0.859207
      7          1           0       -1.163253    1.019838   -0.047949
      8          1           0       -1.163072   -0.468433    0.907216
 ---------------------------------------------------------------------
 Rotational constants (GHZ):     80.1750518     19.8674923     19.8673385
 Standard basis: 6-31G(d,p) (6D, 7F)
 There are    60 symmetry adapted cartesian basis functions of A   symmetry.
 There are    60 symmetry adapted basis functions of A   symmetry.
    60 basis functions,    98 primitive gaussians,    60 cartesian basis functions
     9 alpha electrons        9 beta electrons
       nuclear repulsion energy        42.1018857128 Hartrees.
 NAtoms=    8 NActive=    8 NUniq=    8 SFac= 1.00D+00 NAtFMM=   60 NAOKFM=F Big=F
 Integral buffers will be    131072 words long.
 Raffenetti 2 integral format.
 Two-electron integral symmetry is turned on.
 One-electron integrals computed using PRISM.
 NBasis=    60 RedAO= T EigKep=  8.22D-03  NBF=    60
 NBsUse=    60 1.00D-06 EigRej= -1.00D+00 NBFU=    60
 Initial guess from the checkpoint file:  "ethane_scan.chk"
 B after Tr=     0.000000    0.000000    0.000000
         Rot=    0.985750   -0.168214   -0.000029   -0.000017 Ang= -19.37 deg.
 Keep R1 ints in memory in canonical form, NReq=2587875.
 Requested convergence on RMS density matrix=1.00D-08 within 128 cycles.
 Requested convergence on MAX density matrix=1.00D-06.
 Requested convergence on             energy=1.00D-06.
 No special actions if energy rises.
 SCF Done:  E(RB3LYP) =  -79.8387297166     A.U. after    6 cycles
            NFock=  6  Conv=0.59D-08     -V/T= 2.0109
 Calling FoFJK, ICntrl=      2127 FMM=F ISym2X=0 I1Cent= 0 IOpClX= 0 NMat=1 NMatS=1 NMatT=0.
 ***** Axes restored to original set *****
 -------------------------------------------------------------------
 Center     Atomic                   Forces (Hartrees/Bohr)
 Number     Number              X              Y              Z
 -------------------------------------------------------------------
      1        6           0.001829510    0.000001579   -0.000010928
      2        6          -0.001829470   -0.000001857    0.000010643
      3        1          -0.000208618    0.000124620    0.000294120
      4        1          -0.000188163   -0.000331996   -0.000034206
      5        1          -0.000196351    0.000194806   -0.000258175
      6        1           0.000196352   -0.000194761    0.000258139
      7        1           0.000188122    0.000331953    0.000034552
      8        1           0.000208618   -0.000124343   -0.000294146
 -------------------------------------------------------------------
 Cartesian Forces:  Max     0.001829510 RMS     0.000561442

 GradGradGradGradGradGradGradGradGradGradGradGradGradGradGradGradGradGrad
 Berny optimization.
 Using GEDIIS/GDIIS optimizer.
 FormGI is forming the generalized inverse of G from B-inverse, IUseBI=4.
 Internal  Forces:  Max     0.001236379 RMS     0.000324830
 Search for a local minimum.
 Step number   3 out of a maximum of   38 on scan point     1 out of    13
 All quantities printed in internal units (Hartrees-Bohrs-Radians)
 Mixed Optimization -- En-DIIS/RFO-DIIS
 Update second derivatives using D2CorX and points    1    2    3
 DE= -1.10D-04 DEPred=-9.12D-05 R= 1.21D+00
 TightC=F SS=  1.41D+00  RLast= 2.77D-02 DXNew= 7.3365D-01 8.3194D-02
 Trust test= 1.21D+00 RLast= 2.77D-02 DXMaxT set to 4.36D-01
 ITU=  1  1  0
 Use linear search instead of GDIIS.
     Eigenvalues ---    0.01731   0.05466   0.05466   0.05467   0.11899
     Eigenvalues ---    0.16000   0.16000   0.16000   0.16000   0.16001
     Eigenvalues ---    0.29034   0.37229   0.37230   0.37230   0.37231
     Eigenvalues ---    0.37232   0.398271000.000001000.000001000.00000
     Eigenvalues --- 1000.000001000.000001000.000001000.000001000.00000
     Eigenvalues --- 1000.000001000.000001000.00000
 RFO step:  Lambda=-8.50331026D-06 EMin= 1.73071514D-02
 Quartic linear search produced a step of  0.26889.
 Iteration  1 RMS(Cart)=  0.00169039 RMS(Int)=  0.00000564
 Iteration  2 RMS(Cart)=  0.00000518 RMS(Int)=  0.00000384
 Iteration  3 RMS(Cart)=  0.00000000 RMS(Int)=  0.00000384
 Iteration  1 RMS(Cart)=  0.00000002 RMS(Int)=  0.00000003
 Variable       Old X    -DE/DX   Delta X   Delta X   Delta X     New X
                                 (Linear)    (Quad)   (Total)
    R1        2.89737  -0.00124  -0.00595  -0.00035  -0.00630   2.89107
    R2        2.06978  -0.00022   0.00089  -0.00106  -0.00018   2.06961
    R3        2.06983  -0.00024   0.00091  -0.00115  -0.00024   2.06958
    R4        2.06980  -0.00023   0.00091  -0.00111  -0.00020   2.06960
    R5        2.06980  -0.00023   0.00091  -0.00111  -0.00020   2.06960
    R6        2.06983  -0.00024   0.00091  -0.00115  -0.00024   2.06958
    R7        2.06978  -0.00022   0.00089  -0.00106  -0.00018   2.06961
    A1        1.94118   0.00031   0.00105   0.00186   0.00291   1.94409
    A2        1.94135   0.00028   0.00113   0.00159   0.00271   1.94406
    A3        1.94126   0.00029   0.00111   0.00167   0.00277   1.94403
    A4        1.87905  -0.00031  -0.00115  -0.00180  -0.00295   1.87610
    A5        1.87901  -0.00032  -0.00117  -0.00182  -0.00299   1.87602
    A6        1.87905  -0.00031  -0.00117  -0.00183  -0.00301   1.87604
    A7        1.94126   0.00029   0.00111   0.00167   0.00277   1.94403
    A8        1.94135   0.00028   0.00113   0.00159   0.00271   1.94406
    A9        1.94118   0.00031   0.00105   0.00187   0.00291   1.94410
   A10        1.87905  -0.00031  -0.00117  -0.00183  -0.00301   1.87604
   A11        1.87901  -0.00032  -0.00116  -0.00181  -0.00298   1.87603
   A12        1.87905  -0.00031  -0.00115  -0.00180  -0.00296   1.87610
    D1        1.04732   0.00000   0.00003  -0.00003   0.00000   1.04731
    D2       -1.04715   0.00000   0.00001   0.00010   0.00011  -1.04704
    D3       -3.14157   0.00000   0.00001   0.00005   0.00005  -3.14151
    D4       -1.04710  -0.00001   0.00002  -0.00008  -0.00006  -1.04716
    D5       -3.14156   0.00000   0.00000   0.00005   0.00005  -3.14151
    D6        1.04720   0.00000   0.00000   0.00000   0.00000   1.04720
    D7       -3.14157   0.00000   0.00000   0.00004   0.00005  -3.14152
    D8        1.04716   0.00001  -0.00001   0.00017   0.00016   1.04731
    D9       -1.04726   0.00000  -0.00002   0.00013   0.00011  -1.04716
         Item               Value     Threshold  Converged?
 Maximum Force            0.001236     0.000450     NO 
 RMS     Force            0.000331     0.000300     NO 
 Maximum Displacement     0.003151     0.001800     NO 
 RMS     Displacement     0.001690     0.001200     NO 
 Predicted change in Energy=-9.097621D-06
 GradGradGradGradGradGradGradGradGradGradGradGradGradGradGradGradGradGrad

                          Input orientation:                          
 ---------------------------------------------------------------------
 Center     Atomic      Atomic             Coordinates (Angstroms)
 Number     Number       Type             X           Y           Z
 ---------------------------------------------------------------------
      1          6           0        0.965527   -0.037727   -0.087790
      2          6           0        2.495418   -0.037743   -0.087753
      3          1           0        0.566145   -0.440582   -1.024616
      4          1           0        0.566173    0.975004    0.031800
      5          1           0        0.566166   -0.647645    0.729486
      6          1           0        2.894779    0.572234   -0.904985
      7          1           0        2.894770   -1.050466   -0.207425
      8          1           0        2.894803    0.365035    0.849104
 ---------------------------------------------------------------------
                    Distance matrix (angstroms):
                    1          2          3          4          5
     1  C    0.000000
     2  C    1.529890   0.000000
     3  H    1.095190   2.182220   0.000000
     4  H    1.095176   2.182187   1.766324   0.000000
     5  H    1.095185   2.182172   1.766281   1.766284   0.000000
     6  H    2.182172   1.095185   2.542174   2.542086   3.095487
     7  H    2.182184   1.095176   2.542096   3.095501   2.542137
     8  H    2.182222   1.095190   3.095560   2.542158   2.542121
                    6          7          8
     6  H    0.000000
     7  H    1.766280   0.000000
     8  H    1.766284   1.766324   0.000000
 Stoichiometry    C2H6
 Framework group  C1[X(C2H6)]
 Deg. of freedom    18
 Full point group                 C1      NOp   1
 Largest Abelian subgroup         C1      NOp   1
 Largest concise Abelian subgroup C1      NOp   1
                         Standard orientation:                         
 ---------------------------------------------------------------------
 Center     Atomic      Atomic             Coordinates (Angstroms)
 Number     Number       Type             X           Y           Z
 ---------------------------------------------------------------------
      1          6           0        0.764945   -0.000005   -0.000007
      2          6           0       -0.764945    0.000003    0.000007
      3          1           0        1.164346    0.884545   -0.507443
      4          1           0        1.164298   -0.881772   -0.512271
      5          1           0        1.164290   -0.002791    1.019770
      6          1           0       -1.164290    0.002716   -1.019770
      7          1           0       -1.164295    0.881813    0.512200
      8          1           0       -1.164349   -0.884504    0.507515
 ---------------------------------------------------------------------
 Rotational constants (GHZ):     80.3665082     19.9086639     19.9085094
 Standard basis: 6-31G(d,p) (6D, 7F)
 There are    60 symmetry adapted cartesian basis functions of A   symmetry.
 There are    60 symmetry adapted basis functions of A   symmetry.
    60 basis functions,    98 primitive gaussians,    60 cartesian basis functions
     9 alpha electrons        9 beta electrons
       nuclear repulsion energy        42.1361445775 Hartrees.
 NAtoms=    8 NActive=    8 NUniq=    8 SFac= 1.00D+00 NAtFMM=   60 NAOKFM=F Big=F
 Integral buffers will be    131072 words long.
 Raffenetti 2 integral format.
 Two-electron integral symmetry is turned on.
 One-electron integrals computed using PRISM.
 NBasis=    60 RedAO= T EigKep=  8.19D-03  NBF=    60
 NBsUse=    60 1.00D-06 EigRej= -1.00D+00 NBFU=    60
 Initial guess from the checkpoint file:  "ethane_scan.chk"
 B after Tr=     0.000000    0.000000    0.000000
         Rot=    0.959199   -0.282731    0.000010    0.000021 Ang= -32.85 deg.
 Keep R1 ints in memory in canonical form, NReq=2587875.
 Requested convergence on RMS density matrix=1.00D-08 within 128 cycles.
 Requested convergence on MAX density matrix=1.00D-06.
 Requested convergence on             energy=1.00D-06.
 No special actions if energy rises.
 SCF Done:  E(RB3LYP) =  -79.8387387173     A.U. after    6 cycles
            NFock=  6  Conv=0.20D-08     -V/T= 2.0108
 Calling FoFJK, ICntrl=      2127 FMM=F ISym2X=0 I1Cent= 0 IOpClX= 0 NMat=1 NMatS=1 NMatT=0.
 ***** Axes restored to original set *****
 -------------------------------------------------------------------
 Center     Atomic                   Forces (Hartrees/Bohr)
 Number     Number              X              Y              Z
 -------------------------------------------------------------------
      1        6          -0.000130962   -0.000017935    0.000018475
      2        6           0.000130892    0.000017171   -0.000018880
      3        1           0.000039636    0.000035028    0.000059185
      4        1           0.000032891   -0.000060213   -0.000014193
      5        1           0.000028009    0.000040361   -0.000052373
      6        1          -0.000027967   -0.000040290    0.000052338
      7        1          -0.000032880    0.000060091    0.000015016
      8        1          -0.000039618   -0.000034212   -0.000059567
 -------------------------------------------------------------------
 Cartesian Forces:  Max     0.000130962 RMS     0.000053352

 GradGradGradGradGradGradGradGradGradGradGradGradGradGradGradGradGradGrad
 Berny optimization.
 Using GEDIIS/GDIIS optimizer.
 FormGI is forming the generalized inverse of G from B-inverse, IUseBI=4.
 Internal  Forces:  Max     0.000078312 RMS     0.000034901
 Search for a local minimum.
 Step number   4 out of a maximum of   38 on scan point     1 out of    13
 All quantities printed in internal units (Hartrees-Bohrs-Radians)
 Mixed Optimization -- En-DIIS/RFO-DIIS
 Swapping is turned off.
 Update second derivatives using D2CorX and points    1    2    3    4
 DE= -9.00D-06 DEPred=-9.10D-06 R= 9.89D-01
 TightC=F SS=  1.41D+00  RLast= 1.19D-02 DXNew= 7.3365D-01 3.5558D-02
 Trust test= 9.89D-01 RLast= 1.19D-02 DXMaxT set to 4.36D-01
 ITU=  1  1  1  0
     Eigenvalues ---    0.01720   0.05437   0.05437   0.05438   0.12192
     Eigenvalues ---    0.16000   0.16000   0.16000   0.16000   0.16007
     Eigenvalues ---    0.30066   0.36901   0.37229   0.37230   0.37230
     Eigenvalues ---    0.37231   0.372341000.000001000.000001000.00000
     Eigenvalues --- 1000.000001000.000001000.000001000.000001000.00000
     Eigenvalues --- 1000.000001000.000001000.00000
 En-DIIS/RFO-DIIS IScMMF=        0 using points:     4    3
 RFO step:  Lambda=-5.95570322D-08.
 DidBck=F Rises=F RFO-DIIS coefs:    0.98094    0.01906
 Iteration  1 RMS(Cart)=  0.00011311 RMS(Int)=  0.00000004
 Iteration  2 RMS(Cart)=  0.00000001 RMS(Int)=  0.00000004
 Iteration  1 RMS(Cart)=  0.00000001 RMS(Int)=  0.00000002
 Variable       Old X    -DE/DX   Delta X   Delta X   Delta X     New X
                                 (Linear)    (Quad)   (Total)
    R1        2.89107   0.00003   0.00012   0.00007   0.00019   2.89126
    R2        2.06961  -0.00008   0.00000  -0.00022  -0.00022   2.06939
    R3        2.06958  -0.00007   0.00000  -0.00020  -0.00020   2.06939
    R4        2.06960  -0.00007   0.00000  -0.00021  -0.00020   2.06940
    R5        2.06960  -0.00007   0.00000  -0.00020  -0.00020   2.06940
    R6        2.06958  -0.00007   0.00000  -0.00020  -0.00020   2.06939
    R7        2.06961  -0.00008   0.00000  -0.00022  -0.00022   2.06939
    A1        1.94409  -0.00001  -0.00006  -0.00008  -0.00014   1.94395
    A2        1.94406  -0.00001  -0.00005  -0.00005  -0.00010   1.94396
    A3        1.94403   0.00000  -0.00005   0.00005   0.00000   1.94403
    A4        1.87610   0.00001   0.00006  -0.00003   0.00003   1.87612
    A5        1.87602   0.00001   0.00006   0.00007   0.00013   1.87615
    A6        1.87604   0.00001   0.00006   0.00005   0.00010   1.87614
    A7        1.94403   0.00000  -0.00005   0.00005   0.00000   1.94403
    A8        1.94406  -0.00001  -0.00005  -0.00005  -0.00010   1.94396
    A9        1.94410  -0.00001  -0.00006  -0.00009  -0.00015   1.94395
   A10        1.87604   0.00001   0.00006   0.00006   0.00011   1.87615
   A11        1.87603   0.00001   0.00006   0.00006   0.00012   1.87614
   A12        1.87610   0.00001   0.00006  -0.00003   0.00003   1.87612
    D1        1.04731   0.00000   0.00000  -0.00018  -0.00018   1.04713
    D2       -1.04704  -0.00001   0.00000  -0.00026  -0.00026  -1.04730
    D3       -3.14151   0.00000   0.00000  -0.00013  -0.00013   3.14154
    D4       -1.04716   0.00000   0.00000  -0.00005  -0.00005  -1.04721
    D5       -3.14151   0.00000   0.00000  -0.00013  -0.00013   3.14154
    D6        1.04720   0.00001   0.00000   0.00000   0.00000   1.04720
    D7       -3.14152   0.00000   0.00000  -0.00011  -0.00011   3.14155
    D8        1.04731   0.00000   0.00000  -0.00019  -0.00019   1.04712
    D9       -1.04716   0.00000   0.00000  -0.00006  -0.00006  -1.04722
         Item               Value     Threshold  Converged?
 Maximum Force            0.000078     0.000450     YES
 RMS     Force            0.000035     0.000300     YES
 Maximum Displacement     0.000212     0.001800     YES
 RMS     Displacement     0.000113     0.001200     YES
 Predicted change in Energy=-5.484470D-08
 Optimization completed.
    -- Stationary point found.
                           ----------------------------
                           !   Optimized Parameters   !
                           ! (Angstroms and Degrees)  !
 --------------------------                            --------------------------
 ! Name  Definition              Value          Derivative Info.                !
 --------------------------------------------------------------------------------
 ! R1    R(1,2)                  1.5299         -DE/DX =    0.0                 !
 ! R2    R(1,3)                  1.0952         -DE/DX =   -0.0001              !
 ! R3    R(1,4)                  1.0952         -DE/DX =   -0.0001              !
 ! R4    R(1,5)                  1.0952         -DE/DX =   -0.0001              !
 ! R5    R(2,6)                  1.0952         -DE/DX =   -0.0001              !
 ! R6    R(2,7)                  1.0952         -DE/DX =   -0.0001              !
 ! R7    R(2,8)                  1.0952         -DE/DX =   -0.0001              !
 ! A1    A(2,1,3)              111.3883         -DE/DX =    0.0                 !
 ! A2    A(2,1,4)              111.3864         -DE/DX =    0.0                 !
 ! A3    A(2,1,5)              111.3847         -DE/DX =    0.0                 !
 ! A4    A(3,1,4)              107.4925         -DE/DX =    0.0                 !
 ! A5    A(3,1,5)              107.488          -DE/DX =    0.0                 !
 ! A6    A(4,1,5)              107.4893         -DE/DX =    0.0                 !
 ! A7    A(1,2,6)              111.3847         -DE/DX =    0.0                 !
 ! A8    A(1,2,7)              111.3862         -DE/DX =    0.0                 !
 ! A9    A(1,2,8)              111.3884         -DE/DX =    0.0                 !
 ! A10   A(6,2,7)              107.489          -DE/DX =    0.0                 !
 ! A11   A(6,2,8)              107.4884         -DE/DX =    0.0                 !
 ! A12   A(7,2,8)              107.4924         -DE/DX =    0.0                 !
 ! D1    D(3,1,2,6)             60.0065         -DE/DX =    0.0                 !
 ! D2    D(3,1,2,7)            -59.991          -DE/DX =    0.0                 !
 ! D3    D(3,1,2,8)            180.0046         -DE/DX =    0.0                 !
 ! D4    D(4,1,2,6)            -59.9979         -DE/DX =    0.0                 !
 ! D5    D(4,1,2,7)            180.0046         -DE/DX =    0.0                 !
 ! D6    D(4,1,2,8)             60.0002         -DE/DX =    0.0                 !
 ! D7    D(5,1,2,6)            180.0041         -DE/DX =    0.0                 !
 ! D8    D(5,1,2,7)             60.0067         -DE/DX =    0.0                 !
 ! D9    D(5,1,2,8)            -59.9977         -DE/DX =    0.0                 !
 --------------------------------------------------------------------------------
 Iteration  1 RMS(Cart)=  0.01669621 RMS(Int)=  0.08547134
 Iteration  2 RMS(Cart)=  0.00714343 RMS(Int)=  0.08137453
 Iteration  3 RMS(Cart)=  0.00298578 RMS(Int)=  0.07998242
 Iteration  4 RMS(Cart)=  0.00124546 RMS(Int)=  0.07946054
 Iteration  5 RMS(Cart)=  0.00051855 RMS(Int)=  0.07925361
 Iteration  6 RMS(Cart)=  0.00021571 RMS(Int)=  0.07916933
 Iteration  7 RMS(Cart)=  0.00008970 RMS(Int)=  0.07913460
 Iteration  8 RMS(Cart)=  0.00003729 RMS(Int)=  0.07912021
 Iteration  9 RMS(Cart)=  0.00001550 RMS(Int)=  0.07911424
 Iteration 10 RMS(Cart)=  0.00000644 RMS(Int)=  0.07911176
 Iteration 11 RMS(Cart)=  0.00000268 RMS(Int)=  0.07911073
 Iteration 12 RMS(Cart)=  0.00000111 RMS(Int)=  0.07911030
 Iteration 13 RMS(Cart)=  0.00000046 RMS(Int)=  0.07911013
 Iteration  1 RMS(Cart)=  0.01698953 RMS(Int)=  0.05989740
 Iteration  2 RMS(Cart)=  0.01719804 RMS(Int)=  0.05560000
 Iteration  3 RMS(Cart)=  0.01741532 RMS(Int)=  0.06140739
 Iteration  4 RMS(Cart)=  0.01198061 RMS(Int)=  0.07003695
 Iteration  5 RMS(Cart)=  0.00705728 RMS(Int)=  0.07629265
 Iteration  6 RMS(Cart)=  0.00413313 RMS(Int)=  0.08025209
 Iteration  7 RMS(Cart)=  0.00241238 RMS(Int)=  0.08264685
 Iteration  8 RMS(Cart)=  0.00140526 RMS(Int)=  0.08406737
 Iteration  9 RMS(Cart)=  0.00081766 RMS(Int)=  0.08490202
 Iteration 10 RMS(Cart)=  0.00047544 RMS(Int)=  0.08538999
 Iteration 11 RMS(Cart)=  0.00027635 RMS(Int)=  0.08567450
 Iteration 12 RMS(Cart)=  0.00016059 RMS(Int)=  0.08584012
 Iteration 13 RMS(Cart)=  0.00009331 RMS(Int)=  0.08593645
 Iteration 14 RMS(Cart)=  0.00005421 RMS(Int)=  0.08599245
 Iteration 15 RMS(Cart)=  0.00003150 RMS(Int)=  0.08602499
 Iteration 16 RMS(Cart)=  0.00001830 RMS(Int)=  0.08604390
 Iteration 17 RMS(Cart)=  0.00001063 RMS(Int)=  0.08605489
 Iteration 18 RMS(Cart)=  0.00000618 RMS(Int)=  0.08606128
 Iteration 19 RMS(Cart)=  0.00000359 RMS(Int)=  0.08606498
 Iteration 20 RMS(Cart)=  0.00000208 RMS(Int)=  0.08606714
 Iteration 21 RMS(Cart)=  0.00000121 RMS(Int)=  0.08606839
 Iteration 22 RMS(Cart)=  0.00000070 RMS(Int)=  0.08606912
 GradGradGradGradGradGradGradGradGradGradGradGradGradGradGradGradGradGrad

                          Input orientation:                          
 ---------------------------------------------------------------------
 Center     Atomic      Atomic             Coordinates (Angstroms)
 Number     Number       Type             X           Y           Z
 ---------------------------------------------------------------------
      1          6           0        0.967368   -0.028635   -0.010599
      2          6           0        2.493577    0.038833   -0.101007
      3          1           0        0.626033   -0.441374   -0.965940
      4          1           0        0.506651    0.960373   -0.131330
      5          1           0        0.551702   -0.659993    0.781822
      6          1           0        2.909243    0.618884   -0.931721
      7          1           0        2.834915   -0.994453   -0.224886
      8          1           0        2.954291    0.204473    0.881481
 ---------------------------------------------------------------------
                    Distance matrix (angstroms):
                    1          2          3          4          5
     1  C    0.000000
     2  C    1.530372   0.000000
     3  H    1.095236   2.113393   0.000000
     4  H    1.097712   2.190440   1.635763   0.000000
     5  H    1.095136   2.244688   1.762950   1.860501   0.000000
     6  H    2.244687   1.095136   2.517611   2.555325   3.182727
     7  H    2.113399   1.095234   2.394623   3.041531   2.517615
     8  H    2.190435   1.097713   3.041524   2.754652   2.555321
                    6          7          8
     6  H    0.000000
     7  H    1.762951   0.000000
     8  H    1.860502   1.635763   0.000000
 Stoichiometry    C2H6
 Framework group  C1[X(C2H6)]
 Deg. of freedom    18
 Full point group                 C1      NOp   1
 Largest Abelian subgroup         C1      NOp   1
 Largest concise Abelian subgroup C1      NOp   1
                         Standard orientation:                         
 ---------------------------------------------------------------------
 Center     Atomic      Atomic             Coordinates (Angstroms)
 Number     Number       Type             X           Y           Z
 ---------------------------------------------------------------------
      1          6           0        0.764754   -0.025717   -0.023756
      2          6           0       -0.764754    0.025718   -0.023755
      3          1           0        1.084982    0.506320    0.878425
      4          1           0        1.197464    0.680526   -0.744141
      5          1           0        1.220746   -1.020890    0.008258
      6          1           0       -1.220746    1.020891    0.008253
      7          1           0       -1.084990   -0.506320    0.878421
      8          1           0       -1.197457   -0.680526   -0.744146
 ---------------------------------------------------------------------
 Rotational constants (GHZ):     80.9069878     20.2243526     19.5353114
 Standard basis: 6-31G(d,p) (6D, 7F)
 There are    60 symmetry adapted cartesian basis functions of A   symmetry.
 There are    60 symmetry adapted basis functions of A   symmetry.
    60 basis functions,    98 primitive gaussians,    60 cartesian basis functions
     9 alpha electrons        9 beta electrons
       nuclear repulsion energy        42.1402683866 Hartrees.
 NAtoms=    8 NActive=    8 NUniq=    8 SFac= 1.00D+00 NAtFMM=   60 NAOKFM=F Big=F
 Integral buffers will be    131072 words long.
 Raffenetti 2 integral format.
 Two-electron integral symmetry is turned on.
 One-electron integrals computed using PRISM.
 NBasis=    60 RedAO= T EigKep=  8.01D-03  NBF=    60
 NBsUse=    60 1.00D-06 EigRej= -1.00D+00 NBFU=    60
 Initial guess from the checkpoint file:  "ethane_scan.chk"
 B after Tr=     0.000000    0.000000    0.000000
         Rot=    0.708033   -0.706129   -0.005973   -0.005997 Ang= -89.85 deg.
 ExpMin= 1.61D-01 ExpMax= 3.05D+03 ExpMxC= 4.57D+02 IAcc=1 IRadAn=         1 AccDes= 0.00D+00
 Harris functional with IExCor=  402 and IRadAn=       1 diagonalized for initial guess.
 HarFok:  IExCor=  402 AccDes= 0.00D+00 IRadAn=         1 IDoV= 1 UseB2=F ITyADJ=14
 ICtDFT=  3500011 ScaDFX=  1.000000  1.000000  1.000000  1.000000
 FoFCou: FMM=F IPFlag=           0 FMFlag=      100000 FMFlg1=           0
         NFxFlg=           0 DoJE=T BraDBF=F KetDBF=T FulRan=T
         wScrn=  0.000000 ICntrl=     500 IOpCl=  0 I1Cent=   200000004 NGrid=           0
         NMat0=    1 NMatS0=      1 NMatT0=    0 NMatD0=    1 NMtDS0=    0 NMtDT0=    0
 Petite list used in FoFCou.
 Keep R1 ints in memory in canonical form, NReq=2587875.
 Requested convergence on RMS density matrix=1.00D-08 within 128 cycles.
 Requested convergence on MAX density matrix=1.00D-06.
 Requested convergence on             energy=1.00D-06.
 No special actions if energy rises.
 Integral accuracy reduced to 1.0D-05 until final iterations.
 Initial convergence to 1.0D-05 achieved.  Increase integral accuracy.
 SCF Done:  E(RB3LYP) =  -79.8268946852     A.U. after    9 cycles
            NFock=  9  Conv=0.44D-08     -V/T= 2.0107
 Calling FoFJK, ICntrl=      2127 FMM=F ISym2X=0 I1Cent= 0 IOpClX= 0 NMat=1 NMatS=1 NMatT=0.
 ***** Axes restored to original set *****
 -------------------------------------------------------------------
 Center     Atomic                   Forces (Hartrees/Bohr)
 Number     Number              X              Y              Z
 -------------------------------------------------------------------
      1        6          -0.002417908    0.011533161   -0.036527327
      2        6           0.002417935   -0.031734062    0.021450950
      3        1          -0.001756271   -0.011956766   -0.000000609
      4        1          -0.000733177    0.001946230    0.020705692
      5        1           0.003220987    0.008520932    0.002363487
      6        1          -0.003220914    0.004689933    0.007496325
      7        1           0.001755684   -0.003403004   -0.011462689
      8        1           0.000733664    0.020403575   -0.004025829
 -------------------------------------------------------------------
 Cartesian Forces:  Max     0.036527327 RMS     0.013356467

 GradGradGradGradGradGradGradGradGradGradGradGradGradGradGradGradGradGrad
 Berny optimization.
 FormGI is forming the generalized inverse of G from B-inverse, IUseBI=4.
 Internal  Forces:  Max     0.018726973 RMS     0.006732767
 Search for a local minimum.
 Step number   1 out of a maximum of   38 on scan point     2 out of    13
 All quantities printed in internal units (Hartrees-Bohrs-Radians)
 Mixed Optimization -- RFO/linear search
 Second derivative matrix not updated -- first step.
 ITU=  0
     Eigenvalues ---    0.01523   0.04291   0.05506   0.06224   0.12287
     Eigenvalues ---    0.16000   0.16000   0.16000   0.16000   0.16008
     Eigenvalues ---    0.30030   0.36901   0.37229   0.37230   0.37230
     Eigenvalues ---    0.37231   0.372341000.000001000.000001000.00000
     Eigenvalues --- 1000.000001000.000001000.000001000.000001000.00000
     Eigenvalues --- 1000.000001000.000001000.00000
 RFO step:  Lambda=-1.05505038D-02 EMin= 1.52300548D-02
 Linear search not attempted -- first point.
 Iteration  1 RMS(Cart)=  0.07330979 RMS(Int)=  0.02111891
 Iteration  2 RMS(Cart)=  0.01698845 RMS(Int)=  0.00158701
 Iteration  3 RMS(Cart)=  0.00023652 RMS(Int)=  0.00156798
 Iteration  4 RMS(Cart)=  0.00000019 RMS(Int)=  0.00156798
 Iteration  1 RMS(Cart)=  0.00002115 RMS(Int)=  0.00003435
 Iteration  2 RMS(Cart)=  0.00001236 RMS(Int)=  0.00003829
 Iteration  3 RMS(Cart)=  0.00000722 RMS(Int)=  0.00004358
 Iteration  4 RMS(Cart)=  0.00000422 RMS(Int)=  0.00004736
 Iteration  5 RMS(Cart)=  0.00000246 RMS(Int)=  0.00004974
 Iteration  6 RMS(Cart)=  0.00000144 RMS(Int)=  0.00005119
 Iteration  7 RMS(Cart)=  0.00000084 RMS(Int)=  0.00005205
 Variable       Old X    -DE/DX   Delta X   Delta X   Delta X     New X
                                 (Linear)    (Quad)   (Total)
    R1        2.89198   0.00044   0.00000   0.00667   0.00667   2.89865
    R2        2.06970   0.00505   0.00000   0.01284   0.01284   2.08253
    R3        2.07438  -0.00022   0.00000  -0.00094  -0.00094   2.07344
    R4        2.06951  -0.00442   0.00000  -0.01193  -0.01193   2.05757
    R5        2.06951  -0.00442   0.00000  -0.01193  -0.01193   2.05757
    R6        2.06969   0.00505   0.00000   0.01283   0.01283   2.08252
    R7        2.07438  -0.00022   0.00000  -0.00093  -0.00093   2.07345
    A1        1.85031   0.00554   0.00000   0.04658   0.04604   1.89635
    A2        1.95233   0.00330   0.00000   0.01438   0.01132   1.96366
    A3        2.03385  -0.00748   0.00000  -0.05925  -0.06082   1.97303
    A4        1.68383   0.00886   0.00000   0.08829   0.08605   1.76988
    A5        1.87089  -0.00020   0.00000   0.00292   0.00392   1.87481
    A6        2.02606  -0.00561   0.00000  -0.05168  -0.05496   1.97110
    A7        2.03385  -0.00748   0.00000  -0.05923  -0.06081   1.97305
    A8        1.85032   0.00554   0.00000   0.04654   0.04600   1.89632
    A9        1.95232   0.00331   0.00000   0.01442   0.01136   1.96369
   A10        1.87089  -0.00020   0.00000   0.00293   0.00393   1.87482
   A11        2.02606  -0.00561   0.00000  -0.05170  -0.05498   1.97108
   A12        1.68383   0.00886   0.00000   0.08828   0.08604   1.76987
    D1        0.99673   0.00886   0.00000   0.26104   0.26094   1.25768
    D2       -1.08278   0.00960   0.00000   0.25921   0.26104  -0.82174
    D3       -2.89759  -0.00456   0.00000   0.12961   0.13053  -2.76705
    D4       -0.81807  -0.00530   0.00000   0.13142   0.13042  -0.68765
    D5       -2.89759  -0.00456   0.00000   0.12960   0.13052  -2.76707
    D6        1.57080  -0.01873   0.00000   0.00000   0.00001   1.57081
    D7        3.07624   0.00812   0.00000   0.26287   0.26084  -2.94610
    D8        0.99672   0.00886   0.00000   0.26104   0.26095   1.25767
    D9       -0.81808  -0.00530   0.00000   0.13145   0.13044  -0.68764
         Item               Value     Threshold  Converged?
 Maximum Force            0.008737     0.000450     NO 
 RMS     Force            0.004002     0.000300     NO 
 Maximum Displacement     0.208051     0.001800     NO 
 RMS     Displacement     0.088782     0.001200     NO 
 Predicted change in Energy=-7.240651D-03
 GradGradGradGradGradGradGradGradGradGradGradGradGradGradGradGradGradGrad

                          Input orientation:                          
 ---------------------------------------------------------------------
 Center     Atomic      Atomic             Coordinates (Angstroms)
 Number     Number       Type             X           Y           Z
 ---------------------------------------------------------------------
      1          6           0        0.963951   -0.024502   -0.045853
      2          6           0        2.496990    0.006225   -0.087010
      3          1           0        0.597718   -0.549410   -0.942968
      4          1           0        0.520133    0.969944   -0.179966
      5          1           0        0.571331   -0.550754    0.822732
      6          1           0        2.889626    0.689191   -0.838625
      7          1           0        2.863199   -1.003159   -0.334982
      8          1           0        2.940833    0.160576    0.904492
 ---------------------------------------------------------------------
                    Distance matrix (angstroms):
                    1          2          3          4          5
     1  C    0.000000
     2  C    1.533899   0.000000
     3  H    1.102030   2.156067   0.000000
     4  H    1.097217   2.201217   1.701948   0.000000
     5  H    1.088821   2.201368   1.765897   1.822237   0.000000
     6  H    2.201379   1.088820   2.607270   2.475308   3.109994
     7  H    2.156040   1.102023   2.389130   3.067104   2.607227
     8  H    2.201243   1.097223   3.067144   2.773249   2.475321
                    6          7          8
     6  H    0.000000
     7  H    1.765900   0.000000
     8  H    1.822228   1.701941   0.000000
 Stoichiometry    C2H6
 Framework group  C1[X(C2H6)]
 Deg. of freedom    18
 Full point group                 C1      NOp   1
 Largest Abelian subgroup         C1      NOp   1
 Largest concise Abelian subgroup C1      NOp   1
                         Standard orientation:                         
 ---------------------------------------------------------------------
 Center     Atomic      Atomic             Coordinates (Angstroms)
 Number     Number       Type             X           Y           Z
 ---------------------------------------------------------------------
      1          6           0        0.766773   -0.016512   -0.015862
      2          6           0       -0.766771    0.016514   -0.015856
      3          1           0        1.128144    0.392810    0.941393
      4          1           0        1.202154    0.691042   -0.732587
      5          1           0        1.171452   -1.022593   -0.113669
      6          1           0       -1.171468    1.022594   -0.113603
      7          1           0       -1.128103   -0.392869    0.941380
      8          1           0       -1.202190   -0.691000   -0.732607
 ---------------------------------------------------------------------
 Rotational constants (GHZ):     80.4024339     20.0109648     19.6318541
 Standard basis: 6-31G(d,p) (6D, 7F)
 There are    60 symmetry adapted cartesian basis functions of A   symmetry.
 There are    60 symmetry adapted basis functions of A   symmetry.
    60 basis functions,    98 primitive gaussians,    60 cartesian basis functions
     9 alpha electrons        9 beta electrons
       nuclear repulsion energy        42.0790679324 Hartrees.
 NAtoms=    8 NActive=    8 NUniq=    8 SFac= 1.00D+00 NAtFMM=   60 NAOKFM=F Big=F
 Integral buffers will be    131072 words long.
 Raffenetti 2 integral format.
 Two-electron integral symmetry is turned on.
 One-electron integrals computed using PRISM.
 NBasis=    60 RedAO= T EigKep=  8.15D-03  NBF=    60
 NBsUse=    60 1.00D-06 EigRej= -1.00D+00 NBFU=    60
 Initial guess from the checkpoint file:  "ethane_scan.chk"
 B after Tr=     0.000000    0.000000    0.000000
         Rot=    0.999970   -0.000014   -0.000004    0.007796 Ang=  -0.89 deg.
 ExpMin= 1.61D-01 ExpMax= 3.05D+03 ExpMxC= 4.57D+02 IAcc=1 IRadAn=         1 AccDes= 0.00D+00
 Harris functional with IExCor=  402 and IRadAn=       1 diagonalized for initial guess.
 HarFok:  IExCor=  402 AccDes= 0.00D+00 IRadAn=         1 IDoV= 1 UseB2=F ITyADJ=14
 ICtDFT=  3500011 ScaDFX=  1.000000  1.000000  1.000000  1.000000
 FoFCou: FMM=F IPFlag=           0 FMFlag=      100000 FMFlg1=           0
         NFxFlg=           0 DoJE=T BraDBF=F KetDBF=T FulRan=T
         wScrn=  0.000000 ICntrl=     500 IOpCl=  0 I1Cent=   200000004 NGrid=           0
         NMat0=    1 NMatS0=      1 NMatT0=    0 NMatD0=    1 NMtDS0=    0 NMtDT0=    0
 Petite list used in FoFCou.
 Keep R1 ints in memory in canonical form, NReq=2587875.
 Requested convergence on RMS density matrix=1.00D-08 within 128 cycles.
 Requested convergence on MAX density matrix=1.00D-06.
 Requested convergence on             energy=1.00D-06.
 No special actions if energy rises.
 Integral accuracy reduced to 1.0D-05 until final iterations.
 Initial convergence to 1.0D-05 achieved.  Increase integral accuracy.
 SCF Done:  E(RB3LYP) =  -79.8343289543     A.U. after   10 cycles
            NFock= 10  Conv=0.26D-08     -V/T= 2.0109
 Calling FoFJK, ICntrl=      2127 FMM=F ISym2X=0 I1Cent= 0 IOpClX= 0 NMat=1 NMatS=1 NMatT=0.
 ***** Axes restored to original set *****
 -------------------------------------------------------------------
 Center     Atomic                   Forces (Hartrees/Bohr)
 Number     Number              X              Y              Z
 -------------------------------------------------------------------
      1        6           0.000058597    0.002243392   -0.023534638
      2        6          -0.000056548   -0.021925137    0.008847701
      3        1           0.000804243   -0.003407490    0.003997036
      4        1           0.000946004    0.000738691    0.012497563
      5        1          -0.001738183    0.003283187    0.003216901
      6        1           0.001736918    0.004017161    0.002230801
      7        1          -0.000799983    0.002859644   -0.004405917
      8        1          -0.000951050    0.012190551   -0.002849447
 -------------------------------------------------------------------
 Cartesian Forces:  Max     0.023534638 RMS     0.008004995

 GradGradGradGradGradGradGradGradGradGradGradGradGradGradGradGradGradGrad
 Berny optimization.
 Using GEDIIS/GDIIS optimizer.
 FormGI is forming the generalized inverse of G from B-inverse, IUseBI=4.
 Internal  Forces:  Max     0.010320242 RMS     0.003467199
 Search for a local minimum.
 Step number   2 out of a maximum of   38 on scan point     2 out of    13
 All quantities printed in internal units (Hartrees-Bohrs-Radians)
 Mixed Optimization -- RFO/linear search
 Update second derivatives using D2CorX and points    1    2
 DE= -7.43D-03 DEPred=-7.24D-03 R= 1.03D+00
 TightC=F SS=  1.41D+00  RLast= 6.11D-01 DXNew= 7.3365D-01 1.8344D+00
 Trust test= 1.03D+00 RLast= 6.11D-01 DXMaxT set to 7.34D-01
 ITU=  1  0
 Use linear search instead of GDIIS.
     Eigenvalues ---    0.01364   0.04888   0.05646   0.05886   0.12228
     Eigenvalues ---    0.16000   0.16000   0.16000   0.16004   0.16869
     Eigenvalues ---    0.30055   0.36895   0.37201   0.37230   0.37230
     Eigenvalues ---    0.37234   0.388251000.000001000.000001000.00000
     Eigenvalues --- 1000.000001000.000001000.000001000.000001000.00000
     Eigenvalues --- 1000.000001000.000001000.00000
 RFO step:  Lambda=-1.25026706D-03 EMin= 1.36422219D-02
 Quartic linear search produced a step of  0.72104.
 Iteration  1 RMS(Cart)=  0.07222447 RMS(Int)=  0.01428171
 Iteration  2 RMS(Cart)=  0.01179393 RMS(Int)=  0.00213583
 Iteration  3 RMS(Cart)=  0.00012127 RMS(Int)=  0.00213143
 Iteration  4 RMS(Cart)=  0.00000017 RMS(Int)=  0.00213143
 Iteration  1 RMS(Cart)=  0.00011484 RMS(Int)=  0.00018799
 Iteration  2 RMS(Cart)=  0.00006767 RMS(Int)=  0.00020951
 Iteration  3 RMS(Cart)=  0.00003988 RMS(Int)=  0.00023863
 Iteration  4 RMS(Cart)=  0.00002350 RMS(Int)=  0.00025965
 Iteration  5 RMS(Cart)=  0.00001385 RMS(Int)=  0.00027305
 Iteration  6 RMS(Cart)=  0.00000816 RMS(Int)=  0.00028124
 Iteration  7 RMS(Cart)=  0.00000481 RMS(Int)=  0.00028617
 Iteration  8 RMS(Cart)=  0.00000283 RMS(Int)=  0.00028910
 Iteration  9 RMS(Cart)=  0.00000167 RMS(Int)=  0.00029084
 Iteration 10 RMS(Cart)=  0.00000098 RMS(Int)=  0.00029187
 Variable       Old X    -DE/DX   Delta X   Delta X   Delta X     New X
                                 (Linear)    (Quad)   (Total)
    R1        2.89865  -0.00023   0.00481  -0.00368   0.00112   2.89977
    R2        2.08253  -0.00190   0.00926  -0.01726  -0.00800   2.07454
    R3        2.07344  -0.00124  -0.00068  -0.00517  -0.00585   2.06759
    R4        2.05757   0.00161  -0.00861   0.01506   0.00646   2.06403
    R5        2.05757   0.00161  -0.00861   0.01506   0.00646   2.06403
    R6        2.08252  -0.00189   0.00925  -0.01723  -0.00797   2.07455
    R7        2.07345  -0.00124  -0.00067  -0.00520  -0.00587   2.06758
    A1        1.89635   0.00214   0.03320   0.00539   0.03805   1.93440
    A2        1.96366  -0.00084   0.00816  -0.02413  -0.01997   1.94369
    A3        1.97303  -0.00057  -0.04386   0.02692  -0.01946   1.95357
    A4        1.76988   0.00525   0.06205   0.01882   0.07891   1.84878
    A5        1.87481  -0.00063   0.00283   0.00250   0.00619   1.88100
    A6        1.97110  -0.00440  -0.03963  -0.02782  -0.07285   1.89826
    A7        1.97305  -0.00057  -0.04384   0.02689  -0.01948   1.95357
    A8        1.89632   0.00214   0.03317   0.00548   0.03811   1.93444
    A9        1.96369  -0.00085   0.00819  -0.02421  -0.02003   1.94366
   A10        1.87482  -0.00063   0.00283   0.00248   0.00617   1.88100
   A11        1.97108  -0.00440  -0.03964  -0.02778  -0.07283   1.89826
   A12        1.76987   0.00525   0.06204   0.01884   0.07892   1.84878
    D1        1.25768   0.00422   0.18815   0.04979   0.23743   1.49510
    D2       -0.82174   0.00391   0.18822   0.02622   0.21629  -0.60545
    D3       -2.76705  -0.00320   0.09412   0.01310   0.10814  -2.65891
    D4       -0.68765  -0.00290   0.09404   0.03670   0.12929  -0.55836
    D5       -2.76707  -0.00320   0.09411   0.01313   0.10816  -2.65891
    D6        1.57081  -0.01032   0.00001   0.00000   0.00000   1.57081
    D7       -2.94610   0.00452   0.18808   0.07336   0.25855  -2.68756
    D8        1.25767   0.00422   0.18815   0.04978   0.23741   1.49508
    D9       -0.68764  -0.00290   0.09405   0.03666   0.12926  -0.55838
         Item               Value     Threshold  Converged?
 Maximum Force            0.003205     0.000450     NO 
 RMS     Force            0.001726     0.000300     NO 
 Maximum Displacement     0.192864     0.001800     NO 
 RMS     Displacement     0.082211     0.001200     NO 
 Predicted change in Energy=-2.125319D-03
 GradGradGradGradGradGradGradGradGradGradGradGradGradGradGradGradGradGrad

                          Input orientation:                          
 ---------------------------------------------------------------------
 Center     Atomic      Atomic             Coordinates (Angstroms)
 Number     Number       Type             X           Y           Z
 ---------------------------------------------------------------------
      1          6           0        0.963294   -0.037747   -0.074862
      2          6           0        2.497649   -0.025372   -0.091465
      3          1           0        0.568763   -0.642836   -0.901525
      4          1           0        0.555015    0.967349   -0.216973
      5          1           0        0.568710   -0.448695    0.857022
      6          1           0        2.892239    0.751085   -0.750551
      7          1           0        2.892200   -0.990024   -0.436353
      8          1           0        2.905910    0.124349    0.912528
 ---------------------------------------------------------------------
                    Distance matrix (angstroms):
                    1          2          3          4          5
     1  C    0.000000
     2  C    1.534494   0.000000
     3  H    1.097798   2.181297   0.000000
     4  H    1.094123   2.185194   1.749713   0.000000
     5  H    1.092237   2.190807   1.769231   1.777310   0.000000
     6  H    2.190808   1.092237   2.713733   2.407092   3.069617
     7  H    2.181326   1.097803   2.394845   3.056447   2.713754
     8  H    2.185170   1.094118   3.056406   2.741009   2.407065
                    6          7          8
     6  H    0.000000
     7  H    1.769231   0.000000
     8  H    1.777306   1.749713   0.000000
 Stoichiometry    C2H6
 Framework group  C1[X(C2H6)]
 Deg. of freedom    18
 Full point group                 C1      NOp   1
 Largest Abelian subgroup         C1      NOp   1
 Largest concise Abelian subgroup C1      NOp   1
                         Standard orientation:                         
 ---------------------------------------------------------------------
 Center     Atomic      Atomic             Coordinates (Angstroms)
 Number     Number       Type             X           Y           Z
[...]
 Variable       Old X    -DE/DX   Delta X   Delta X   Delta X     New X
                                 (Linear)    (Quad)   (Total)
    R1        2.89111   0.00006   0.00020  -0.00004   0.00016   2.89127
    R2        2.06925   0.00005  -0.00002   0.00016   0.00014   2.06939
    R3        2.06959  -0.00007  -0.00009  -0.00014  -0.00022   2.06936
    R4        2.06939  -0.00001   0.00007  -0.00008  -0.00001   2.06938
    R5        2.06939  -0.00001   0.00007  -0.00008  -0.00001   2.06938
    R6        2.06924   0.00005  -0.00002   0.00015   0.00013   2.06938
    R7        2.06958  -0.00006  -0.00009  -0.00013  -0.00021   2.06937
    A1        1.94310   0.00012   0.00016   0.00065   0.00081   1.94391
    A2        1.94434  -0.00003  -0.00001  -0.00028  -0.00029   1.94405
    A3        1.94426  -0.00004   0.00009  -0.00040  -0.00031   1.94395
    A4        1.87622  -0.00003  -0.00011   0.00003  -0.00008   1.87614
    A5        1.87648  -0.00004  -0.00037   0.00005  -0.00032   1.87616
    A6        1.87597   0.00003   0.00023  -0.00006   0.00017   1.87614
    A7        1.94426  -0.00004   0.00009  -0.00040  -0.00031   1.94395
    A8        1.94311   0.00011   0.00017   0.00059   0.00076   1.94388
    A9        1.94432  -0.00003  -0.00002  -0.00021  -0.00023   1.94409
   A10        1.87648  -0.00004  -0.00037   0.00000  -0.00037   1.87611
   A11        1.87598   0.00003   0.00022  -0.00001   0.00022   1.87619
   A12        1.87622  -0.00003  -0.00011   0.00003  -0.00008   1.87614
    D1        1.04673   0.00001  -0.00037   0.00072   0.00035   1.04708
    D2       -1.04770   0.00001  -0.00008   0.00059   0.00051  -1.04719
    D3        3.14134   0.00000  -0.00004   0.00029   0.00026  -3.14159
    D4       -1.04741  -0.00001  -0.00034   0.00042   0.00009  -1.04732
    D5        3.14134   0.00000  -0.00004   0.00030   0.00026  -3.14159
    D6        1.04720  -0.00002   0.00000   0.00000   0.00000   1.04720
    D7        3.14115   0.00001  -0.00068   0.00096   0.00028   3.14144
    D8        1.04672   0.00001  -0.00038   0.00083   0.00045   1.04717
    D9       -1.04742   0.00000  -0.00034   0.00053   0.00019  -1.04723
         Item               Value     Threshold  Converged?
 Maximum Force            0.000113     0.000450     YES
 RMS     Force            0.000045     0.000300     YES
 Maximum Displacement     0.001495     0.001800     YES
 RMS     Displacement     0.000466     0.001200     YES
 Predicted change in Energy=-1.653761D-07
 Optimization completed.
    -- Stationary point found.
                           ----------------------------
                           !   Optimized Parameters   !
                           ! (Angstroms and Degrees)  !
 --------------------------                            --------------------------
 ! Name  Definition              Value          Derivative Info.                !
 --------------------------------------------------------------------------------
 ! R1    R(1,2)                  1.5299         -DE/DX =    0.0001              !
 ! R2    R(1,3)                  1.095          -DE/DX =    0.0                 !
 ! R3    R(1,4)                  1.0952         -DE/DX =   -0.0001              !
 ! R4    R(1,5)                  1.0951         -DE/DX =    0.0                 !
 ! R5    R(2,6)                  1.0951         -DE/DX =    0.0                 !
 ! R6    R(2,7)                  1.095          -DE/DX =    0.0                 !
 ! R7    R(2,8)                  1.0952         -DE/DX =   -0.0001              !
 ! A1    A(2,1,3)              111.3316         -DE/DX =    0.0001              !
 ! A2    A(2,1,4)              111.4025         -DE/DX =    0.0                 !
 ! A3    A(2,1,5)              111.3979         -DE/DX =    0.0                 !
 ! A4    A(3,1,4)              107.4994         -DE/DX =    0.0                 !
 ! A5    A(3,1,5)              107.5144         -DE/DX =    0.0                 !
 ! A6    A(4,1,5)              107.4853         -DE/DX =    0.0                 !
 ! A7    A(1,2,6)              111.398          -DE/DX =    0.0                 !
 ! A8    A(1,2,7)              111.3323         -DE/DX =    0.0001              !
 ! A9    A(1,2,8)              111.4011         -DE/DX =    0.0                 !
 ! A10   A(6,2,7)              107.5144         -DE/DX =    0.0                 !
 ! A11   A(6,2,8)              107.4856         -DE/DX =    0.0                 !
 ! A12   A(7,2,8)              107.4997         -DE/DX =    0.0                 !
 ! D1    D(3,1,2,6)             59.9733         -DE/DX =    0.0                 !
 ! D2    D(3,1,2,7)            -60.0289         -DE/DX =    0.0                 !
 ! D3    D(3,1,2,8)           -180.0145         -DE/DX =    0.0                 !
 ! D4    D(4,1,2,6)            -60.0123         -DE/DX =    0.0                 !
 ! D5    D(4,1,2,7)           -180.0145         -DE/DX =    0.0                 !
 ! D6    D(4,1,2,8)             59.9999         -DE/DX =    0.0                 !
 ! D7    D(5,1,2,6)            179.9749         -DE/DX =    0.0                 !
 ! D8    D(5,1,2,7)             59.9727         -DE/DX =    0.0                 !
 ! D9    D(5,1,2,8)            -60.0129         -DE/DX =    0.0                 !
 --------------------------------------------------------------------------------
 GradGradGradGradGradGradGradGradGradGradGradGradGradGradGradGradGradGrad

 Summary of Optimized Potential Surface Scan
                           1         2         3         4         5
     Eigenvalues --   -79.83874 -79.83661 -79.83427 -79.83662 -79.83874
           R1           1.52989   1.53628   1.54419   1.53618   1.52995
           R2           1.09519   1.09547   1.09368   1.09393   1.09512
           R3           1.09518   1.09469   1.09419   1.09456   1.09494
           R4           1.09518   1.09352   1.09395   1.09532   1.09512
           R5           1.09518   1.09352   1.09395   1.09532   1.09512
           R6           1.09518   1.09548   1.09368   1.09393   1.09511
           R7           1.09519   1.09468   1.09419   1.09455   1.09494
           A1         111.38829 111.06923 111.77723 112.16321 111.34568
           A2         111.38641 111.66335 111.84326 111.62257 111.36533
           A3         111.38471 112.05029 111.83589 110.98276 111.40402
           A4         107.49246 106.04744 106.97816 108.39458 107.50015
           A5         107.48804 107.33051 107.06337 107.25092 107.50315
           A6         107.48926 108.39584 107.03353 106.14114 107.51383
           A7         111.38471 112.05031 111.83551 110.98266 111.40471
           A8         111.38624 111.07310 111.77747 112.16340 111.34620
           A9         111.38844 111.65946 111.84456 111.62230 111.36403
           A10        107.48898 107.33003 107.06333 107.25096 107.50350
           A11        107.48835 108.39627 107.03338 106.14125 107.51340
           A12        107.49244 106.04755 106.97710 108.39463 107.50033
           D1          60.00650  86.33262 119.88783 153.68590 179.94395
           D2         -59.99096 -33.70001  -0.14416  33.73983  59.94165
           D3         180.00465-151.84981-120.07198 -88.13003 -60.02908
           D4         -59.99793 -31.81702  -0.04029  31.81604  59.97293
           D5         180.00461-151.84965-120.07228 -88.13003 -60.02938
           D6          60.00022  90.00055 119.99990 150.00012-180.00011
           D7         180.00415-153.63682-120.08003 -86.36814 -60.05501
           D8          60.00669  86.33054 119.88798 153.68579 179.94268
           D9         -59.99770 -31.81925  -0.03984  31.81593  59.97196
                           6         7         8         9        10
     Eigenvalues --   -79.83662 -79.83427 -79.83661 -79.83874 -79.83662
           R1           1.53621   1.54419   1.53617   1.52999   1.53625
           R2           1.09534   1.09398   1.09373   1.09500   1.09541
           R3           1.09442   1.09397   1.09469   1.09508   1.09451
           R4           1.09400   1.09398   1.09539   1.09508   1.09376
           R5           1.09400   1.09398   1.09539   1.09508   1.09376
           R6           1.09534   1.09398   1.09373   1.09500   1.09541
           R7           1.09442   1.09397   1.09468   1.09508   1.09451
           A1         110.94940 111.83796 112.03953 111.34654 111.09291
           A2         111.61710 111.83130 111.66154 111.36682 111.57167
           A3         112.19698 111.82457 111.06763 111.39353 112.07714
           A4         106.13157 107.00601 108.37883 107.48401 106.04725
           A5         107.24148 107.00809 107.29141 107.53898 107.29649
           A6         108.41713 107.02045 106.12027 107.50283 108.47299
           A7         112.19725 111.82458 111.06795 111.39184 112.07728
           A8         110.94995 111.83768 112.03919 111.34757 111.09327
           A9         111.61675 111.83153 111.66136 111.36700 111.57103
           A10        107.24147 107.00807 107.29144 107.53944 107.29678
           A11        108.41674 107.02054 106.12013 107.50247 108.47263
           A12        106.13147 107.00598 108.37915 107.48443 106.04749
           D1        -153.77216-120.00955 -86.45004 -60.05441 -33.76666
           D2          86.29355 119.99507 153.57760 179.90544-153.78917
           D3         -31.85325  -0.00246  31.78885  59.95196  88.10528
           D4          88.08105 119.99286 151.76125-180.00654-151.87209
           D5         -31.85324  -0.00253  31.78889  59.95332  88.10540
           D6        -150.00004-120.00005 -89.99986 -60.00017 -30.00015
           D7         -33.83843  -0.01395  33.52228  59.98560  86.25513
           D8        -153.77272-120.00934 -86.45007 -60.05454 -33.76738
           D9          88.08048 119.99313 151.76117-180.00803-151.87293
                          11        12        13
     Eigenvalues --   -79.83427 -79.83662 -79.83874
           R1           1.54432   1.53620   1.52991
           R2           1.09391   1.09376   1.09500
           R3           1.09410   1.09468   1.09518
           R4           1.09383   1.09540   1.09507
           R5           1.09383   1.09540   1.09507
           R6           1.09390   1.09376   1.09500
           R7           1.09411   1.09468   1.09518
           A1         111.79702 112.09747 111.33158
           A2         111.84439 111.58521 111.40250
           A3         111.82213 111.11212 111.39788
           A4         106.98456 108.43883 107.49936
           A5         107.05867 107.25369 107.51439
           A6         107.02412 106.06795 107.48533
           A7         111.82183 111.11272 111.39802
           A8         111.79521 112.09705 111.33227
           A9         111.84534 111.58486 111.40108
           A10        107.05886 107.25291 107.51442
           A11        107.02446 106.06865 107.48557
           A12        106.98527 108.43913 107.49971
           D1          -0.06906  33.69896  59.97328
           D2        -120.09815 -86.29447 -60.02891
           D3         119.95073 151.85280-180.01448
           D4        -120.01985 -88.15393 -60.01234
           D5         119.95106 151.85264-180.01453
           D6          -0.00006  29.99990  59.99989
           D7         119.96124 153.69326 179.97487
           D8          -0.06785  33.69984  59.97268
           D9        -120.01897 -88.15290 -60.01290
                          Input orientation:                          
 ---------------------------------------------------------------------
 Center     Atomic      Atomic             Coordinates (Angstroms)
 Number     Number       Type             X           Y           Z
 ---------------------------------------------------------------------
      1          6           0        0.966204   -0.057167   -0.061879
      2          6           0        2.494744   -0.018454   -0.113776
      3          1           0        0.589841    0.335658    0.888415
      4          1           0        0.588479   -1.079624   -0.168281
      5          1           0        0.523883    0.542200   -0.864561
      6          1           0        2.937067   -0.617462    0.689172
      7          1           0        2.871138    1.004317   -0.007548
      8          1           0        2.872425   -0.411358   -1.063722
 ---------------------------------------------------------------------
                    Distance matrix (angstroms):
                    1          2          3          4          5
     1  C    0.000000
     2  C    1.529911   0.000000
     3  H    1.094997   2.181385   0.000000
     4  H    1.095178   2.182407   1.766248   0.000000
     5  H    1.095074   2.182270   1.766334   1.766151   0.000000
     6  H    2.182271   1.095073   2.541182   2.542575   3.095538
     7  H    2.181393   1.094997   2.540506   3.095025   2.541186
     8  H    2.182388   1.095177   3.095006   2.542597   2.542554
                    6          7          8
     6  H    0.000000
     7  H    1.766333   0.000000
     8  H    1.766152   1.766251   0.000000
 Stoichiometry    C2H6
 Framework group  C1[X(C2H6)]
 Deg. of freedom    18
 Full point group                 C1      NOp   1
 Largest Abelian subgroup         C1      NOp   1
 Largest concise Abelian subgroup C1      NOp   1
                         Standard orientation:                         
 ---------------------------------------------------------------------
 Center     Atomic      Atomic             Coordinates (Angstroms)
 Number     Number       Type             X           Y           Z
 ---------------------------------------------------------------------
      1          6           0        0.764955   -0.000040   -0.000007
      2          6           0       -0.764956   -0.000042    0.000002
      3          1           0        1.163273    0.908115   -0.464352
      4          1           0        1.164602   -0.855838   -0.554360
      5          1           0        1.164490   -0.051993    1.018256
      6          1           0       -1.164493    0.052357   -1.018236
      7          1           0       -1.163287    0.855884    0.554747
      8          1           0       -1.164577   -0.908032    0.463973
 ---------------------------------------------------------------------
 Rotational constants (GHZ):     80.3711954     19.9105557     19.9105311

 **********************************************************************

            Population analysis using the SCF density.

 **********************************************************************

 Orbital symmetries:
       Occupied  (A) (A) (A) (A) (A) (A) (A) (A) (A)
       Virtual   (A) (A) (A) (A) (A) (A) (A) (A) (A) (A) (A) (A)
                 (A) (A) (A) (A) (A) (A) (A) (A) (A) (A) (A) (A)
                 (A) (A) (A) (A) (A) (A) (A) (A) (A) (A) (A) (A)
                 (A) (A) (A) (A) (A) (A) (A) (A) (A) (A) (A) (A)
                 (A) (A) (A)
 The electronic state is 1-A.
 Alpha  occ. eigenvalues --  -10.17260 -10.17239  -0.74771  -0.61192  -0.42946
 Alpha  occ. eigenvalues --   -0.42945  -0.36314  -0.33917  -0.33915
 Alpha virt. eigenvalues --    0.10498   0.15618   0.16392   0.16395   0.19005
 Alpha virt. eigenvalues --    0.19010   0.24209   0.50797   0.53951   0.53957
 Alpha virt. eigenvalues --    0.61905   0.61922   0.66622   0.86641   0.86643
 Alpha virt. eigenvalues --    0.88166   0.89485   0.89487   0.95364   1.06487
 Alpha virt. eigenvalues --    1.32775   1.32789   1.44070   1.67843   1.67865
 Alpha virt. eigenvalues --    1.86126   2.05743   2.05787   2.06516   2.06530
 Alpha virt. eigenvalues --    2.08732   2.08741   2.26644   2.26654   2.33841
 Alpha virt. eigenvalues --    2.47964   2.48000   2.69002   2.77409   2.79945
 Alpha virt. eigenvalues --    2.79961   2.90619   2.90648   3.14661   3.23756
 Alpha virt. eigenvalues --    3.39672   3.39694   3.52128   3.52143   4.32121
 Alpha virt. eigenvalues --    4.57970
          Condensed to atoms (all electrons):
               1          2          3          4          5          6
     1  C    4.871426   0.373952   0.391257   0.391219   0.391250  -0.034800
     2  C    0.373952   4.871425  -0.034883  -0.034803  -0.034800   0.391250
     3  H    0.391257  -0.034883   0.608121  -0.033101  -0.033094  -0.004028
     4  H    0.391219  -0.034803  -0.033101   0.608143  -0.033131  -0.004012
     5  H    0.391250  -0.034800  -0.033094  -0.033131   0.608081   0.004853
     6  H   -0.034800   0.391250  -0.004028  -0.004012   0.004853   0.608080
     7  H   -0.034880   0.391258  -0.004027   0.004859  -0.004028  -0.033093
     8  H   -0.034807   0.391219   0.004859  -0.004016  -0.004012  -0.033131
               7          8
     1  C   -0.034880  -0.034807
     2  C    0.391258   0.391219
     3  H   -0.004027   0.004859
     4  H    0.004859  -0.004016
     5  H   -0.004028  -0.004012
     6  H   -0.033093  -0.033131
     7  H    0.608116  -0.033100
     8  H   -0.033100   0.608147
 Mulliken charges:
               1
     1  C   -0.314618
     2  C   -0.314618
     3  H    0.104895
     4  H    0.104841
     5  H    0.104881
     6  H    0.104881
     7  H    0.104896
     8  H    0.104841
 Sum of Mulliken charges =   0.00000
 Mulliken charges with hydrogens summed into heavy atoms:
               1
     1  C   -0.000001
     2  C    0.000001
 Electronic spatial extent (au):  <R**2>=            109.5725
 Charge=              0.0000 electrons
 Dipole moment (field-independent basis, Debye):
    X=              0.0000    Y=              0.0004    Z=              0.0000  Tot=              0.0004
 Quadrupole moment (field-independent basis, Debye-Ang):
   XX=            -15.1783   YY=            -14.7248   ZZ=            -14.7246
   XY=             -0.0001   XZ=              0.0011   YZ=              0.0000
 Traceless Quadrupole moment (field-independent basis, Debye-Ang):
   XX=             -0.3024   YY=              0.1511   ZZ=              0.1513
   XY=             -0.0001   XZ=              0.0011   YZ=              0.0000
 Octapole moment (field-independent basis, Debye-Ang**2):
  XXX=              0.0000  YYY=              0.0016  ZZZ=              0.0002  XYY=              0.0000
  XXY=             -0.0033  XXZ=             -0.0002  XZZ=              0.0000  YZZ=              0.0011
  YYZ=              0.0000  XYZ=             -0.0001
 Hexadecapole moment (field-independent basis, Debye-Ang**3):
 XXXX=            -92.5290 YYYY=            -28.8605 ZZZZ=            -28.8603 XXXY=             -0.0004
 XXXZ=              0.0050 YYYX=              0.1843 YYYZ=             -0.0001 ZZZX=              1.1921
 ZZZY=              0.0001 XXYY=            -19.1984 XXZZ=            -19.1952 YYZZ=             -9.6196
 XXYZ=             -0.0001 YYXZ=             -1.1907 ZZXY=             -0.1844
 N-N= 4.213856061496D+01 E-N=-2.681111813064D+02  KE= 7.898721935080D+01
 1\1\GINC-CPU-E-328\Scan\RB3LYP\6-31G(d,p)\C2H6\AM2145\03-Sep-2021\0\\#
 n B3LYP/6-31G(d,p) Opt=ModRedundant\\ethane_scan\\0,1\C,0.966203758,-0
 .0571671997,-0.0618788135\C,2.4947441177,-0.0184543146,-0.1137762055\H
 ,0.5898409125,0.3356579593,0.8884151744\H,0.5884785813,-1.0796237606,-
 0.1682814362\H,0.5238833889,0.5421998341,-0.8645607317\H,2.9370666297,
 -0.6174618336,0.6891717494\H,2.8711381069,1.00431737,-0.0075479936\H,2
 .8724245051,-0.411358055,-1.0637217433\\Version=ES64L-G09RevD.01\State
 =1-A\HF=-79.8387387,-79.8366131,-79.8342718,-79.8366181,-79.8387386,-7
 9.8366181,-79.8342722,-79.8366135,-79.8387386,-79.8366176,-79.834272,-
 79.8366177,-79.8387388\RMSD=1.991e-09,2.962e-09,1.739e-09,4.666e-09,1.
 795e-09,2.037e-09,4.563e-09,3.987e-09,2.459e-09,2.016e-09,2.494e-09,2.
 072e-09,1.736e-09\PG=C01 [X(C2H6)]\\@


      SCIENCE SANS CONSCIENCE N'EST QUE RUINE DE L'AME.

                                                  -- RABELAIS
 Job cpu time:       0 days  2 hours 18 minutes 28.0 seconds.
 File lengths (MBytes):  RWF=      5 Int=      0 D2E=      0 Chk=      2 Scr=      1
 Normal termination of Gaussian 09 at Fri Sep  3 12:29:18 2021.
