 Entering Gaussian System, Link 0=g03
 Input=aceticacid.nbo.com
 Output=aceticacid.nbo.log
 Initial command:
 /gaussian/g03/l1.exe /scratch/Gau-8127.inp -scrdir=/scratch/
 Entering Link 1 = /gaussian/g03/l1.exe PID=      8128.
  
 Copyright (c) 1988,1990,1992,1993,1995,1998,2003, Gaussian, Inc.
                  All Rights Reserved.
  
 This is the Gaussian(R) 03 program.  It is based on the
 the Gaussian(R) 98 system (copyright 1998, Gaussian, Inc.),
 the Gaussian(R) 94 system (copyright 1995, Gaussian, Inc.),
 the Gaussian 92(TM) system (copyright 1992, Gaussian, Inc.),
 the Gaussian 90(TM) system (copyright 1990, Gaussian, Inc.),
 the Gaussian 88(TM) system (copyright 1988, Gaussian, Inc.),
 the Gaussian 86(TM) system (copyright 1986, Carnegie Mellon
 University), and the Gaussian 82(TM) system (copyright 1983,
 Carnegie Mellon University). Gaussian is a federally registered
 trademark of Gaussian, Inc.
  
 This software contains proprietary and confidential information,
 including trade secrets, belonging to Gaussian, Inc.
  
 This software is provided under written license and may be
 used, copied, transmitted, or stored only in accord with that
 written license.
  
 The following legend is applicable only to US Government
 contracts under DFARS:
  
                    RESTRICTED RIGHTS LEGEND
  
 Use, duplication or disclosure by the US Government is subject
 to restrictions as set forth in subparagraph (c)(1)(ii) of the
 Rights in Technical Data and Computer Software clause at DFARS
 252.227-7013.
  
 Gaussian, Inc.
 Carnegie Office Park, Building 6, Pittsburgh, PA 15106 USA
  
 The following legend is applicable only to US Government
 contracts under FAR:
  
                    RESTRICTED RIGHTS LEGEND
  
 Use, reproduction and disclosure by the US Government is subject
 to restrictions as set forth in subparagraph (c) of the
 Commercial Computer Software - Restricted Rights clause at FAR
 52.227-19.
  
 Gaussian, Inc.
 Carnegie Office Park, Building 6, Pittsburgh, PA 15106 USA
  
  
 ---------------------------------------------------------------
 Warning -- This program may not be used in any manner that
 competes with the business of Gaussian, Inc. or will provide
 assistance to any competitor of Gaussian, Inc.  The licensee
 of this program is prohibited from giving any competitor of
 Gaussian, Inc. access to this program.  By using this program,
 the user acknowledges that Gaussian, Inc. is engaged in the
 business of creating and licensing software in the field of
 computational chemistry and represents and warrants to the
 licensee that it is not a competitor of Gaussian, Inc. and that
 it will not use this program in any manner prohibited above.
 ---------------------------------------------------------------
  

 Cite this work as:
 Gaussian 03, Revision B.05,
 M. J. Frisch, G. W. Trucks, H. B. Schlegel, G. E. Scuseria, 
 M. A. Robb, J. R. Cheeseman, J. A. Montgomery, Jr., T. Vreven, 
 K. N. Kudin, J. C. Burant, J. M. Millam, S. S. Iyengar, J. Tomasi, 
 V. Barone, B. Mennucci, M. Cossi, G. Scalmani, N. Rega, 
 G. A. Petersson, H. Nakatsuji, M. Hada, M. Ehara, K. Toyota, 
 R. Fukuda, J. Hasegawa, M. Ishida, T. Nakajima, Y. Honda, O. Kitao, 
 H. Nakai, M. Klene, X. Li, J. E. Knox, H. P. Hratchian, J. B. Cross, 
 C. Adamo, J. Jaramillo, R. Gomperts, R. E. Stratmann, O. Yazyev, 
 A. J. Austin, R. Cammi, C. Pomelli, J. W. Ochterski, P. Y. Ayala, 
 K. Morokuma, G. A. Voth, P. Salvador, J. J. Dannenberg, 
 V. G. Zakrzewski, S. Dapprich, A. D. Daniels, M. C. Strain, 
 O. Farkas, D. K. Malick, A. D. Rabuck, K. Raghavachari, 
 J. B. Foresman, J. V. Ortiz, Q. Cui, A. G. Baboul, S. Clifford, 
 J. Cioslowski, B. B. Stefanov, G. Liu, A. Liashenko, P. Piskorz, 
 I. Komaromi, R. L. Martin, D. J. Fox, T. Keith, M. A. Al-Laham, 
 C. Y. Peng, A. Nanayakkara, M. Challacombe, P. M. W. Gill, 
 B. Johnson, W. Chen, M. W. Wong, C. Gonzalez, and J. A. Pople, 
 Gaussian, Inc., Pittsburgh PA, 2003.
 
 **********************************************
 Gaussian 03:  x86-Linux-G03RevB.05  8-Nov-2003
                  11-Apr-2009 
 **********************************************
 %chk=aceticacid.chk
 ---------------------------------------------------------------
 # b3lyp/6-31g* pop=(full,nboread) gfprint geom=check guess=read
 ---------------------------------------------------------------
 1/29=2,38=1/1;
 2/40=1/2;
 3/5=1,6=6,7=1,11=2,16=1,24=100,25=1,30=1,74=-5/1,2,3;
 4/5=1/1;
 5/5=2,32=1,38=6/2;
 6/7=3,28=1,40=1/1,7;
 99/5=1,9=1/99;
 ------------------------------------
 InChI=1/C2H4O2/c1-2(3)4/h1H3,(H,3,4)
 ------------------------------------
 No Z-matrix found on checkpoint file.
 Cartesian coordinates read from the checkpoint file:
 aceticacid.chk
 Charge =  0 Multiplicity = 1
  C                                                -0.110528278006      0.000775495999     -1.397084041397
  C                                                -0.110001781706     -0.000108265386      0.110989260503
  O                                                 1.156048822894      0.000099674094      0.604644572103
  O                                                -1.086109991306     -0.000910787102      0.826003245503
  H                                                -1.138111612806      0.000585152335     -1.760956638997
  H                                                 0.418833627594      0.883163587300     -1.771246021397
  H                                                 0.419526487984     -0.880757219452     -1.772279956472
  H                                                 1.063421202694     -0.000505999789      1.575868761403
 Recover connectivity data from disk.
                          Input orientation:                          
 ---------------------------------------------------------------------
 Center     Atomic     Atomic              Coordinates (Angstroms)
 Number     Number      Type              X           Y           Z
 ---------------------------------------------------------------------
    1          6             0       -0.110528    0.000775   -1.397084
    2          6             0       -0.110002   -0.000108    0.110989
    3          8             0        1.156049    0.000100    0.604645
    4          8             0       -1.086110   -0.000911    0.826003
    5          1             0       -1.138112    0.000585   -1.760957
    6          1             0        0.418834    0.883164   -1.771246
    7          1             0        0.419526   -0.880757   -1.772280
    8          1             0        1.063421   -0.000506    1.575869
 ---------------------------------------------------------------------
                    Distance matrix (angstroms):
                    1          2          3          4          5
     1  C    0.000000
     2  C    1.508074   0.000000
     3  O    2.368784   1.358889   0.000000
     4  O    2.427731   1.209972   2.253059   0.000000
     5  H    1.090106   2.135695   3.295336   2.587483   0.000000
     6  H    1.094911   2.145378   2.639724   3.129241   1.789729
     7  H    1.094911   2.145378   2.639724   3.129241   1.789729
     8  H    3.196343   1.876911   0.975631   2.276573   3.997643
                    6          7          8
     6  H    0.000000
     7  H    1.763921   0.000000
     8  H    3.521298   3.521298   0.000000
 Stoichiometry    C2H4O2
 Framework group  CS[SG(C2H2O2),X(H2)]
 Deg. of freedom    12
 Full point group                 CS      NOp   2
 Largest Abelian subgroup         CS      NOp   2
 Largest concise Abelian subgroup CS      NOp   2
                         Standard orientation:                         
 ---------------------------------------------------------------------
 Center     Atomic     Atomic              Coordinates (Angstroms)
 Number     Number      Type              X           Y           Z
 ---------------------------------------------------------------------
    1          6             0        1.061967   -0.914487    0.000000
    2          6             0        0.000000    0.156266    0.000000
    3          8             0       -1.246728   -0.384335    0.000000
    4          8             0        0.189963    1.351233    0.000000
    5          1             0        2.047962   -0.449574    0.000000
    6          1             0        0.949488   -1.553489    0.881961
    7          1             0        0.949488   -1.553489   -0.881961
    8          1             0       -1.864622    0.370691    0.000000
 ---------------------------------------------------------------------
 Rotational constants (GHZ):     11.2752295      9.4113664      5.2983021
 Standard basis: 6-31G(d) (6D, 7F)
 AO basis set:
 Atom C1       Shell     1 S   6     bf    1 -     1          2.006827254687         -1.728130003168          0.000000000000
      0.3047524880D+04  0.1834737132D-02
      0.4573695180D+03  0.1403732281D-01
      0.1039486850D+03  0.6884262226D-01
      0.2921015530D+02  0.2321844432D+00
      0.9286662960D+01  0.4679413484D+00
      0.3163926960D+01  0.3623119853D+00
 Atom C1       Shell     2 SP   3    bf    2 -     5          2.006827254687         -1.728130003168          0.000000000000
      0.7868272350D+01 -0.1193324198D+00  0.6899906659D-01
      0.1881288540D+01 -0.1608541517D+00  0.3164239610D+00
      0.5442492580D+00  0.1143456438D+01  0.7443082909D+00
 Atom C1       Shell     3 SP   1    bf    6 -     9          2.006827254687         -1.728130003168          0.000000000000
      0.1687144782D+00  0.1000000000D+01  0.1000000000D+01
 Atom C1       Shell     4 D   1     bf   10 -    15          2.006827254687         -1.728130003168          0.000000000000
      0.8000000000D+00  0.1000000000D+01
 Atom C2       Shell     5 S   6     bf   16 -    16          0.000000000000          0.295299683379          0.000000000000
      0.3047524880D+04  0.1834737132D-02
      0.4573695180D+03  0.1403732281D-01
      0.1039486850D+03  0.6884262226D-01
      0.2921015530D+02  0.2321844432D+00
      0.9286662960D+01  0.4679413484D+00
      0.3163926960D+01  0.3623119853D+00
 Atom C2       Shell     6 SP   3    bf   17 -    20          0.000000000000          0.295299683379          0.000000000000
      0.7868272350D+01 -0.1193324198D+00  0.6899906659D-01
      0.1881288540D+01 -0.1608541517D+00  0.3164239610D+00
      0.5442492580D+00  0.1143456438D+01  0.7443082909D+00
 Atom C2       Shell     7 SP   1    bf   21 -    24          0.000000000000          0.295299683379          0.000000000000
      0.1687144782D+00  0.1000000000D+01  0.1000000000D+01
 Atom C2       Shell     8 D   1     bf   25 -    30          0.000000000000          0.295299683379          0.000000000000
      0.8000000000D+00  0.1000000000D+01
 Atom O3       Shell     9 S   6     bf   31 -    31         -2.355974568224         -0.726287253057          0.000000000000
      0.5484671660D+04  0.1831074430D-02
      0.8252349460D+03  0.1395017220D-01
      0.1880469580D+03  0.6844507810D-01
      0.5296450000D+02  0.2327143360D+00
      0.1689757040D+02  0.4701928980D+00
      0.5799635340D+01  0.3585208530D+00
 Atom O3       Shell    10 SP   3    bf   32 -    35         -2.355974568224         -0.726287253057          0.000000000000
      0.1553961625D+02 -0.1107775495D+00  0.7087426823D-01
      0.3599933586D+01 -0.1480262627D+00  0.3397528391D+00
      0.1013761750D+01  0.1130767015D+01  0.7271585773D+00
 Atom O3       Shell    11 SP   1    bf   36 -    39         -2.355974568224         -0.726287253057          0.000000000000
      0.2700058226D+00  0.1000000000D+01  0.1000000000D+01
 Atom O3       Shell    12 D   1     bf   40 -    45         -2.355974568224         -0.726287253057          0.000000000000
      0.8000000000D+00  0.1000000000D+01
 Atom O4       Shell    13 S   6     bf   46 -    46          0.358977942739          2.553460707037          0.000000000000
      0.5484671660D+04  0.1831074430D-02
      0.8252349460D+03  0.1395017220D-01
      0.1880469580D+03  0.6844507810D-01
      0.5296450000D+02  0.2327143360D+00
      0.1689757040D+02  0.4701928980D+00
      0.5799635340D+01  0.3585208530D+00
 Atom O4       Shell    14 SP   3    bf   47 -    50          0.358977942739          2.553460707037          0.000000000000
      0.1553961625D+02 -0.1107775495D+00  0.7087426823D-01
      0.3599933586D+01 -0.1480262627D+00  0.3397528391D+00
      0.1013761750D+01  0.1130767015D+01  0.7271585773D+00
 Atom O4       Shell    15 SP   1    bf   51 -    54          0.358977942739          2.553460707037          0.000000000000
      0.2700058226D+00  0.1000000000D+01  0.1000000000D+01
 Atom O4       Shell    16 D   1     bf   55 -    60          0.358977942739          2.553460707037          0.000000000000
      0.8000000000D+00  0.1000000000D+01
 Atom H5       Shell    17 S   3     bf   61 -    61          3.870088114810         -0.849571309262          0.000000000000
      0.1873113696D+02  0.3349460434D-01
      0.2825394365D+01  0.2347269535D+00
      0.6401216923D+00  0.8137573261D+00
 Atom H5       Shell    18 S   1     bf   62 -    62          3.870088114810         -0.849571309262          0.000000000000
      0.1612777588D+00  0.1000000000D+01
 Atom H6       Shell    19 S   3     bf   63 -    63          1.794273218651         -2.935669362028          1.666664038233
      0.1873113696D+02  0.3349460434D-01
      0.2825394365D+01  0.2347269535D+00
      0.6401216923D+00  0.8137573261D+00
 Atom H6       Shell    20 S   1     bf   64 -    64          1.794273218651         -2.935669362028          1.666664038233
      0.1612777588D+00  0.1000000000D+01
 Atom H7       Shell    21 S   3     bf   65 -    65          1.794273218651         -2.935669362028         -1.666664038233
      0.1873113696D+02  0.3349460434D-01
      0.2825394365D+01  0.2347269535D+00
      0.6401216923D+00  0.8137573261D+00
 Atom H7       Shell    22 S   1     bf   66 -    66          1.794273218651         -2.935669362028         -1.666664038233
      0.1612777588D+00  0.1000000000D+01
 Atom H8       Shell    23 S   3     bf   67 -    67         -3.523625076351          0.700504320212          0.000000000000
      0.1873113696D+02  0.3349460434D-01
      0.2825394365D+01  0.2347269535D+00
      0.6401216923D+00  0.8137573261D+00
 Atom H8       Shell    24 S   1     bf   68 -    68         -3.523625076351          0.700504320212          0.000000000000
      0.1612777588D+00  0.1000000000D+01
 There are    50 symmetry adapted basis functions of A'  symmetry.
 There are    18 symmetry adapted basis functions of A"  symmetry.
 Integral buffers will be    262144 words long.
 Raffenetti 2 integral format.
 Two-electron integral symmetry is turned on.
    68 basis functions,   128 primitive gaussians,    68 cartesian basis functions
    16 alpha electrons       16 beta electrons
       nuclear repulsion energy       120.7352040715 Hartrees.
 NAtoms=    8 NActive=    8 NUniq=    7 SFac= 1.40D+00 NAtFMM=   60 Big=F
 One-electron integrals computed using PRISM.
 NBasis=    68 RedAO= T  NBF=    50    18
 NBsUse=    68 1.00D-06 NBFU=    50    18
 Initial guess read from the checkpoint file:
 aceticacid.chk
 Initial guess orbital symmetries:
       Occupied  (A') (A') (A') (A') (A') (A') (A') (A') (A') (A')
                 (A") (A') (A') (A") (A") (A')
       Virtual   (A") (A') (A') (A') (A") (A') (A') (A') (A") (A')
                 (A') (A') (A") (A') (A') (A') (A") (A') (A') (A")
                 (A') (A') (A") (A') (A') (A') (A") (A") (A') (A')
                 (A") (A') (A") (A') (A') (A') (A") (A') (A") (A')
                 (A') (A") (A') (A") (A') (A') (A') (A') (A') (A')
                 (A') (A')
 Warning!  Cutoffs for single-point calculations used.
 Requested convergence on RMS density matrix=1.00D-04 within 128 cycles.
 Requested convergence on MAX density matrix=1.00D-02.
 Requested convergence on             energy=5.00D-05.
 No special actions if energy rises.
 Keep R1 integrals in memory in canonical form, NReq=     3442601.
 SCF Done:  E(RB+HF-LYP) =  -229.081799464     A.U. after    1 cycles
             Convg  =    0.2528D-05             -V/T =  2.0089
             S**2   =   0.0000

 **********************************************************************

            Population analysis using the SCF density.

 **********************************************************************

 Orbital symmetries:
       Occupied  (A') (A') (A') (A') (A') (A') (A') (A') (A') (A')
                 (A") (A') (A') (A") (A") (A')
       Virtual   (A") (A') (A') (A') (A") (A') (A') (A') (A") (A')
                 (A') (A') (A") (A') (A') (A') (A") (A') (A') (A")
                 (A') (A') (A") (A') (A') (A') (A") (A") (A') (A')
                 (A") (A') (A") (A') (A') (A') (A") (A') (A") (A')
                 (A') (A") (A') (A") (A') (A') (A') (A') (A') (A')
                 (A') (A')
 The electronic state is 1-A'.
 Alpha  occ. eigenvalues --  -19.19565 -19.13911 -10.32364 -10.20055  -1.10413
 Alpha  occ. eigenvalues --   -1.01398  -0.75838  -0.60947  -0.48840  -0.47480
 Alpha  occ. eigenvalues --   -0.46710  -0.41241  -0.39326  -0.39195  -0.31846
 Alpha  occ. eigenvalues --   -0.27546
 Alpha virt. eigenvalues --    0.00979   0.07432   0.11545   0.15617   0.16983
 Alpha virt. eigenvalues --    0.21391   0.28864   0.33186   0.52252   0.54104
 Alpha virt. eigenvalues --    0.58308   0.60387   0.62026   0.67084   0.76108
 Alpha virt. eigenvalues --    0.78803   0.84542   0.85653   0.88996   0.92983
 Alpha virt. eigenvalues --    0.93353   0.96991   1.03403   1.06729   1.08906
 Alpha virt. eigenvalues --    1.33344   1.37580   1.40076   1.48769   1.57544
 Alpha virt. eigenvalues --    1.71400   1.73763   1.79812   1.80199   1.83963
 Alpha virt. eigenvalues --    1.89502   1.97674   2.04435   2.18822   2.21132
 Alpha virt. eigenvalues --    2.31655   2.43710   2.45773   2.64028   2.68712
 Alpha virt. eigenvalues --    2.81056   2.95251   3.06381   3.78761   4.01781
 Alpha virt. eigenvalues --    4.14455   4.43027
     Molecular Orbital Coefficients
                           1         2         3         4         5
                        (A')--O   (A')--O   (A')--O   (A')--O   (A')--O
     EIGENVALUES --   -19.19565 -19.13911 -10.32364 -10.20055  -1.10413
   1 1   C  1S          0.00002   0.00001   0.00084   0.99289  -0.01612
   2        2S          0.00018   0.00008  -0.00032   0.05033   0.02978
   3        2PX        -0.00009  -0.00003   0.00018  -0.00022  -0.01960
   4        2PY        -0.00001  -0.00001  -0.00020   0.00006   0.01624
   5        2PZ         0.00000   0.00000   0.00000   0.00000   0.00000
   6        3S         -0.00007  -0.00104   0.00540  -0.01801   0.00297
   7        3PX         0.00016   0.00097  -0.00220   0.00108   0.00114
   8        3PY        -0.00016   0.00019   0.00182  -0.00107  -0.00268
   9        3PZ         0.00000   0.00000   0.00000   0.00000   0.00000
  10        4XX        -0.00004   0.00000  -0.00030  -0.00918   0.00361
  11        4YY        -0.00004   0.00004  -0.00033  -0.00926   0.00292
  12        4ZZ         0.00005   0.00000  -0.00014  -0.00917  -0.00060
  13        4XY         0.00002   0.00001   0.00016   0.00005  -0.00455
  14        4XZ         0.00000   0.00000   0.00000   0.00000   0.00000
  15        4YZ         0.00000   0.00000   0.00000   0.00000   0.00000
  16 2   C  1S          0.00001  -0.00001   0.99294  -0.00113  -0.11765
  17        2S          0.00037   0.00042   0.04816  -0.00031   0.22930
  18        2PX        -0.00030  -0.00004  -0.00076  -0.00008  -0.07854
  19        2PY        -0.00013  -0.00008   0.00036   0.00012   0.05438
  20        2PZ         0.00000   0.00000   0.00000   0.00000   0.00000
  21        3S         -0.00141  -0.00292  -0.00737   0.00433   0.05649
  22        3PX         0.00162  -0.00038  -0.00276   0.00289   0.01942
  23        3PY         0.00128  -0.00413   0.00490  -0.00169  -0.01860
  24        3PZ         0.00000   0.00000   0.00000   0.00000   0.00000
  25        4XX         0.00006  -0.00007  -0.00875  -0.00039   0.00305
  26        4YY         0.00010  -0.00093  -0.00819  -0.00041   0.00417
  27        4ZZ         0.00000  -0.00005  -0.00955  -0.00016  -0.02068
  28        4XY         0.00007  -0.00015   0.00034   0.00017   0.01268
  29        4XZ         0.00000   0.00000   0.00000   0.00000   0.00000
  30        4YZ         0.00000   0.00000   0.00000   0.00000   0.00000
  31 3   O  1S          0.99274   0.00010  -0.00002  -0.00006  -0.16137
  32        2S          0.02591   0.00008   0.00034  -0.00034   0.35787
  33        2PX         0.00010   0.00004  -0.00013  -0.00011   0.04770
  34        2PY         0.00096  -0.00006   0.00006   0.00003   0.09633
  35        2PZ         0.00000   0.00000   0.00000   0.00000   0.00000
  36        3S          0.01241  -0.00053  -0.00096   0.00130   0.33839
  37        3PX         0.00080  -0.00035  -0.00072   0.00069   0.02294
  38        3PY         0.00009   0.00046  -0.00151   0.00011   0.05112
  39        3PZ         0.00000   0.00000   0.00000   0.00000   0.00000
  40        4XX        -0.00808   0.00005  -0.00048  -0.00005   0.01097
  41        4YY        -0.00814   0.00001  -0.00006  -0.00014   0.00986
  42        4ZZ        -0.00809   0.00002   0.00042  -0.00030  -0.00812
  43        4XY         0.00000  -0.00003  -0.00042   0.00002  -0.00062
  44        4XZ         0.00000   0.00000   0.00000   0.00000   0.00000
  45        4YZ         0.00000   0.00000   0.00000   0.00000   0.00000
  46 4   O  1S         -0.00005   0.99271  -0.00010  -0.00002  -0.10274
  47        2S          0.00019   0.02554   0.00062  -0.00009   0.22171
  48        2PX         0.00007  -0.00023  -0.00008   0.00002  -0.02616
  49        2PY         0.00000  -0.00117   0.00001  -0.00001  -0.09615
  50        2PZ         0.00000   0.00000   0.00000   0.00000   0.00000
  51        3S         -0.00104   0.01500  -0.00443   0.00018   0.20311
  52        3PX        -0.00028  -0.00035   0.00119  -0.00054  -0.01754
  53        3PY         0.00036  -0.00189   0.00213  -0.00004  -0.03392
  54        3PZ         0.00000   0.00000   0.00000   0.00000   0.00000
  55        4XX         0.00007  -0.00823   0.00033   0.00000  -0.00482
  56        4YY        -0.00001  -0.00766  -0.00005   0.00005   0.00738
  57        4ZZ         0.00013  -0.00827   0.00051  -0.00014  -0.00425
  58        4XY        -0.00003   0.00012  -0.00026   0.00009   0.00540
  59        4XZ         0.00000   0.00000   0.00000   0.00000   0.00000
  60        4YZ         0.00000   0.00000   0.00000   0.00000   0.00000
  61 5   H  1S          0.00003   0.00000  -0.00015  -0.00001   0.00554
  62        2S         -0.00023  -0.00035   0.00021   0.00268  -0.00140
  63 6   H  1S          0.00006   0.00005  -0.00022  -0.00002   0.00560
  64        2S         -0.00002   0.00010   0.00025   0.00277   0.00022
  65 7   H  1S          0.00006   0.00005  -0.00022  -0.00002   0.00560
  66        2S         -0.00002   0.00010   0.00025   0.00277   0.00022
  67 8   H  1S          0.00042  -0.00006   0.00028   0.00004   0.09382
  68        2S         -0.00104  -0.00006   0.00007   0.00037  -0.00227
                           6         7         8         9        10
                        (A')--O   (A')--O   (A')--O   (A')--O   (A')--O
     EIGENVALUES --    -1.01398  -0.75838  -0.60947  -0.48840  -0.47480
   1 1   C  1S         -0.00533  -0.17711   0.08004  -0.01810  -0.02035
   2        2S          0.01019   0.34186  -0.15527   0.03348   0.03810
   3        2PX         0.00255  -0.04171  -0.12074   0.03835   0.11993
   4        2PY         0.01421   0.02591   0.05814  -0.25530  -0.15152
   5        2PZ         0.00000   0.00000   0.00000   0.00000   0.00000
   6        3S         -0.00545   0.30569  -0.18240   0.05092   0.08216
   7        3PX         0.01615  -0.00199  -0.03592  -0.00987   0.06578
   8        3PY         0.00828   0.00054   0.01410  -0.10935  -0.05820
   9        3PZ         0.00000   0.00000   0.00000   0.00000   0.00000
  10        4XX        -0.00168   0.00054   0.00511  -0.00492  -0.00250
  11        4YY         0.00446  -0.00034   0.00051  -0.00568  -0.00178
  12        4ZZ        -0.00078   0.00027  -0.00415   0.01168   0.00742
  13        4XY        -0.00154  -0.00008  -0.01134   0.00930   0.00687
  14        4XZ         0.00000   0.00000   0.00000   0.00000   0.00000
  15        4YZ         0.00000   0.00000   0.00000   0.00000   0.00000
  16 2   C  1S         -0.05449  -0.07428  -0.09346   0.08829  -0.02108
  17        2S          0.10873   0.15709   0.21074  -0.21049   0.05411
  18        2PX         0.11158   0.09549  -0.15456  -0.22560  -0.26298
  19        2PY         0.20766  -0.17258  -0.11969  -0.07749   0.17016
  20        2PZ         0.00000   0.00000   0.00000   0.00000   0.00000
  21        3S          0.03426   0.10423   0.15555  -0.16336   0.03026
  22        3PX        -0.00463   0.01532  -0.01672  -0.06441  -0.08926
  23        3PY        -0.03219  -0.03838  -0.03555   0.01876   0.06817
  24        3PZ         0.00000   0.00000   0.00000   0.00000   0.00000
  25        4XX        -0.03004   0.00151  -0.00232   0.00580   0.00580
  26        4YY         0.02465  -0.00196  -0.00769   0.01444  -0.00682
  27        4ZZ        -0.00983  -0.00602  -0.01080   0.00531  -0.00540
  28        4XY        -0.00299  -0.00914   0.01612   0.00982  -0.01105
  29        4XZ         0.00000   0.00000   0.00000   0.00000   0.00000
  30        4YZ         0.00000   0.00000   0.00000   0.00000   0.00000
  31 3   O  1S          0.12910   0.02705   0.02268  -0.02282   0.06186
  32        2S         -0.28818  -0.06221  -0.05272   0.05476  -0.13132
  33        2PX        -0.00452   0.11743   0.41449   0.16086   0.12286
  34        2PY        -0.05498  -0.06246  -0.08583  -0.12553   0.35539
  35        2PZ         0.00000   0.00000   0.00000   0.00000   0.00000
  36        3S         -0.29483  -0.08123  -0.07273   0.07787  -0.25465
  37        3PX        -0.00027   0.05034   0.20776   0.08693   0.07282
  38        3PY        -0.02076  -0.02927  -0.04394  -0.08623   0.21483
  39        3PZ         0.00000   0.00000   0.00000   0.00000   0.00000
  40        4XX        -0.00287   0.00588   0.00719  -0.00149  -0.00532
  41        4YY        -0.00360  -0.00774  -0.01342  -0.00946   0.02866
  42        4ZZ         0.00525   0.00115   0.00078   0.00270  -0.00162
  43        4XY         0.00960   0.00692   0.02692   0.00584   0.01420
  44        4XZ         0.00000   0.00000   0.00000   0.00000   0.00000
  45        4YZ         0.00000   0.00000   0.00000   0.00000   0.00000
  46 4   O  1S         -0.16896   0.04150   0.03124  -0.08995   0.04785
  47        2S          0.36454  -0.09403  -0.06922   0.19641  -0.09906
  48        2PX        -0.01263   0.03193  -0.03766  -0.06360  -0.22738
  49        2PY        -0.13160  -0.00809  -0.04114   0.32210  -0.14366
  50        2PZ         0.00000   0.00000   0.00000   0.00000   0.00000
  51        3S          0.35934  -0.09538  -0.09016   0.33798  -0.21198
  52        3PX        -0.00358   0.01306  -0.02037  -0.03537  -0.12798
  53        3PY        -0.04575  -0.01110  -0.02658   0.16698  -0.06284
  54        3PZ         0.00000   0.00000   0.00000   0.00000   0.00000
  55        4XX        -0.00935  -0.00074   0.00042   0.00109   0.00722
  56        4YY         0.00606   0.00389   0.00596  -0.02872   0.00995
  57        4ZZ        -0.00713   0.00040   0.00048   0.00140   0.00022
  58        4XY         0.00127  -0.00329   0.00577   0.00414   0.01636
  59        4XZ         0.00000   0.00000   0.00000   0.00000   0.00000
  60        4YZ         0.00000   0.00000   0.00000   0.00000   0.00000
  61 5   H  1S          0.00441   0.10315  -0.10043  -0.02116   0.04374
  62        2S         -0.00363   0.01557  -0.04505   0.00185   0.00443
  63 6   H  1S          0.00110   0.10987  -0.07279   0.09981   0.06450
  64        2S         -0.00001   0.02124  -0.02913   0.06714   0.03399
  65 7   H  1S          0.00110   0.10987  -0.07279   0.09981   0.06450
  66        2S         -0.00001   0.02124  -0.02913   0.06714   0.03399
  67 8   H  1S         -0.07998  -0.07328  -0.19237  -0.09491   0.06453
  68        2S          0.00425  -0.01945  -0.08552  -0.04320   0.02819
                          11        12        13        14        15
                        (A")--O   (A')--O   (A')--O   (A")--O   (A")--O
     EIGENVALUES --    -0.46710  -0.41241  -0.39326  -0.39195  -0.31846
   1 1   C  1S          0.00000  -0.00196  -0.01129   0.00000   0.00000
   2        2S          0.00000   0.00346   0.02145   0.00000   0.00000
   3        2PX         0.00000   0.36398  -0.16882   0.00000   0.00000
   4        2PY         0.00000   0.23700   0.15091   0.00000   0.00000
   5        2PZ         0.29208   0.00000   0.00000   0.34414   0.02632
   6        3S          0.00000   0.00847   0.11107   0.00000   0.00000
   7        3PX         0.00000   0.16314  -0.09816   0.00000   0.00000
   8        3PY         0.00000   0.10780   0.08882   0.00000   0.00000
   9        3PZ         0.12785   0.00000   0.00000   0.18280  -0.01791
  10        4XX         0.00000   0.02104   0.00264   0.00000   0.00000
  11        4YY         0.00000  -0.00562  -0.00262   0.00000   0.00000
  12        4ZZ         0.00000  -0.01445  -0.00517   0.00000   0.00000
  13        4XY         0.00000   0.01332  -0.01041   0.00000   0.00000
  14        4XZ        -0.00975   0.00000   0.00000  -0.00166  -0.00043
  15        4YZ        -0.00955   0.00000   0.00000  -0.02322  -0.00603
  16 2   C  1S          0.00000   0.02251  -0.01086   0.00000   0.00000
  17        2S          0.00000  -0.05384   0.02554   0.00000   0.00000
  18        2PX         0.00000  -0.10313   0.02832   0.00000   0.00000
  19        2PY         0.00000  -0.03070  -0.30679   0.00000   0.00000
  20        2PZ         0.30321   0.00000   0.00000  -0.17649  -0.13360
  21        3S          0.00000  -0.04969   0.03268   0.00000   0.00000
  22        3PX         0.00000  -0.01582  -0.00397   0.00000   0.00000
  23        3PY         0.00000   0.02917   0.02866   0.00000   0.00000
  24        3PZ         0.14479   0.00000   0.00000  -0.11091  -0.06369
  25        4XX         0.00000   0.02087   0.01771   0.00000   0.00000
  26        4YY         0.00000  -0.01265  -0.01361   0.00000   0.00000
  27        4ZZ         0.00000  -0.00042   0.00387   0.00000   0.00000
  28        4XY         0.00000   0.01035  -0.01743   0.00000   0.00000
  29        4XZ        -0.00369   0.00000   0.00000   0.01740  -0.02144
  30        4YZ         0.00081   0.00000   0.00000  -0.01488  -0.03448
  31 3   O  1S          0.00000  -0.01718   0.05844   0.00000   0.00000
  32        2S          0.00000   0.04038  -0.12076   0.00000   0.00000
  33        2PX         0.00000   0.15545   0.00376   0.00000   0.00000
  34        2PY         0.00000  -0.01074   0.37877   0.00000   0.00000
  35        2PZ         0.26468   0.00000   0.00000  -0.31745   0.46560
  36        3S          0.00000   0.08399  -0.26486   0.00000   0.00000
  37        3PX         0.00000   0.09681   0.01988   0.00000   0.00000
  38        3PY         0.00000  -0.00594   0.23293   0.00000   0.00000
  39        3PZ         0.17133   0.00000   0.00000  -0.21878   0.35866
  40        4XX         0.00000  -0.00322   0.00442   0.00000   0.00000
  41        4YY         0.00000  -0.00447   0.02564   0.00000   0.00000
  42        4ZZ         0.00000  -0.00020  -0.00041   0.00000   0.00000
  43        4XY         0.00000   0.00929  -0.00412   0.00000   0.00000
  44        4XZ         0.00971   0.00000   0.00000  -0.00612   0.00282
  45        4YZ         0.01456   0.00000   0.00000  -0.01805   0.01844
  46 4   O  1S          0.00000  -0.01524  -0.03670   0.00000   0.00000
  47        2S          0.00000   0.03110   0.07444   0.00000   0.00000
  48        2PX         0.00000   0.01362   0.06029   0.00000   0.00000
  49        2PY         0.00000   0.12414   0.35360   0.00000   0.00000
  50        2PZ         0.22088   0.00000   0.00000  -0.21380  -0.44747
  51        3S          0.00000   0.05904   0.14397   0.00000   0.00000
  52        3PX         0.00000   0.01065   0.03362   0.00000   0.00000
  53        3PY         0.00000   0.07024   0.20326   0.00000   0.00000
  54        3PZ         0.12222   0.00000   0.00000  -0.13058  -0.31431
  55        4XX         0.00000   0.00164   0.00139   0.00000   0.00000
  56        4YY         0.00000  -0.00850  -0.02014   0.00000   0.00000
  57        4ZZ         0.00000   0.00000   0.00166   0.00000   0.00000
  58        4XY         0.00000   0.00031  -0.00787   0.00000   0.00000
  59        4XZ        -0.00354   0.00000   0.00000   0.00414   0.00339
  60        4YZ        -0.01771   0.00000   0.00000   0.01381   0.02463
  61 5   H  1S          0.00000   0.28125  -0.04810   0.00000   0.00000
  62        2S          0.00000   0.22787  -0.04487   0.00000   0.00000
  63 6   H  1S          0.13958  -0.11257  -0.04168   0.19077   0.02323
  64        2S          0.10433  -0.08947  -0.05060   0.15358   0.05735
  65 7   H  1S         -0.13958  -0.11257  -0.04168  -0.19077  -0.02323
  66        2S         -0.10433  -0.08947  -0.05060  -0.15358  -0.05735
  67 8   H  1S          0.00000  -0.06094   0.14416   0.00000   0.00000
  68        2S          0.00000  -0.04987   0.10669   0.00000   0.00000
                          16        17        18        19        20
                        (A')--O   (A")--V   (A')--V   (A')--V   (A')--V
     EIGENVALUES --    -0.27546   0.00979   0.07432   0.11545   0.15617
   1 1   C  1S          0.02519   0.00000   0.06242  -0.13101   0.01970
   2        2S         -0.04935   0.00000  -0.08717   0.16282  -0.02729
   3        2PX         0.08307   0.00000   0.01752   0.05414  -0.35612
   4        2PY        -0.17224   0.00000  -0.04045  -0.19391  -0.17309
   5        2PZ         0.00000   0.01970   0.00000   0.00000   0.00000
   6        3S         -0.18475   0.00000  -0.88774   2.11115  -0.36490
   7        3PX         0.05434   0.00000  -0.09096   0.08169  -1.16540
   8        3PY        -0.12420   0.00000  -0.12160  -0.63083  -0.62327
   9        3PZ         0.00000   0.20925   0.00000   0.00000   0.00000
  10        4XX        -0.00452   0.00000   0.01450   0.00102   0.02082
  11        4YY         0.00478   0.00000  -0.00378  -0.00976  -0.00510
  12        4ZZ         0.00556   0.00000   0.00002  -0.01803  -0.00983
  13        4XY         0.00323   0.00000   0.00437  -0.00098   0.01381
  14        4XZ         0.00000  -0.01869   0.00000   0.00000   0.00000
  15        4YZ         0.00000   0.03159   0.00000   0.00000   0.00000
  16 2   C  1S          0.01272   0.00000  -0.01862   0.01556   0.02069
  17        2S         -0.03004   0.00000   0.00365   0.04640  -0.00329
  18        2PX        -0.04744   0.00000  -0.05607  -0.02079  -0.08092
  19        2PY         0.04866   0.00000  -0.04827  -0.02754  -0.01803
  20        2PZ         0.00000   0.55566   0.00000   0.00000   0.00000
  21        3S         -0.03998   0.00000   0.35046  -0.50763  -0.45645
  22        3PX         0.12636   0.00000   0.08424   0.08467  -0.00861
  23        3PY         0.03299   0.00000  -0.05509  -0.10430   0.10998
  24        3PZ         0.00000   0.49584   0.00000   0.00000   0.00000
  25        4XX         0.01751   0.00000  -0.01644  -0.00320  -0.01792
  26        4YY        -0.01512   0.00000   0.00992   0.01665   0.03085
  27        4ZZ        -0.00305   0.00000   0.00366  -0.00518  -0.00690
  28        4XY         0.04481   0.00000   0.01094   0.00061  -0.00575
  29        4XZ         0.00000   0.00823   0.00000   0.00000   0.00000
  30        4YZ         0.00000  -0.02426   0.00000   0.00000   0.00000
  31 3   O  1S         -0.01285   0.00000   0.08268   0.01116  -0.00396
  32        2S          0.01938   0.00000  -0.13759  -0.01026  -0.03470
  33        2PX         0.16270   0.00000   0.16550   0.08793  -0.10172
  34        2PY         0.19399   0.00000  -0.22834  -0.08268   0.07561
  35        2PZ         0.00000  -0.23241   0.00000   0.00000   0.00000
  36        3S          0.16337   0.00000  -0.93831  -0.12091   0.25014
  37        3PX         0.13053   0.00000   0.27863   0.17815  -0.08046
  38        3PY         0.16341   0.00000  -0.41461  -0.05926   0.12691
  39        3PZ         0.00000  -0.24341   0.00000   0.00000   0.00000
  40        4XX        -0.00949   0.00000   0.03115   0.01901  -0.00511
  41        4YY         0.00319   0.00000   0.00961   0.00460  -0.00583
  42        4ZZ        -0.00790   0.00000   0.03203   0.00226  -0.02213
  43        4XY         0.00707   0.00000   0.00078   0.00406  -0.00956
  44        4XZ         0.00000   0.02118   0.00000   0.00000   0.00000
  45        4YZ         0.00000  -0.00298   0.00000   0.00000   0.00000
  46 4   O  1S         -0.00179   0.00000   0.01449  -0.01830  -0.01401
  47        2S          0.01206   0.00000  -0.03483   0.02251   0.03061
  48        2PX         0.57894   0.00000   0.08831   0.06203  -0.02237
  49        2PY        -0.09837   0.00000  -0.03076  -0.06665  -0.07558
  50        2PZ         0.00000  -0.39035   0.00000   0.00000   0.00000
  51        3S         -0.02345   0.00000  -0.12701   0.27640   0.11549
  52        3PX         0.39904   0.00000   0.07435   0.00751   0.00152
  53        3PY        -0.05887   0.00000   0.03765  -0.15150  -0.10744
  54        3PZ         0.00000  -0.40383   0.00000   0.00000   0.00000
  55        4XX        -0.00546   0.00000   0.00575  -0.00858   0.00130
  56        4YY         0.00874   0.00000  -0.01065   0.00008  -0.00463
  57        4ZZ         0.00267   0.00000   0.00392  -0.01110  -0.00566
  58        4XY        -0.02098   0.00000  -0.00439   0.00237   0.00470
  59        4XZ         0.00000   0.00188   0.00000   0.00000   0.00000
  60        4YZ         0.00000  -0.00616   0.00000   0.00000   0.00000
  61 5   H  1S         -0.02025   0.00000   0.04843   0.01012   0.13191
  62        2S          0.03183   0.00000   0.52684  -0.56751   1.94244
  63 6   H  1S          0.04611  -0.10640  -0.01375  -0.05148  -0.03994
  64        2S          0.06063  -0.37363   0.24181  -1.29091  -0.51469
  65 7   H  1S          0.04611   0.10640  -0.01375  -0.05148  -0.03994
  66        2S          0.06063   0.37363   0.24181  -1.29091  -0.51469
  67 8   H  1S          0.00223   0.00000   0.16604   0.04806   0.00378
  68        2S         -0.08037   0.00000   1.39511   0.45687  -0.32333
                          21        22        23        24        25
                        (A")--V   (A')--V   (A')--V   (A')--V   (A")--V
     EIGENVALUES --     0.16983   0.21391   0.28864   0.33186   0.52252
   1 1   C  1S          0.00000   0.07406  -0.05752   0.00040   0.00000
   2        2S          0.00000  -0.04840   0.00017  -0.07530   0.00000
   3        2PX         0.00000   0.12356   0.05106  -0.01767   0.00000
   4        2PY         0.00000  -0.24316  -0.06799  -0.19181   0.00000
   5        2PZ        -0.43368   0.00000   0.00000   0.00000  -0.40314
   6        3S          0.00000  -1.33853   1.57724   0.66387   0.00000
   7        3PX         0.00000   1.04874  -0.74733  -0.82993   0.00000
   8        3PY         0.00000  -1.16664   0.92858  -0.56540   0.00000
   9        3PZ        -1.37453   0.00000   0.00000   0.00000   0.72927
  10        4XX         0.00000   0.01609  -0.00893  -0.04917   0.00000
  11        4YY         0.00000   0.00485  -0.02867   0.04192   0.00000
  12        4ZZ         0.00000  -0.00723   0.01581  -0.00167   0.00000
  13        4XY         0.00000  -0.03400   0.02473  -0.00998   0.00000
  14        4XZ        -0.01363   0.00000   0.00000   0.00000   0.03208
  15        4YZ        -0.00693   0.00000   0.00000   0.00000   0.06304
  16 2   C  1S          0.00000  -0.15763  -0.03792   0.00284   0.00000
  17        2S          0.00000   0.24040  -0.05230  -0.10129   0.00000
  18        2PX         0.00000   0.02309  -0.51937   0.35272   0.00000
  19        2PY         0.00000  -0.24626   0.18784   0.19905   0.00000
  20        2PZ         0.18002   0.00000   0.00000   0.00000  -0.81039
  21        3S          0.00000   2.75244   0.67454   0.86679   0.00000
  22        3PX         0.00000   0.34498  -1.56943   1.00280   0.00000
  23        3PY         0.00000  -0.78599   1.27266   2.56291   0.00000
  24        3PZ         0.42807   0.00000   0.00000   0.00000   0.82532
  25        4XX         0.00000  -0.02167  -0.02466   0.00943   0.00000
  26        4YY         0.00000  -0.01150  -0.01958  -0.00316   0.00000
  27        4ZZ         0.00000   0.02125   0.02852   0.00151   0.00000
  28        4XY         0.00000  -0.00699  -0.00895   0.01395   0.00000
  29        4XZ        -0.01532   0.00000   0.00000   0.00000   0.02441
  30        4YZ         0.00370   0.00000   0.00000   0.00000  -0.00644
  31 3   O  1S          0.00000   0.04099   0.05625  -0.05569   0.00000
  32        2S          0.00000  -0.06624  -0.11900   0.08735   0.00000
  33        2PX         0.00000  -0.27439  -0.26850   0.14610   0.00000
  34        2PY         0.00000  -0.03770  -0.11098  -0.03733   0.00000
  35        2PZ        -0.12167   0.00000   0.00000   0.00000  -0.08799
  36        3S          0.00000  -0.53743  -0.75094   0.96857   0.00000
  37        3PX         0.00000  -0.56910  -0.55027   0.58805   0.00000
  38        3PY         0.00000  -0.02100  -0.40595  -0.11360   0.00000
  39        3PZ        -0.11336   0.00000   0.00000   0.00000  -0.07515
  40        4XX         0.00000   0.02264  -0.00535  -0.03051   0.00000
  41        4YY         0.00000  -0.00450  -0.00172  -0.01490   0.00000
  42        4ZZ         0.00000   0.01746   0.02416  -0.00213   0.00000
  43        4XY         0.00000   0.00085   0.01474   0.00400   0.00000
  44        4XZ         0.01156   0.00000   0.00000   0.00000  -0.02989
  45        4YZ        -0.00340   0.00000   0.00000   0.00000  -0.02363
  46 4   O  1S          0.00000   0.02773   0.06082   0.10563   0.00000
  47        2S          0.00000  -0.05930  -0.07849  -0.10409   0.00000
  48        2PX         0.00000   0.01773   0.19997  -0.11735   0.00000
  49        2PY         0.00000   0.14259   0.07759   0.11294   0.00000
  50        2PZ        -0.08208   0.00000   0.00000   0.00000  -0.08480
  51        3S          0.00000  -0.28856  -1.10193  -2.31003   0.00000
  52        3PX         0.00000  -0.02838   0.53802  -0.04744   0.00000
  53        3PY         0.00000   0.27710   0.40950   0.91755   0.00000
  54        3PZ        -0.15710   0.00000   0.00000   0.00000  -0.05294
  55        4XX         0.00000  -0.00350   0.02474   0.05778   0.00000
  56        4YY         0.00000  -0.00456  -0.00431  -0.00737   0.00000
  57        4ZZ         0.00000   0.01733   0.03796   0.05755   0.00000
  58        4XY         0.00000   0.00286   0.00344  -0.02905   0.00000
  59        4XZ        -0.00613   0.00000   0.00000   0.00000   0.01973
  60        4YZ        -0.00124   0.00000   0.00000   0.00000   0.04946
  61 5   H  1S          0.00000  -0.03629   0.04545  -0.12868   0.00000
  62        2S          0.00000   0.11593  -0.17781   0.60397   0.00000
  63 6   H  1S          0.06728  -0.05802   0.03495   0.03185  -0.28566
  64        2S          1.49023  -0.23777  -0.07294  -0.41930  -0.13136
  65 7   H  1S         -0.06728  -0.05802   0.03495   0.03185   0.28566
  66        2S         -1.49023  -0.23777  -0.07294  -0.41930   0.13136
  67 8   H  1S          0.00000  -0.05169  -0.08961  -0.04122   0.00000
  68        2S          0.00000  -0.27164  -0.38395   0.08995   0.00000
                          26        27        28        29        30
                        (A')--V   (A')--V   (A')--V   (A")--V   (A')--V
     EIGENVALUES --     0.54104   0.58308   0.60387   0.62026   0.67084
   1 1   C  1S         -0.01680  -0.02588   0.00797   0.00000  -0.00434
   2        2S          0.24541   0.20010  -0.08786   0.00000  -0.04815
   3        2PX        -0.64111  -0.22575   0.53368   0.00000  -0.11050
   4        2PY         0.31257   0.75246   0.39123   0.00000  -0.09155
   5        2PZ         0.00000   0.00000   0.00000  -0.68312   0.00000
   6        3S         -0.70955   0.39938   0.19658   0.00000   0.93495
   7        3PX         1.02280  -0.07801  -1.62260   0.00000   0.06117
   8        3PY        -0.48986  -1.29957  -1.27523   0.00000   0.57443
   9        3PZ         0.00000   0.00000   0.00000   1.81453   0.00000
  10        4XX        -0.04259   0.04863   0.04690   0.00000   0.05000
  11        4YY         0.00595   0.02346   0.03692   0.00000  -0.04355
  12        4ZZ         0.05227  -0.05528  -0.08169   0.00000  -0.00377
  13        4XY        -0.00746   0.00875   0.03754   0.00000  -0.04795
  14        4XZ         0.00000   0.00000   0.00000   0.05671   0.00000
  15        4YZ         0.00000   0.00000   0.00000   0.07724   0.00000
  16 2   C  1S          0.01868   0.03866  -0.00736   0.00000   0.06127
  17        2S          0.30543  -0.30538   0.52413   0.00000  -0.54535
  18        2PX        -0.59649   0.28582  -0.43221   0.00000   0.01097
  19        2PY         0.02814   0.21149  -0.26377   0.00000  -0.89928
  20        2PZ         0.00000   0.00000   0.00000   0.54287   0.00000
  21        3S         -0.11648   1.40431  -1.27523   0.00000   0.11986
  22        3PX         1.27873  -0.63003   2.02564   0.00000  -0.79895
  23        3PY        -0.20578   0.88309   1.67157   0.00000   1.40614
  24        3PZ         0.00000   0.00000   0.00000  -1.30766   0.00000
  25        4XX         0.04693   0.06209  -0.04588   0.00000  -0.11547
  26        4YY         0.04767   0.05375   0.05476   0.00000   0.16772
  27        4ZZ        -0.01946  -0.05279   0.01740   0.00000  -0.06526
  28        4XY        -0.08736  -0.04610  -0.02632   0.00000   0.03637
  29        4XZ         0.00000   0.00000   0.00000   0.01906   0.00000
  30        4YZ         0.00000   0.00000   0.00000   0.00281   0.00000
  31 3   O  1S         -0.01147  -0.00838  -0.01563   0.00000   0.00417
  32        2S          0.06796   0.00375  -0.18996   0.00000   0.10113
  33        2PX        -0.02010   0.01603  -0.21438   0.00000  -0.12517
  34        2PY        -0.19400   0.06389  -0.03111   0.00000  -0.07422
  35        2PZ         0.00000   0.00000   0.00000   0.20379   0.00000
  36        3S          0.38244  -0.19680   1.63540   0.00000  -0.24197
  37        3PX         0.11672  -0.01313   0.68107   0.00000   0.08981
  38        3PY         0.16274  -0.22724   0.09578   0.00000  -0.16425
  39        3PZ         0.00000   0.00000   0.00000   0.05889   0.00000
  40        4XX         0.07256  -0.10396   0.07427   0.00000   0.07042
  41        4YY         0.01157   0.02528  -0.06344   0.00000   0.00949
  42        4ZZ        -0.01526   0.01970  -0.14256   0.00000   0.03547
  43        4XY         0.09218  -0.01690   0.01802   0.00000  -0.03852
  44        4XZ         0.00000   0.00000   0.00000   0.02424   0.00000
  45        4YZ         0.00000   0.00000   0.00000  -0.01494   0.00000
  46 4   O  1S         -0.00169   0.02901   0.01474   0.00000  -0.03323
  47        2S         -0.02054  -0.00030  -0.01522   0.00000   0.12152
  48        2PX         0.05010   0.21388  -0.06578   0.00000   0.00480
  49        2PY         0.01265  -0.09231  -0.06034   0.00000  -0.43374
  50        2PZ         0.00000   0.00000   0.00000   0.11728   0.00000
  51        3S          0.10492  -0.96367  -0.76726   0.00000  -0.50822
  52        3PX        -0.16497   0.20040  -0.25052   0.00000   0.13286
  53        3PY        -0.00881   0.45147   0.18443   0.00000  -0.11499
  54        3PZ         0.00000   0.00000   0.00000   0.17026   0.00000
  55        4XX         0.02075   0.01025   0.01628   0.00000   0.04808
  56        4YY        -0.02300  -0.02238  -0.03435   0.00000  -0.18248
  57        4ZZ        -0.02266   0.02969   0.00317   0.00000   0.06732
  58        4XY         0.05096   0.00041   0.03193   0.00000  -0.05422
  59        4XZ         0.00000   0.00000   0.00000   0.02087   0.00000
  60        4YZ         0.00000   0.00000   0.00000  -0.03879   0.00000
  61 5   H  1S         -0.27569   0.13452   0.26856   0.00000  -0.07680
  62        2S         -0.10428   0.18060   0.59490   0.00000  -0.33529
  63 6   H  1S          0.07519  -0.23598  -0.10127  -0.27729  -0.02991
  64        2S         -0.01988  -0.26626  -0.28680  -0.41336   0.19499
  65 7   H  1S          0.07519  -0.23598  -0.10127   0.27729  -0.02991
  66        2S         -0.01988  -0.26626  -0.28680   0.41336   0.19499
  67 8   H  1S         -0.21706  -0.06299   0.14105   0.00000   0.07481
  68        2S          0.50777  -0.19460   0.18426   0.00000  -0.29650
                          31        32        33        34        35
                        (A')--V   (A')--V   (A")--V   (A')--V   (A')--V
     EIGENVALUES --     0.76108   0.78803   0.84542   0.85653   0.88996
   1 1   C  1S         -0.04148  -0.03396   0.00000   0.01051   0.00920
   2        2S          0.11566  -0.10280   0.00000   0.10609   0.13494
   3        2PX         0.05627  -0.13678   0.00000  -0.33388   0.35328
   4        2PY        -0.02422   0.01954   0.00000  -0.38580   0.34629
   5        2PZ         0.00000   0.00000   0.76305   0.00000   0.00000
   6        3S         -1.10919   0.00309   0.00000  -0.46944  -0.03220
   7        3PX         0.62656   0.63155   0.00000   0.63379  -0.40633
   8        3PY        -0.89407  -0.30437   0.00000   0.64880  -0.05750
   9        3PZ         0.00000   0.00000  -1.10416   0.00000   0.00000
  10        4XX        -0.01856  -0.00948   0.00000   0.13214  -0.09635
  11        4YY        -0.03414  -0.05752   0.00000  -0.06301  -0.02520
  12        4ZZ         0.00558   0.00509   0.00000  -0.05607   0.14478
  13        4XY         0.05424   0.01848   0.00000   0.04977  -0.09554
  14        4XZ         0.00000   0.00000   0.00847   0.00000   0.00000
  15        4YZ         0.00000   0.00000   0.19733   0.00000   0.00000
  16 2   C  1S          0.02258  -0.02692   0.00000   0.02979   0.03464
  17        2S         -0.93767  -0.46257   0.00000   0.45634   0.34878
  18        2PX        -0.43299  -0.18840   0.00000   0.01351   0.07279
  19        2PY         0.18758   0.32845   0.00000   0.27183   0.02378
  20        2PZ         0.00000   0.00000   0.06856   0.00000   0.00000
  21        3S          2.56948   1.11698   0.00000   0.05938   0.25515
  22        3PX         1.29901   0.49027   0.00000   0.21601  -0.97698
  23        3PY        -0.87649  -0.49755   0.00000  -0.16163  -0.01087
  24        3PZ         0.00000   0.00000  -0.05363   0.00000   0.00000
  25        4XX        -0.01119  -0.13874   0.00000  -0.06113   0.05912
  26        4YY         0.01625   0.01358   0.00000   0.22420   0.15783
  27        4ZZ        -0.05181   0.00964   0.00000  -0.02873  -0.04556
  28        4XY         0.03215  -0.03750   0.00000   0.05296   0.05722
  29        4XZ         0.00000   0.00000   0.06664   0.00000   0.00000
  30        4YZ         0.00000   0.00000  -0.05151   0.00000   0.00000
  31 3   O  1S         -0.00276   0.01629   0.00000  -0.00163   0.02258
  32        2S         -0.15610  -0.13708   0.00000   0.24361  -0.20842
  33        2PX         0.13829  -0.00759   0.00000  -0.06426   0.22498
  34        2PY         0.47412  -0.50261   0.00000   0.04922   0.06556
  35        2PZ         0.00000   0.00000  -0.15549   0.00000   0.00000
  36        3S          0.13969   0.19985   0.00000  -0.36915  -0.15360
  37        3PX        -0.38394   0.30690   0.00000   0.14389  -0.61638
  38        3PY        -0.28454   0.35604   0.00000  -0.02773  -0.21832
  39        3PZ         0.00000   0.00000   0.20208   0.00000   0.00000
  40        4XX        -0.08251   0.01118   0.00000   0.10477  -0.04997
  41        4YY        -0.10585   0.06115   0.00000   0.02739  -0.05192
  42        4ZZ        -0.01966  -0.07511   0.00000   0.05657  -0.05863
  43        4XY        -0.00544  -0.11408   0.00000  -0.00527  -0.06525
  44        4XZ         0.00000   0.00000  -0.00323   0.00000   0.00000
  45        4YZ         0.00000   0.00000  -0.02768   0.00000   0.00000
  46 4   O  1S         -0.00401   0.00773   0.00000   0.01363  -0.00159
  47        2S          0.05492  -0.05902   0.00000  -0.36896  -0.19658
  48        2PX        -0.30490  -0.08810   0.00000  -0.04163  -0.11414
  49        2PY        -0.15280   0.04483   0.00000  -0.47457  -0.42896
  50        2PZ         0.00000   0.00000   0.27237   0.00000   0.00000
  51        3S         -0.26466  -0.02476   0.00000   0.35891   0.27264
  52        3PX         0.02285   0.04051   0.00000   0.05335   0.34759
  53        3PY         0.24236   0.14139   0.00000   1.04066   0.70994
  54        3PZ         0.00000   0.00000  -0.23684   0.00000   0.00000
  55        4XX         0.01032  -0.01794   0.00000  -0.14541  -0.09093
  56        4YY        -0.06442  -0.00726   0.00000  -0.16010  -0.12669
  57        4ZZ         0.05174  -0.00204   0.00000  -0.13028  -0.08617
  58        4XY        -0.00310   0.04127   0.00000  -0.01989  -0.00266
  59        4XZ         0.00000   0.00000  -0.00952   0.00000   0.00000
  60        4YZ         0.00000   0.00000   0.01217   0.00000   0.00000
  61 5   H  1S         -0.22412  -0.14698   0.00000   0.51424  -0.58982
  62        2S         -0.06461  -0.33470   0.00000  -0.99795   1.01132
  63 6   H  1S         -0.29459  -0.17605  -0.68087  -0.18229   0.37377
  64        2S         -0.11628  -0.07269   1.29939   0.59430  -0.37281
  65 7   H  1S         -0.29459  -0.17605   0.68087  -0.18229   0.37377
  66        2S         -0.11628  -0.07269  -1.29939   0.59430  -0.37281
  67 8   H  1S         -0.20331   0.88549   0.00000  -0.03898   0.25113
  68        2S          0.27244  -0.72163   0.00000   0.26245  -0.57580
                          36        37        38        39        40
                        (A")--V   (A')--V   (A')--V   (A")--V   (A')--V
     EIGENVALUES --     0.92983   0.93353   0.96991   1.03403   1.06729
   1 1   C  1S          0.00000   0.04635   0.00406   0.00000  -0.05136
   2        2S          0.00000  -1.10008   0.38998   0.00000  -0.73065
   3        2PX         0.00000  -0.33001  -0.27691   0.00000  -0.09351
   4        2PY         0.00000   0.31069  -0.22075   0.00000  -0.10038
   5        2PZ        -0.28162   0.00000   0.00000   0.07363   0.00000
   6        3S          0.00000   1.84839   0.06415   0.00000   1.99056
   7        3PX         0.00000   0.68631  -0.14407   0.00000   0.09705
   8        3PY         0.00000  -0.79625   0.70510   0.00000   0.25966
   9        3PZ         0.75689   0.00000   0.00000   0.30242   0.00000
  10        4XX         0.00000  -0.07318   0.06615   0.00000  -0.04928
  11        4YY         0.00000  -0.07590   0.10090   0.00000  -0.06346
  12        4ZZ         0.00000  -0.00014  -0.09625   0.00000  -0.00362
  13        4XY         0.00000   0.11860  -0.00443   0.00000  -0.01888
  14        4XZ         0.00466   0.00000   0.00000   0.09499   0.00000
  15        4YZ        -0.06587   0.00000   0.00000   0.03211   0.00000
  16 2   C  1S          0.00000  -0.01580   0.02207   0.00000   0.00360
  17        2S          0.00000  -0.42542   0.41240   0.00000   0.16807
  18        2PX         0.00000  -0.10574   0.03974   0.00000  -0.17368
  19        2PY         0.00000   0.00872  -0.26685   0.00000   0.02770
  20        2PZ         0.06662   0.00000   0.00000   0.23242   0.00000
  21        3S          0.00000   1.54023  -0.70419   0.00000  -1.21738
  22        3PX         0.00000   0.28702  -0.77672   0.00000   0.53459
  23        3PY         0.00000  -0.24695   1.20320   0.00000   0.28584
  24        3PZ        -0.41706   0.00000   0.00000  -1.08294   0.00000
  25        4XX         0.00000  -0.03106   0.15953   0.00000   0.05719
  26        4YY         0.00000  -0.01207   0.02429   0.00000  -0.05208
  27        4ZZ         0.00000   0.02219  -0.04456   0.00000  -0.01606
  28        4XY         0.00000   0.07894  -0.00078   0.00000   0.08807
  29        4XZ        -0.01363   0.00000   0.00000  -0.01144   0.00000
  30        4YZ         0.05006   0.00000   0.00000  -0.02874   0.00000
  31 3   O  1S          0.00000   0.00866  -0.00704   0.00000   0.00110
  32        2S          0.00000  -0.06221  -0.63327   0.00000  -0.20380
  33        2PX         0.00000   0.18210   0.57550   0.00000  -0.05531
  34        2PY         0.00000   0.05386   0.05223   0.00000   0.29233
  35        2PZ        -0.82595   0.00000   0.00000  -0.38355   0.00000
  36        3S          0.00000  -0.09512   1.35376   0.00000   0.77461
  37        3PX         0.00000  -0.42337  -0.75556   0.00000   0.28956
  38        3PY         0.00000  -0.06822  -0.37769   0.00000  -0.48378
  39        3PZ         1.05776   0.00000   0.00000   0.68935   0.00000
  40        4XX         0.00000   0.00562  -0.20045   0.00000  -0.03276
  41        4YY         0.00000  -0.04960  -0.12938   0.00000   0.05904
  42        4ZZ         0.00000   0.00269  -0.27002   0.00000  -0.18885
  43        4XY         0.00000  -0.03426  -0.00495   0.00000  -0.00399
  44        4XZ        -0.03924   0.00000   0.00000  -0.05645   0.00000
  45        4YZ        -0.00722   0.00000   0.00000   0.01760   0.00000
  46 4   O  1S          0.00000   0.00403   0.00618   0.00000  -0.00735
  47        2S          0.00000   0.04207   0.00181   0.00000  -0.15955
  48        2PX         0.00000  -0.08628  -0.10110   0.00000   0.69694
  49        2PY         0.00000  -0.02855   0.15146   0.00000  -0.04953
  50        2PZ         0.37445   0.00000   0.00000  -0.81374   0.00000
  51        3S          0.00000  -0.30996  -0.41788   0.00000   0.40046
  52        3PX         0.00000   0.01861   0.25898   0.00000  -1.11849
  53        3PY         0.00000   0.12370  -0.16783   0.00000  -0.02745
  54        3PZ        -0.35354   0.00000   0.00000   1.26754   0.00000
  55        4XX         0.00000  -0.01211   0.01132   0.00000  -0.05643
  56        4YY         0.00000  -0.01013  -0.01342   0.00000  -0.00277
  57        4ZZ         0.00000   0.06301   0.01945   0.00000  -0.07235
  58        4XY         0.00000  -0.02095   0.00340   0.00000  -0.09077
  59        4XZ        -0.02103   0.00000   0.00000  -0.00841   0.00000
  60        4YZ        -0.01260   0.00000   0.00000   0.04712   0.00000
  61 5   H  1S          0.00000   0.61621   0.31137   0.00000  -0.26257
  62        2S          0.00000  -1.06372  -0.34633   0.00000  -0.38846
  63 6   H  1S          0.15604   0.51170  -0.16884  -0.15297  -0.15123
  64        2S         -0.60572  -1.01982   0.57454   0.09915  -0.26161
  65 7   H  1S         -0.15604   0.51170  -0.16884   0.15297  -0.15123
  66        2S          0.60572  -1.01982   0.57454  -0.09915  -0.26161
  67 8   H  1S          0.00000   0.06735   0.42378   0.00000   0.28900
  68        2S          0.00000  -0.20254  -1.01957   0.00000  -0.09945
                          41        42        43        44        45
                        (A')--V   (A')--V   (A")--V   (A")--V   (A')--V
     EIGENVALUES --     1.08906   1.33344   1.37580   1.40076   1.48769
   1 1   C  1S         -0.04094  -0.08528   0.00000   0.00000  -0.08173
   2        2S         -0.90294  -1.33204   0.00000   0.00000  -1.01287
   3        2PX        -0.23978   0.17370   0.00000   0.00000   0.10367
   4        2PY        -0.02537  -0.06968   0.00000   0.00000   0.04236
   5        2PZ         0.00000   0.00000  -0.11241   0.05847   0.00000
   6        3S          3.91324   3.72158   0.00000   0.00000   4.01572
   7        3PX         0.08820  -0.71164   0.00000   0.00000  -0.86673
   8        3PY         1.10584   0.30494   0.00000   0.00000   0.69078
   9        3PZ         0.00000   0.00000  -0.10076  -0.23208   0.00000
  10        4XX         0.02454  -0.05252   0.00000   0.00000   0.05520
  11        4YY        -0.04221   0.04354   0.00000   0.00000  -0.24597
  12        4ZZ        -0.08014  -0.14779   0.00000   0.00000   0.08790
  13        4XY        -0.08561   0.01356   0.00000   0.00000  -0.09111
  14        4XZ         0.00000   0.00000  -0.50063   0.15183   0.00000
  15        4YZ         0.00000   0.00000   0.13202   0.02089   0.00000
  16 2   C  1S          0.01362   0.02912   0.00000   0.00000   0.02911
  17        2S          0.59043   0.17600   0.00000   0.00000   0.35094
  18        2PX         0.19425   0.10780   0.00000   0.00000   0.09446
  19        2PY        -0.07180  -0.04694   0.00000   0.00000  -0.00103
  20        2PZ         0.00000   0.00000   0.08088  -0.03660   0.00000
  21        3S         -3.51850  -2.41396   0.00000   0.00000  -0.14145
  22        3PX        -1.32517  -0.28764   0.00000   0.00000  -2.78033
  23        3PY         1.07122   0.12016   0.00000   0.00000   1.11795
  24        3PZ         0.00000   0.00000  -0.14021   0.19939   0.00000
  25        4XX         0.00806   0.08040   0.00000   0.00000  -0.01110
  26        4YY         0.00392   0.01138   0.00000   0.00000   0.05580
  27        4ZZ        -0.04327  -0.11608   0.00000   0.00000   0.00035
  28        4XY        -0.16581   0.01491   0.00000   0.00000   0.05120
  29        4XZ         0.00000   0.00000   0.50279   0.35410   0.00000
  30        4YZ         0.00000   0.00000  -0.33260   0.48620   0.00000
  31 3   O  1S         -0.02047  -0.05183   0.00000   0.00000   0.06941
  32        2S         -0.38042  -0.67513   0.00000   0.00000   1.27493
  33        2PX        -0.43118   0.18574   0.00000   0.00000   0.36971
  34        2PY         0.31217  -0.45586   0.00000   0.00000   0.09014
  35        2PZ         0.00000   0.00000  -0.00956   0.06123   0.00000
  36        3S          0.91922   2.02809   0.00000   0.00000  -3.58357
  37        3PX         1.18245  -0.42630   0.00000   0.00000  -1.17954
  38        3PY        -0.60488   1.25270   0.00000   0.00000  -0.71844
  39        3PZ         0.00000   0.00000   0.14583   0.02004   0.00000
  40        4XX        -0.19135  -0.18851   0.00000   0.00000   0.54064
  41        4YY         0.01533  -0.32578   0.00000   0.00000   0.39363
  42        4ZZ        -0.16643  -0.06698   0.00000   0.00000   0.01450
  43        4XY         0.01756   0.05048   0.00000   0.00000   0.01897
  44        4XZ         0.00000   0.00000  -0.18550  -0.45371   0.00000
  45        4YZ         0.00000   0.00000  -0.24414  -0.01256   0.00000
  46 4   O  1S         -0.01599  -0.01835   0.00000   0.00000   0.02073
  47        2S         -0.30643  -0.09886   0.00000   0.00000   0.17857
  48        2PX        -0.38346   0.00144   0.00000   0.00000  -0.15244
  49        2PY         0.13713  -0.13948   0.00000   0.00000   0.13008
  50        2PZ         0.00000   0.00000  -0.00935  -0.08719   0.00000
  51        3S          0.94142   0.79763   0.00000   0.00000  -0.88502
  52        3PX         0.79789  -0.02648   0.00000   0.00000   0.83459
  53        3PY        -0.52954  -0.08482   0.00000   0.00000   0.04681
  54        3PZ         0.00000   0.00000   0.15489  -0.18081   0.00000
  55        4XX        -0.01728   0.12470   0.00000   0.00000  -0.01656
  56        4YY        -0.06122  -0.01083   0.00000   0.00000   0.02621
  57        4ZZ        -0.18289  -0.23298   0.00000   0.00000   0.13947
  58        4XY         0.05204  -0.00252   0.00000   0.00000   0.14113
  59        4XZ         0.00000   0.00000   0.21452   0.04396   0.00000
  60        4YZ         0.00000   0.00000   0.10425  -0.36142   0.00000
  61 5   H  1S         -0.18226  -0.24119   0.00000   0.00000  -0.23964
  62        2S         -0.97403  -0.32868   0.00000   0.00000  -0.12737
  63 6   H  1S         -0.04901  -0.34310   0.15109   0.01201  -0.30124
  64        2S         -0.21199  -0.46311  -0.03756   0.13302  -0.36236
  65 7   H  1S         -0.04901  -0.34310  -0.15109  -0.01201  -0.30124
  66        2S         -0.21199  -0.46311   0.03756  -0.13302  -0.36236
  67 8   H  1S          0.09225  -0.54192   0.00000   0.00000   0.08104
  68        2S          0.33404  -0.60235   0.00000   0.00000  -0.08841
                          46        47        48        49        50
                        (A')--V   (A")--V   (A')--V   (A")--V   (A')--V
     EIGENVALUES --     1.57544   1.71400   1.73763   1.79812   1.80199
   1 1   C  1S          0.00962   0.00000  -0.07388   0.00000   0.00665
   2        2S          0.24975   0.00000  -0.15871   0.00000  -0.32492
   3        2PX         0.04719   0.00000  -0.25442   0.00000   0.12320
   4        2PY         0.07861   0.00000   0.22563   0.00000  -0.11028
   5        2PZ         0.00000  -0.06820   0.00000   0.05803   0.00000
   6        3S         -1.34378   0.00000   2.86946   0.00000   0.14905
   7        3PX         0.54980   0.00000  -0.60814   0.00000  -0.45597
   8        3PY        -0.05697   0.00000   0.67181   0.00000  -0.21130
   9        3PZ         0.00000   0.16969   0.00000  -0.26630   0.00000
  10        4XX         0.20481   0.00000   0.02653   0.00000   0.15376
  11        4YY        -0.33660   0.00000  -0.13049   0.00000  -0.21520
  12        4ZZ         0.14001   0.00000   0.10315   0.00000   0.09576
  13        4XY        -0.05376   0.00000   0.23404   0.00000  -0.23203
  14        4XZ         0.00000  -0.28148   0.00000   0.32330   0.00000
  15        4YZ         0.00000   0.13575   0.00000  -0.08279   0.00000
  16 2   C  1S         -0.03040   0.00000   0.02465   0.00000   0.03343
  17        2S         -0.25234   0.00000   0.80357   0.00000   0.21255
  18        2PX         0.02088   0.00000   0.15109   0.00000  -0.03113
  19        2PY         0.04285   0.00000  -0.06660   0.00000  -0.02521
  20        2PZ         0.00000   0.03733   0.00000   0.00381   0.00000
  21        3S         -1.98899   0.00000  -2.47706   0.00000  -1.58440
  22        3PX         0.11757   0.00000  -1.14561   0.00000   1.76106
  23        3PY        -2.99349   0.00000   2.22564   0.00000   0.36501
  24        3PZ         0.00000  -0.09830   0.00000   0.12672   0.00000
  25        4XX         0.07229   0.00000  -0.31592   0.00000  -0.34863
  26        4YY        -0.11621   0.00000   0.05964   0.00000   0.10831
  27        4ZZ         0.06078   0.00000   0.20100   0.00000   0.29675
  28        4XY        -0.02766   0.00000   0.39945   0.00000  -0.36045
  29        4XZ         0.00000  -0.04927   0.00000   0.08009   0.00000
  30        4YZ         0.00000  -0.02926   0.00000  -0.06896   0.00000
  31 3   O  1S         -0.00965   0.00000  -0.01268   0.00000  -0.05926
  32        2S          0.01134   0.00000  -0.36485   0.00000  -0.40068
  33        2PX         0.09744   0.00000  -0.09725   0.00000   0.20282
  34        2PY        -0.08363   0.00000   0.04746   0.00000   0.01301
  35        2PZ         0.00000  -0.00332   0.00000  -0.03886   0.00000
  36        3S          0.00726   0.00000   1.05436   0.00000   2.22547
  37        3PX        -0.28002   0.00000   0.47416   0.00000   0.48138
  38        3PY         0.61889   0.00000  -0.20428   0.00000   0.49730
  39        3PZ         0.00000  -0.02180   0.00000   0.02763   0.00000
  40        4XX         0.09397   0.00000   0.13242   0.00000  -0.39977
  41        4YY        -0.08193   0.00000  -0.49538   0.00000  -0.04969
  42        4ZZ        -0.02196   0.00000   0.16102   0.00000   0.15351
  43        4XY        -0.01982   0.00000  -0.14900   0.00000   0.03539
  44        4XZ         0.00000  -0.37819   0.00000   0.12545   0.00000
  45        4YZ         0.00000   0.84942   0.00000   0.29365   0.00000
  46 4   O  1S         -0.08988   0.00000   0.02383   0.00000  -0.00183
  47        2S         -1.74049   0.00000   0.10568   0.00000  -0.00044
  48        2PX         0.02969   0.00000  -0.12168   0.00000   0.21243
  49        2PY         0.27833   0.00000   0.20942   0.00000  -0.05365
  50        2PZ         0.00000   0.03774   0.00000   0.04674   0.00000
  51        3S          5.57406   0.00000  -0.96922   0.00000   0.06429
  52        3PX        -0.37799   0.00000   0.40963   0.00000  -0.57271
  53        3PY        -1.72033   0.00000  -0.01805   0.00000   0.01741
  54        3PZ         0.00000  -0.01114   0.00000  -0.07373   0.00000
  55        4XX        -0.26974   0.00000  -0.35884   0.00000  -0.37765
  56        4YY        -0.56921   0.00000   0.14335   0.00000  -0.08401
  57        4ZZ        -0.32730   0.00000   0.31839   0.00000   0.46328
  58        4XY        -0.11934   0.00000  -0.14811   0.00000   0.35496
  59        4XZ         0.00000  -0.11348   0.00000   0.88337   0.00000
  60        4YZ         0.00000   0.14977   0.00000  -0.01617   0.00000
  61 5   H  1S         -0.02736   0.00000  -0.33972   0.00000   0.09107
  62        2S          0.02894   0.00000  -0.14277   0.00000   0.07428
  63 6   H  1S          0.06963   0.00655  -0.24966   0.01118  -0.01676
  64        2S          0.10360  -0.04598   0.00343   0.12756  -0.07941
  65 7   H  1S          0.06963  -0.00655  -0.24966  -0.01118  -0.01676
  66        2S          0.10360   0.04598   0.00343  -0.12756  -0.07941
  67 8   H  1S         -0.17115   0.00000   0.00401   0.00000  -0.16351
  68        2S          0.00246   0.00000  -0.16683   0.00000   0.12523
                          51        52        53        54        55
                        (A')--V   (A')--V   (A")--V   (A')--V   (A")--V
     EIGENVALUES --     1.83963   1.89502   1.97674   2.04435   2.18822
   1 1   C  1S         -0.00820  -0.01945   0.00000   0.01447   0.00000
   2        2S         -0.16671  -0.22190   0.00000  -0.04782   0.00000
   3        2PX        -0.05723   0.00049   0.00000   0.07297   0.00000
   4        2PY        -0.10009  -0.02215   0.00000  -0.02854   0.00000
   5        2PZ         0.00000   0.00000  -0.00781   0.00000  -0.12466
   6        3S          0.36570   0.43956   0.00000  -0.32113   0.00000
   7        3PX         0.49389   0.24775   0.00000   0.14653   0.00000
   8        3PY         0.68193   0.24185   0.00000   0.26238   0.00000
   9        3PZ         0.00000   0.00000  -0.61745   0.00000  -0.39622
  10        4XX        -0.41925  -0.26994   0.00000   0.32971   0.00000
  11        4YY         0.72277   0.21639   0.00000   0.09580   0.00000
  12        4ZZ        -0.29116   0.07489   0.00000  -0.42916   0.00000
  13        4XY         0.12249   0.15972   0.00000  -0.25318   0.00000
  14        4XZ         0.00000   0.00000   0.71255   0.00000   0.23093
  15        4YZ         0.00000   0.00000   0.02236   0.00000   0.92019
  16 2   C  1S          0.00397   0.01898   0.00000  -0.03606   0.00000
  17        2S         -0.02770   0.01596   0.00000  -0.42173   0.00000
  18        2PX         0.07138  -0.02841   0.00000  -0.07386   0.00000
  19        2PY         0.01373  -0.24284   0.00000   0.27149   0.00000
  20        2PZ         0.00000   0.00000   0.18328   0.00000  -0.15897
  21        3S         -0.93696  -0.98186   0.00000   0.79744   0.00000
  22        3PX        -1.08247  -0.91478   0.00000  -0.20105   0.00000
  23        3PY        -1.45029  -1.64420   0.00000  -0.32060   0.00000
  24        3PZ         0.00000   0.00000   0.62439   0.00000  -0.08019
  25        4XX         0.12475   0.31928   0.00000   0.21908   0.00000
  26        4YY        -0.14797  -0.49650   0.00000   0.28764   0.00000
  27        4ZZ         0.05785   0.23592   0.00000  -0.68160   0.00000
  28        4XY        -0.05603   0.04766   0.00000   0.06097   0.00000
  29        4XZ         0.00000   0.00000   0.22546   0.00000   0.30523
  30        4YZ         0.00000   0.00000  -0.22761   0.00000  -0.02623
  31 3   O  1S          0.01981   0.03268   0.00000   0.00821   0.00000
  32        2S          0.31629   0.17165   0.00000  -0.17102   0.00000
  33        2PX         0.00491  -0.07741   0.00000  -0.14819   0.00000
  34        2PY         0.08991  -0.18347   0.00000  -0.11402   0.00000
  35        2PZ         0.00000   0.00000   0.08826   0.00000  -0.06308
  36        3S         -1.19985  -1.09629   0.00000  -0.07593   0.00000
  37        3PX        -0.26050  -0.26913   0.00000  -0.08308   0.00000
  38        3PY        -0.15984   0.21456   0.00000   0.20921   0.00000
  39        3PZ         0.00000   0.00000  -0.26344   0.00000   0.21026
  40        4XX         0.35155  -0.26400   0.00000   0.18590   0.00000
  41        4YY        -0.24238   0.46090   0.00000   0.01058   0.00000
  42        4ZZ         0.08927  -0.02719   0.00000  -0.24901   0.00000
  43        4XY        -0.25981   0.40871   0.00000  -0.02615   0.00000
  44        4XZ         0.00000   0.00000  -0.40143   0.00000   0.45273
  45        4YZ         0.00000   0.00000  -0.08359   0.00000   0.17146
  46 4   O  1S         -0.03488  -0.04567   0.00000  -0.00119   0.00000
  47        2S         -0.60819  -0.28537   0.00000  -0.08862   0.00000
  48        2PX         0.07860  -0.20512   0.00000  -0.00806   0.00000
  49        2PY        -0.02258  -0.33272   0.00000   0.19826   0.00000
  50        2PZ         0.00000   0.00000   0.15151   0.00000  -0.03092
  51        3S          2.34158   2.20369   0.00000  -0.02154   0.00000
  52        3PX        -0.04118   0.23083   0.00000   0.09716   0.00000
  53        3PY        -0.64148  -0.48723   0.00000  -0.01015   0.00000
  54        3PZ         0.00000   0.00000  -0.35023   0.00000   0.09923
  55        4XX        -0.14582  -0.43935   0.00000  -0.58431   0.00000
  56        4YY        -0.31731  -0.06728   0.00000   0.07090   0.00000
  57        4ZZ         0.12554   0.32840   0.00000   0.38917   0.00000
  58        4XY         0.38711  -0.21128   0.00000  -0.13505   0.00000
  59        4XZ         0.00000   0.00000  -0.19122   0.00000  -0.14265
  60        4YZ         0.00000   0.00000   0.53692   0.00000  -0.18938
  61 5   H  1S         -0.06571  -0.04757   0.00000  -0.09754   0.00000
  62        2S         -0.30925  -0.10416   0.00000  -0.02699   0.00000
  63 6   H  1S         -0.01426  -0.14275   0.21031   0.25417   0.58963
  64        2S          0.11324  -0.03305   0.14119   0.01189  -0.06532
  65 7   H  1S         -0.01426  -0.14275  -0.21031   0.25417  -0.58963
  66        2S          0.11324  -0.03305  -0.14119   0.01189   0.06532
  67 8   H  1S          0.00796   0.13026   0.00000  -0.21204   0.00000
  68        2S          0.04896   0.04797   0.00000  -0.04197   0.00000
                          56        57        58        59        60
                        (A')--V   (A')--V   (A")--V   (A')--V   (A")--V
     EIGENVALUES --     2.21132   2.31655   2.43710   2.45773   2.64028
   1 1   C  1S         -0.01118  -0.04940   0.00000   0.05587   0.00000
   2        2S         -0.09057  -0.44442   0.00000   0.14101   0.00000
   3        2PX        -0.13845  -0.08749   0.00000   0.13861   0.00000
   4        2PY        -0.04500   0.14510   0.00000  -0.14572   0.00000
   5        2PZ         0.00000   0.00000   0.01908   0.00000   0.03118
   6        3S          0.79255   2.50071   0.00000  -1.64444   0.00000
   7        3PX        -0.78488  -0.59390   0.00000   0.48255   0.00000
   8        3PY        -0.20768   1.02369   0.00000  -0.72833   0.00000
   9        3PZ         0.00000   0.00000   0.16512   0.00000   0.06335
  10        4XX        -0.60968   0.38515   0.00000   0.10997   0.00000
  11        4YY        -0.05266   0.20431   0.00000  -0.32458   0.00000
  12        4ZZ         0.64805  -0.57765   0.00000   0.33337   0.00000
  13        4XY        -0.71256  -0.45687   0.00000   0.46392   0.00000
  14        4XZ         0.00000   0.00000   0.12333   0.00000  -0.18107
  15        4YZ         0.00000   0.00000  -0.62873   0.00000  -0.01839
  16 2   C  1S          0.01349   0.05638   0.00000  -0.08128   0.00000
  17        2S          0.05297   0.30447   0.00000  -0.12064   0.00000
  18        2PX        -0.10884  -0.35026   0.00000   0.24928   0.00000
  19        2PY         0.08706   0.16146   0.00000  -0.10552   0.00000
  20        2PZ         0.00000   0.00000  -0.10932   0.00000   0.17841
  21        3S         -0.20467  -1.00961   0.00000   2.11373   0.00000
  22        3PX        -0.15335  -1.90754   0.00000   0.86621   0.00000
  23        3PY         1.08233   0.91884   0.00000  -0.23100   0.00000
  24        3PZ         0.00000   0.00000  -0.28412   0.00000   0.10674
  25        4XX         0.25938   0.02201   0.00000   0.44750   0.00000
  26        4YY        -0.17303  -0.24972   0.00000  -0.05051   0.00000
  27        4ZZ        -0.15357   0.26447   0.00000  -0.66935   0.00000
  28        4XY         0.03876   0.08722   0.00000  -0.02966   0.00000
  29        4XZ         0.00000   0.00000   0.75902   0.00000   0.35026
  30        4YZ         0.00000   0.00000  -0.26861   0.00000   0.98384
  31 3   O  1S          0.01834   0.03946   0.00000   0.03484   0.00000
  32        2S         -0.10955   0.69742   0.00000   0.12531   0.00000
  33        2PX        -0.12799   0.07364   0.00000  -0.14694   0.00000
  34        2PY        -0.02066   0.09681   0.00000   0.02560   0.00000
  35        2PZ         0.00000   0.00000  -0.03889   0.00000   0.00414
  36        3S          0.10029  -2.02050   0.00000  -0.66435   0.00000
  37        3PX         0.23466  -0.17191   0.00000   0.33722   0.00000
  38        3PY        -0.19671  -0.97356   0.00000  -0.51268   0.00000
  39        3PZ         0.00000   0.00000   0.26640   0.00000   0.11556
  40        4XX         0.19287  -0.05101   0.00000  -0.01721   0.00000
  41        4YY        -0.29735  -0.41624   0.00000  -0.36303   0.00000
  42        4ZZ         0.15473   0.71260   0.00000   0.49405   0.00000
  43        4XY        -0.09540   0.28660   0.00000   0.50537   0.00000
  44        4XZ         0.00000   0.00000   0.48675   0.00000   0.39835
  45        4YZ         0.00000   0.00000   0.36022   0.00000   0.04473
  46 4   O  1S          0.01767   0.00657   0.00000   0.01199   0.00000
  47        2S          0.24199   0.12895   0.00000   0.11812   0.00000
  48        2PX        -0.06051  -0.05840   0.00000   0.08071   0.00000
  49        2PY        -0.04079  -0.06049   0.00000   0.00314   0.00000
  50        2PZ         0.00000   0.00000  -0.02781   0.00000  -0.03625
  51        3S         -0.99402  -0.35170   0.00000  -0.67577   0.00000
  52        3PX         0.18544   0.46520   0.00000  -0.36418   0.00000
  53        3PY         0.20334   0.01947   0.00000   0.25102   0.00000
  54        3PZ         0.00000   0.00000   0.19263   0.00000  -0.37734
  55        4XX        -0.01370   0.11502   0.00000   0.04566   0.00000
  56        4YY         0.07106   0.00654   0.00000  -0.06685   0.00000
  57        4ZZ         0.11624  -0.03467   0.00000   0.10418   0.00000
  58        4XY        -0.08531  -0.30376   0.00000   0.46812   0.00000
  59        4XZ         0.00000   0.00000  -0.34738   0.00000   0.08612
  60        4YZ         0.00000   0.00000  -0.23496   0.00000   0.91388
  61 5   H  1S          0.77203  -0.20563   0.00000  -0.06594   0.00000
[...]
  55.  O 4 (d1)  -0.0262  0.0054  0.0054 -0.0296  0.0233 -0.0105  0.0042  0.0042
  56.  O 4 (d4)  -0.0231  0.0016  0.0016 -0.0302  0.0386 -0.0082  0.0045  0.0045
  57.  O 4 (d6)  -0.0305  0.0026  0.0026 -0.0056  0.0305 -0.0103  0.0035  0.0035
  58.  O 4 (d2)  -0.0004  0.0023  0.0023  0.0261 -0.0142 -0.0009  0.0005  0.0005
  59.  O 4 (d3)   0.0000 -0.0033  0.0033  0.0000  0.0000  0.0000 -0.0010  0.0010
  60.  O 4 (d5)   0.0000  0.0004 -0.0004  0.0000  0.0000  0.0000 -0.0007  0.0007
  61.  H 5 (s)    0.9937 -0.0036 -0.0036  0.0490 -0.0173  0.8749 -0.0068 -0.0068
  62.  H 5 (s)   -2.5626  0.1380  0.1380  0.0218  0.0065  0.5884  0.0168  0.0168
  63.  H 6 (s)   -0.0016  1.0074 -0.0059  0.0187 -0.0189 -0.0051  0.8626 -0.0047
  64.  H 6 (s)    0.1382 -2.5164  0.1277  0.0033  0.0114  0.0192  0.6048  0.0178
  65.  H 7 (s)   -0.0016 -0.0059  1.0074  0.0187 -0.0189 -0.0051 -0.0047  0.8626
  66.  H 7 (s)    0.1382  0.1277 -2.5164  0.0033  0.0114  0.0192  0.0178  0.6048
  67.  H 8 (s)    0.0358  0.0094  0.0094 -1.0413  0.0130  0.0013  0.0003  0.0003
  68.  H 8 (s)    0.0446  0.0161  0.0161  2.0391 -0.0382 -0.0014  0.0006  0.0006

          AO        65      66      67      68
      ---------- ------- ------- ------- -------
   1.  C 1 (s)    0.0059 -0.0070  0.0000  0.0031
   2.  C 1 (s)    0.0117 -0.0098  0.0000 -0.0229
   3.  C 1 (px)   0.0588  0.0423  0.0000  0.0308
   4.  C 1 (py)   0.0397  0.0669  0.0000 -0.0025
   5.  C 1 (pz)   0.0000  0.0000 -0.0932  0.0000
   6.  C 1 (s)   -0.1005  0.1344  0.0000  0.0674
   7.  C 1 (px)  -0.0033 -0.1021  0.0000  0.0019
   8.  C 1 (py)  -0.0882  0.0074  0.0000  0.0206
   9.  C 1 (pz)   0.0000  0.0000 -0.0185  0.0000
  10.  C 1 (d1)   0.0086  0.0071  0.0000 -0.0029
  11.  C 1 (d4)  -0.0082 -0.0122  0.0000 -0.0014
  12.  C 1 (d6)   0.0018  0.0043  0.0000 -0.0032
  13.  C 1 (d2)  -0.0071  0.0007  0.0000 -0.0009
  14.  C 1 (d3)   0.0000  0.0000 -0.0051  0.0000
  15.  C 1 (d5)   0.0000  0.0000  0.0010  0.0000
  16.  C 2 (s)   -0.0819  0.0888  0.0000  0.0036
  17.  C 2 (s)    0.4270 -0.5451  0.0000 -0.0274
  18.  C 2 (px)  -0.7777 -0.1253  0.0000  0.0460
  19.  C 2 (py)  -0.2813 -0.8707  0.0000  0.0127
  20.  C 2 (pz)   0.0000  0.0000  0.7101  0.0000
  21.  C 2 (s)    0.3655 -0.3744  0.0000 -0.0175
  22.  C 2 (px)  -0.1816 -0.0676  0.0000 -0.0514
  23.  C 2 (py)  -0.0717 -0.1159  0.0000  0.0471
  24.  C 2 (pz)   0.0000  0.0000  0.3818  0.0000
  25.  C 2 (d1)   0.0930 -0.0181  0.0000 -0.0069
  26.  C 2 (d4)   0.0275 -0.0893  0.0000 -0.0031
  27.  C 2 (d6)   0.0356 -0.0339  0.0000 -0.0055
  28.  C 2 (d2)   0.0368 -0.0080  0.0000  0.0006
  29.  C 2 (d3)   0.0000  0.0000  0.0091  0.0000
  30.  C 2 (d5)   0.0000  0.0000  0.0547  0.0000
  31.  O 3 (s)    0.0880 -0.0052  0.0000  0.0718
  32.  O 3 (s)   -0.4070 -0.0103  0.0000 -0.3236
  33.  O 3 (px)  -0.5275 -0.0174  0.0000  0.4227
  34.  O 3 (py)  -0.2236  0.0705  0.0000 -0.4067
  35.  O 3 (pz)   0.0000  0.0000 -0.0814  0.0000
  36.  O 3 (s)   -0.2592  0.0613  0.0000 -0.2953
  37.  O 3 (px)  -0.3652  0.0249  0.0000  0.2589
  38.  O 3 (py)  -0.1778 -0.0119  0.0000 -0.3339
  39.  O 3 (pz)   0.0000  0.0000 -0.0401  0.0000
  40.  O 3 (d1)  -0.0522 -0.0063  0.0000 -0.0111
  41.  O 3 (d4)  -0.0228 -0.0185  0.0000 -0.0384
  42.  O 3 (d6)  -0.0059 -0.0034  0.0000  0.0003
  43.  O 3 (d2)  -0.0281 -0.0140  0.0000  0.0213
  44.  O 3 (d3)   0.0000  0.0000  0.0068  0.0000
  45.  O 3 (d5)   0.0000  0.0000  0.0010  0.0000
  46.  O 4 (s)    0.0103 -0.0866  0.0000  0.0015
  47.  O 4 (s)    0.0255  0.6323  0.0000 -0.0236
  48.  O 4 (px)   0.0880 -0.1058  0.0000  0.0107
  49.  O 4 (py)   0.0012 -0.6398  0.0000  0.0000
  50.  O 4 (pz)   0.0000  0.0000 -0.4920  0.0000
  51.  O 4 (s)   -0.1257  0.0629  0.0000  0.0059
  52.  O 4 (px)   0.0002 -0.0549  0.0000  0.0144
  53.  O 4 (py)   0.0426 -0.4171  0.0000 -0.0056
  54.  O 4 (pz)   0.0000  0.0000 -0.3374  0.0000
  55.  O 4 (d1)   0.0199  0.0479  0.0000 -0.0038
  56.  O 4 (d4)   0.0180  0.1380  0.0000 -0.0033
  57.  O 4 (d6)   0.0193  0.0474  0.0000 -0.0068
  58.  O 4 (d2)   0.0213  0.0168  0.0000 -0.0019
  59.  O 4 (d3)   0.0000  0.0000  0.0079  0.0000
  60.  O 4 (d5)   0.0000  0.0000  0.0479  0.0000
  61.  H 5 (s)    0.0228  0.0097  0.0000 -0.0133
  62.  H 5 (s)    0.0302  0.0238  0.0000 -0.0047
  63.  H 6 (s)   -0.0066 -0.0094 -0.0054 -0.0062
  64.  H 6 (s)   -0.0074 -0.0176 -0.0067 -0.0077
  65.  H 7 (s)   -0.0066 -0.0094  0.0054 -0.0062
  66.  H 7 (s)   -0.0074 -0.0176  0.0067 -0.0077
  67.  H 8 (s)   -0.0202  0.0184  0.0000  0.9484
  68.  H 8 (s)    0.0431 -0.0183  0.0000  0.4015


 SECOND ORDER PERTURBATION THEORY ANALYSIS OF FOCK MATRIX IN NBO BASIS

     Threshold for printing:   0.50 kcal/mol
                                                          E(2)  E(j)-E(i) F(i,j)
      Donor NBO (i)              Acceptor NBO (j)       kcal/mol   a.u.    a.u. 
 ===============================================================================

 within unit  1
   1. BD ( 1) C 1- C 2       47. RY*( 1) O 4              1.28    1.86    0.044
   1. BD ( 1) C 1- C 2       66. BD*( 1) C 2- O 4         0.67    1.27    0.026
   1. BD ( 1) C 1- C 2       68. BD*( 1) O 3- H 8         3.05    1.05    0.051
   2. BD ( 1) C 1- H 5       27. RY*( 1) C 2              0.66    1.21    0.025
   2. BD ( 1) C 1- H 5       65. BD*( 1) C 2- O 3         4.48    0.86    0.057
   3. BD ( 1) C 1- H 6       31. RY*( 5) C 2              0.60    1.55    0.027
   3. BD ( 1) C 1- H 6       66. BD*( 1) C 2- O 4         2.39    1.13    0.046
   3. BD ( 1) C 1- H 6       67. BD*( 2) C 2- O 4         4.62    0.53    0.046
   4. BD ( 1) C 1- H 7       31. RY*( 5) C 2              0.60    1.55    0.027
   4. BD ( 1) C 1- H 7       66. BD*( 1) C 2- O 4         2.39    1.13    0.046
   4. BD ( 1) C 1- H 7       67. BD*( 2) C 2- O 4         4.62    0.53    0.046
   5. BD ( 1) C 2- O 3       62. BD*( 1) C 1- H 5         1.00    1.38    0.033
   6. BD ( 1) C 2- O 4       27. RY*( 1) C 2              1.60    1.78    0.048
   6. BD ( 1) C 2- O 4       61. BD*( 1) C 1- C 2         0.98    1.47    0.034
   7. BD ( 2) C 2- O 4       38. RY*( 2) O 3              0.51    1.37    0.024
   7. BD ( 2) C 2- O 4       63. BD*( 1) C 1- H 6         1.30    0.82    0.029
   7. BD ( 2) C 2- O 4       64. BD*( 1) C 1- H 7         1.30    0.82    0.029
   7. BD ( 2) C 2- O 4       67. BD*( 2) C 2- O 4         0.79    0.39    0.017
   8. BD ( 1) O 3- H 8       27. RY*( 1) C 2              1.19    1.43    0.037
   8. BD ( 1) O 3- H 8       28. RY*( 2) C 2              0.66    2.10    0.033
   8. BD ( 1) O 3- H 8       61. BD*( 1) C 1- C 2         4.63    1.12    0.065
   8. BD ( 1) O 3- H 8       66. BD*( 1) C 2- O 4         1.15    1.35    0.035
   9. CR ( 1) C 1            28. RY*( 2) C 2              0.84   11.44    0.087
   9. CR ( 1) C 1            33. RY*( 7) C 2              0.65   13.03    0.082
   9. CR ( 1) C 1            66. BD*( 1) C 2- O 4         0.85   10.68    0.086
  10. CR ( 1) C 2            18. RY*( 2) C 1              0.94   11.19    0.092
  10. CR ( 1) C 2            49. RY*( 3) O 4              0.52   11.67    0.069
  10. CR ( 1) C 2            65. BD*( 1) C 2- O 3         0.64   10.56    0.075
  10. CR ( 1) C 2            68. BD*( 1) O 3- H 8         0.52   10.60    0.067
  11. CR ( 1) O 3            27. RY*( 1) C 2              1.19   19.69    0.138
  11. CR ( 1) O 3            28. RY*( 2) C 2              1.64   20.36    0.163
  11. CR ( 1) O 3            30. RY*( 4) C 2              0.55   21.17    0.096
  12. CR ( 1) O 4            27. RY*( 1) C 2              6.54   19.56    0.321
  12. CR ( 1) O 4            61. BD*( 1) C 1- C 2         0.71   19.25    0.106
  13. LP ( 1) O 3            27. RY*( 1) C 2              2.41    1.31    0.050
  13. LP ( 1) O 3            28. RY*( 2) C 2              0.71    1.98    0.034
  13. LP ( 1) O 3            30. RY*( 4) C 2              1.41    2.79    0.056
  13. LP ( 1) O 3            66. BD*( 1) C 2- O 4         6.98    1.23    0.083
  14. LP ( 2) O 3            29. RY*( 3) C 2              1.63    2.45    0.059
  14. LP ( 2) O 3            35. RY*( 9) C 2              0.54    1.81    0.029
  14. LP ( 2) O 3            67. BD*( 2) C 2- O 4        46.47    0.34    0.114
  15. LP ( 1) O 4            27. RY*( 1) C 2             17.09    1.38    0.137
  15. LP ( 1) O 4            33. RY*( 7) C 2              0.64    3.64    0.043
  15. LP ( 1) O 4            61. BD*( 1) C 1- C 2         2.45    1.06    0.046
  15. LP ( 1) O 4            65. BD*( 1) C 2- O 3         1.46    1.03    0.035
  16. LP ( 2) O 4            28. RY*( 2) C 2              2.76    1.62    0.062
  16. LP ( 2) O 4            30. RY*( 4) C 2              1.33    2.43    0.053
  16. LP ( 2) O 4            61. BD*( 1) C 1- C 2        19.14    0.64    0.101
  16. LP ( 2) O 4            65. BD*( 1) C 2- O 3        34.63    0.60    0.131


 NATURAL BOND ORBITALS (Summary):

                                                     Principal Delocalizations
           NBO                 Occupancy    Energy   (geminal,vicinal,remote)
 ===============================================================================
 Molecular unit  1  (C2H4O2)
   1. BD ( 1) C  1- C  2        1.98605    -0.65714  68(v),47(v),66(g)
   2. BD ( 1) C  1- H  5        1.98677    -0.51642  65(v),27(v)
   3. BD ( 1) C  1- H  6        1.97530    -0.51785  67(v),66(v),31(v)
   4. BD ( 1) C  1- H  7        1.97530    -0.51785  67(v),66(v),31(v)
   5. BD ( 1) C  2- O  3        1.99676    -0.92442  62(v)
   6. BD ( 1) C  2- O  4        1.99832    -1.08946  27(g),61(g)
   7. BD ( 2) C  2- O  4        1.99198    -0.38132  63(v),64(v),67(g),38(v)
   8. BD ( 1) O  3- H  8        1.98716    -0.74123  61(v),27(v),66(v),28(v)
   9. CR ( 1) C  1              1.99933   -10.07361   66(v),28(v),33(v)
  10. CR ( 1) C  2              1.99951   -10.21016   18(v),65(g),68(v),49(v)
  11. CR ( 1) O  3              1.99979   -19.00069   28(v),27(v),30(v)
  12. CR ( 1) O  4              1.99979   -18.87282   27(v),61(v)
  13. LP ( 1) O  3              1.97836    -0.61551   66(v),27(v),30(v),28(v)
  14. LP ( 2) O  3              1.82353    -0.33136   67(v),29(v),35(v)
  15. LP ( 1) O  4              1.97558    -0.68594   27(v),61(v),65(v),33(v)
  16. LP ( 2) O  4              1.84609    -0.25885   65(v),61(v),28(v),30(v)
  17. RY*( 1) C  1              0.00194     0.70850
  18. RY*( 2) C  1              0.00078     0.97959
  19. RY*( 3) C  1              0.00033     1.27053
  20. RY*( 4) C  1              0.00014     1.72790
  21. RY*( 5) C  1              0.00009     1.79219
  22. RY*( 6) C  1              0.00004     1.68481
  23. RY*( 7) C  1              0.00003     2.90394
  24. RY*( 8) C  1              0.00000     2.80816
  25. RY*( 9) C  1              0.00000     1.54726
  26. RY*(10) C  1              0.00000     2.05282
  27. RY*( 1) C  2              0.02155     0.69109
  28. RY*( 2) C  2              0.00994     1.36330
  29. RY*( 3) C  2              0.00325     2.11369
  30. RY*( 4) C  2              0.00242     2.17248
  31. RY*( 5) C  2              0.00152     1.02958
  32. RY*( 6) C  2              0.00113     2.28170
  33. RY*( 7) C  2              0.00031     2.95334
  34. RY*( 8) C  2              0.00016     1.57468
  35. RY*( 9) C  2              0.00000     1.47464
  36. RY*(10) C  2              0.00001     2.24759
  37. RY*( 1) O  3              0.00151     1.50280
  38. RY*( 2) O  3              0.00062     0.99176
  39. RY*( 3) O  3              0.00057     1.51810
  40. RY*( 4) O  3              0.00007     1.12985
  41. RY*( 5) O  3              0.00000     3.70545
  42. RY*( 6) O  3              0.00001     2.19253
  43. RY*( 7) O  3              0.00001     1.85543
  44. RY*( 8) O  3              0.00001     1.72431
  45. RY*( 9) O  3              0.00001     2.05578
  46. RY*(10) O  3              0.00001     2.13408
  47. RY*( 1) O  4              0.00192     1.20558
  48. RY*( 2) O  4              0.00044     1.04042
  49. RY*( 3) O  4              0.00018     1.45737
  50. RY*( 4) O  4              0.00009     2.59034
  51. RY*( 5) O  4              0.00002     2.81456
  52. RY*( 6) O  4              0.00001     1.97390
  53. RY*( 7) O  4              0.00001     1.79019
  54. RY*( 8) O  4              0.00001     2.48505
  55. RY*( 9) O  4              0.00000     2.00196
  56. RY*(10) O  4              0.00000     1.86168
  57. RY*( 1) H  5              0.00093     0.63742
  58. RY*( 1) H  6              0.00084     0.63715
  59. RY*( 1) H  7              0.00084     0.63715
  60. RY*( 1) H  8              0.00355     0.63744
  61. BD*( 1) C  1- C  2        0.05625     0.37696
  62. BD*( 1) C  1- H  5        0.00387     0.45418
  63. BD*( 1) C  1- H  6        0.00543     0.43597
  64. BD*( 1) C  1- H  7        0.00543     0.43597
  65. BD*( 1) C  2- O  3        0.10561     0.34614  28(g),68(g),62(v),34(g)
                                                    66(g),45(g)
  66. BD*( 1) C  2- O  4        0.02275     0.61022
  67. BD*( 2) C  2- O  4        0.21062     0.01105  29(g),48(g),63(v),64(v)
                                                    35(g)
  68. BD*( 1) O  3- H  8        0.01511     0.39160
          -------------------------------
                 Total Lewis   31.51962  ( 98.4988%)
           Valence non-Lewis    0.42507  (  1.3284%)
           Rydberg non-Lewis    0.05531  (  0.1728%)
          -------------------------------
               Total unit  1   32.00000  (100.0000%)
              Charge unit  1    0.00000


 NATURAL RESONANCE THEORY ANALYSIS:

 Maximum reference structures :    20
 Maximum resonance structures :  1075
 Memory requirements :    6231626 words of   6239104 available

   7 candidate reference structure(s) calculated by SR LEWIS
 Total of   7 candidate reference structures.
 Initial loops searched   32 bonding pattern(s); all but  2 were discarded
 Reference   1:  rho*=0.48038, f(w)=0.91033 converged after  49 iterations
 Reference   2:  rho*=1.02936, ionic; deleted

                                                fractional accuracy f(w)
                  non-Lewis             -------------------------------------
  Ref     Wgt      density      d(0)      all NBOs     val+core     valence
 ----------------------------------------------------------------------------
   1    1.00000    0.48038    0.04163     0.91033      0.94632      0.94638


 TOPO matrix for the leading resonance structure:

     Atom  1   2   3   4   5   6   7   8
     ---- --- --- --- --- --- --- --- ---
   1.  C   0   1   0   0   1   1   1   0
   2.  C   1   0   1   2   0   0   0   0
   3.  O   0   1   2   0   0   0   0   1
   4.  O   0   2   0   2   0   0   0   0
   5.  H   1   0   0   0   0   0   0   0
   6.  H   1   0   0   0   0   0   0   0
   7.  H   1   0   0   0   0   0   0   0
   8.  H   0   0   1   0   0   0   0   0

         Resonance
    RS   Weight(%)                  Added(Removed)
 ---------------------------------------------------------------------------
    1*     77.62                                                            
    2 (2)   9.91    C  2- O  3, ( C  2- O  4), ( O  3),  O  4               
    3 (2)   5.33   ( C  2- O  3),  C  2- O  4,  O  3, ( O  4)               
    4 (2)   3.11   ( C  1- C  2),  C  2- O  4,  C  1, ( O  4)               
    5       1.02    C  1- C  2, ( C  1- H  6), ( C  2- O  4),  O  4         
    6       1.02    C  1- C  2, ( C  1- H  7), ( C  2- O  4),  O  4         
    7       0.72   ( C  1- C  2),  C  2- O  3, ( O  3- H  8),  H  8         
    8       0.41    C  2- O  3, ( C  2- O  4), ( O  3- H  8),  O  4         
    9       0.36    C  1- C  2, ( C  1- H  5), ( C  2- O  3),  O  3         
   10       0.17    C  1- C  2, ( C  1- H  6), ( C  2- O  4),  H  6         
   11       0.17    C  1- C  2, ( C  1- H  7), ( C  2- O  4),  H  7         
   12-14    0.14
 ---------------------------------------------------------------------------
          100.00   * Total *                [* = reference structure]


 Natural Bond Order:  (total/covalent/ionic)                                   

     Atom       1      2      3      4      5      6      7      8
     ----   ------ ------ ------ ------ ------ ------ ------ ------
   1.  C  t 0.0315 0.9899 0.0000 0.0000 0.9954 0.9880 0.9880 0.0000
          c   ---  0.9333 0.0000 0.0000 0.7400 0.7368 0.7368 0.0000       
          i   ---  0.0566 0.0000 0.0000 0.2554 0.2513 0.2513 0.0000       

   2.  C  t 0.9899 0.0000 1.0528 1.9572 0.0000 0.0000 0.0000 0.0000
          c 0.9333   ---  0.5918 1.2193 0.0000 0.0000 0.0000 0.0000       
          i 0.0566   ---  0.4611 0.7379 0.0000 0.0000 0.0000 0.0000       

   3.  O  t 0.0000 1.0528 1.9579 0.0000 0.0000 0.0000 0.0000 0.9883
          c 0.0000 0.5918   ---  0.0000 0.0000 0.0000 0.0000 0.4864       
          i 0.0000 0.4611   ---  0.0000 0.0000 0.0000 0.0000 0.5019       

   4.  O  t 0.0000 1.9572 0.0000 2.0393 0.0000 0.0000 0.0000 0.0000
          c 0.0000 1.2193 0.0000   ---  0.0000 0.0000 0.0000 0.0000       
          i 0.0000 0.7379 0.0000   ---  0.0000 0.0000 0.0000 0.0000       

   5.  H  t 0.9954 0.0000 0.0000 0.0000 0.0010 0.0000 0.0000 0.0000
          c 0.7400 0.0000 0.0000 0.0000   ---  0.0000 0.0000 0.0000       
          i 0.2554 0.0000 0.0000 0.0000   ---  0.0000 0.0000 0.0000       

   6.  H  t 0.9880 0.0000 0.0000 0.0000 0.0000 0.0017 0.0000 0.0000
          c 0.7368 0.0000 0.0000 0.0000 0.0000   ---  0.0000 0.0000       
          i 0.2513 0.0000 0.0000 0.0000 0.0000   ---  0.0000 0.0000       

   7.  H  t 0.9880 0.0000 0.0000 0.0000 0.0000 0.0000 0.0017 0.0000
          c 0.7368 0.0000 0.0000 0.0000 0.0000 0.0000   ---  0.0000       
          i 0.2513 0.0000 0.0000 0.0000 0.0000 0.0000   ---  0.0000       

   8.  H  t 0.0000 0.0000 0.9883 0.0000 0.0000 0.0000 0.0000 0.0072
          c 0.0000 0.0000 0.4864 0.0000 0.0000 0.0000 0.0000   ---        
          i 0.0000 0.0000 0.5019 0.0000 0.0000 0.0000 0.0000   ---        


 Natural Atomic Valencies:                                                     

                      Co-    Electro-
     Atom  Valency  Valency  Valency
     ----  -------  -------  -------
   1.  C    3.9613   3.1468   0.8145
   2.  C    3.9999   2.7444   1.2555
   3.  O    2.0411   1.0782   0.9629
   4.  O    1.9572   1.2193   0.7379
   5.  H    0.9954   0.7400   0.2554
   6.  H    0.9880   0.7368   0.2513
   7.  H    0.9880   0.7368   0.2513
   8.  H    0.9883   0.4864   0.5019


 $NRTSTR
   STR        ! Wgt = 77.62%
     LONE 3 2 4 2 END
     BOND S 1 2 S 1 5 S 1 6 S 1 7 S 2 3 D 2 4 S 3 8 END
   END
 $END
 1\1\GINC-SUN\SP\RB3LYP\6-31G(d)\C2H4O2\XAVIER\11-Apr-2009\0\\# B3LYP/6
 -31G* POP=(FULL,NBOREAD) GFPRINT GEOM=CHECK GUESS=READ\\InChI=1/C2H4O2
 /c1-2(3)4/h1H3,(H,3,4)\\0,1\C,-0.110528278,0.000775496,-1.3970840414\C
 ,-0.1100017817,-0.0001082654,0.1109892605\O,1.1560488229,0.0000996741,
 0.6046445721\O,-1.0861099913,-0.0009107871,0.8260032455\H,-1.138111612
 8,0.0005851523,-1.760956639\H,0.4188336276,0.8831635873,-1.7712460214\
 H,0.419526488,-0.8807572195,-1.7722799565\H,1.0634212027,-0.0005059998
 ,1.5758687614\\Version=x86-Linux-G03RevB.05\State=1-A'\HF=-229.0817995
 \RMSD=2.528e-06\Dipole=0.5347721,0.000395,-0.31552\PG=CS [SG(C2H2O2),X
 (H2)]\\@


    THE DOUGHNUT CREED
 AS YOU RAMBLE ON THROUGH LIFE, BROTHER
 WHATEVER BE YOUR GOAL
 KEEP YOUR EYE UPON THE DOUGHNUT
 AND NOT UPON THE HOLE.
 Job cpu time:  0 days  0 hours  0 minutes  5.0 seconds.
 File lengths (MBytes):  RWF=      7 Int=      0 D2E=      0 Chk=      5 Scr=      1
 Normal termination of Gaussian 03 at Sat Apr 11 14:45:02 2009.
