 Entering Gaussian System, Link 0=g03
 Input=H2O_3.com
 Output=H2O_3.log
 Initial command:
 /usr/local/g03/l1.exe /Users/rkanters/scratch/Gau-4755.inp -scrdir=/Users/rkanters/scratch/
 Entering Link 1 = /usr/local/g03/l1.exe PID=      4756.
  
 Copyright (c) 1988,1990,1992,1993,1995,1998,2003,2004, Gaussian, Inc.
                  All Rights Reserved.
  
 This is the Gaussian(R) 03 program.  It is based on the
 the Gaussian(R) 98 system (copyright 1998, Gaussian, Inc.),
 the Gaussian(R) 94 system (copyright 1995, Gaussian, Inc.),
 the Gaussian 92(TM) system (copyright 1992, Gaussian, Inc.),
 the Gaussian 90(TM) system (copyright 1990, Gaussian, Inc.),
 the Gaussian 88(TM) system (copyright 1988, Gaussian, Inc.),
 the Gaussian 86(TM) system (copyright 1986, Carnegie Mellon
 University), and the Gaussian 82(TM) system (copyright 1983,
 Carnegie Mellon University). Gaussian is a federally registered
 trademark of Gaussian, Inc.
  
 This software contains proprietary and confidential information,
 including trade secrets, belonging to Gaussian, Inc.
  
 This software is provided under written license and may be
 used, copied, transmitted, or stored only in accord with that
 written license.
  
 The following legend is applicable only to US Government
 contracts under FAR:
  
                    RESTRICTED RIGHTS LEGEND
  
 Use, reproduction and disclosure by the US Government is
 subject to restrictions as set forth in subparagraphs (a)
 and (c) of the Commercial Computer Software - Restricted
 Rights clause in FAR 52.227-19.
  
 Gaussian, Inc.
 340 Quinnipiac St., Bldg. 40, Wallingford CT 06492
  
  
 ---------------------------------------------------------------
 Warning -- This program may not be used in any manner that
 competes with the business of Gaussian, Inc. or will provide
 assistance to any competitor of Gaussian, Inc.  The licensee
 of this program is prohibited from giving any competitor of
 Gaussian, Inc. access to this program.  By using this program,
 the user acknowledges that Gaussian, Inc. is engaged in the
 business of creating and licensing software in the field of
 computational chemistry and represents and warrants to the
 licensee that it is not a competitor of Gaussian, Inc. and that
 it will not use this program in any manner prohibited above.
 ---------------------------------------------------------------
  

 Cite this work as:
 Gaussian 03, Revision C.02,
 M. J. Frisch, G. W. Trucks, H. B. Schlegel, G. E. Scuseria, 
 M. A. Robb, J. R. Cheeseman, J. A. Montgomery, Jr., T. Vreven, 
 K. N. Kudin, J. C. Burant, J. M. Millam, S. S. Iyengar, J. Tomasi, 
 V. Barone, B. Mennucci, M. Cossi, G. Scalmani, N. Rega, 
 G. A. Petersson, H. Nakatsuji, M. Hada, M. Ehara, K. Toyota, 
 R. Fukuda, J. Hasegawa, M. Ishida, T. Nakajima, Y. Honda, O. Kitao, 
 H. Nakai, M. Klene, X. Li, J. E. Knox, H. P. Hratchian, J. B. Cross, 
 C. Adamo, J. Jaramillo, R. Gomperts, R. E. Stratmann, O. Yazyev, 
 A. J. Austin, R. Cammi, C. Pomelli, J. W. Ochterski, P. Y. Ayala, 
 K. Morokuma, G. A. Voth, P. Salvador, J. J. Dannenberg, 
 V. G. Zakrzewski, S. Dapprich, A. D. Daniels, M. C. Strain, 
 O. Farkas, D. K. Malick, A. D. Rabuck, K. Raghavachari, 
 J. B. Foresman, J. V. Ortiz, Q. Cui, A. G. Baboul, S. Clifford, 
 J. Cioslowski, B. B. Stefanov, G. Liu, A. Liashenko, P. Piskorz, 
 I. Komaromi, R. L. Martin, D. J. Fox, T. Keith, M. A. Al-Laham, 
 C. Y. Peng, A. Nanayakkara, M. Challacombe, P. M. W. Gill, 
 B. Johnson, W. Chen, M. W. Wong, C. Gonzalez, and J. A. Pople, 
 Gaussian, Inc., Wallingford CT, 2004.
 
 ******************************************
 Gaussian 03:  Mac32-G03RevC.02 12-Jun-2004
                30-Oct-2004 
 ******************************************
 %Chk=H2O
 ----------------------
 # UHF/6-31G** OPT FREQ
 ----------------------
 1/18=20,38=1/1,3;
 2/9=110,17=6,18=5,40=1/2;
 3/5=1,6=6,7=101,11=2,16=1,25=1,30=1/1,2,3;
 4/7=2/1;
 5/5=2,38=5/2;
 6/7=2,8=2,9=2,10=2,28=1/1;
 7//1,2,3,16;
 1/18=20/3(1);
 99//99;
 2/9=110/2;
 3/5=1,6=6,7=101,11=2,16=1,25=1,30=1/1,2,3;
 4/5=5,7=2,16=3/1;
 5/5=2,38=5/2;
 7//1,2,3,16;
 1/18=20/3(-5);
 2/9=110/2;
 6/7=2,8=2,9=2,10=2,19=2,28=1/1;
 99/9=1/99;
 --------
 H2O+ UHF
 --------
 Symbolic Z-matrix:
 Charge =  1 Multiplicity = 2
 O                     0.        0.        0. 
 H1                    0.        0.        1. 
 H2                    0.        1.        0. 
 

 GradGradGradGradGradGradGradGradGradGradGradGradGradGradGradGradGradGrad
 Berny optimization.
 Initialization pass.
                           ----------------------------
                           !    Initial Parameters    !
                           ! (Angstroms and Degrees)  !
 --------------------------                            --------------------------
 ! Name  Definition              Value          Derivative Info.                !
 --------------------------------------------------------------------------------
 ! R1    R(1,2)                  1.0            estimate D2E/DX2                !
 ! R2    R(1,3)                  1.0            estimate D2E/DX2                !
 ! A1    A(2,1,3)               90.0            estimate D2E/DX2                !
 --------------------------------------------------------------------------------
 Trust Radius=3.00E-01 FncErr=1.00E-07 GrdErr=1.00E-07
 Number of steps in this run=  20 maximum allowed number of steps= 100.
 GradGradGradGradGradGradGradGradGradGradGradGradGradGradGradGradGradGrad

                          Input orientation:                          
 ---------------------------------------------------------------------
 Center     Atomic     Atomic              Coordinates (Angstroms)
 Number     Number      Type              X           Y           Z
 ---------------------------------------------------------------------
    1          8             0         .000000     .000000     .000000
    2          1             0         .000000     .000000    1.000000
    3          1             0         .000000    1.000000     .000000
 ---------------------------------------------------------------------
                    Distance matrix (angstroms):
                    1          2          3
     1  O     .000000
     2  H    1.000000    .000000
     3  H    1.000000   1.414214    .000000
 Stoichiometry    H2O(1+,2)
 Framework group  C2V[C2(O),SGV(H2)]
 Deg. of freedom     2
 Full point group                 C2V     NOp   4
 Largest Abelian subgroup         C2V     NOp   4
 Largest concise Abelian subgroup C2      NOp   2
                         Standard orientation:                         
 ---------------------------------------------------------------------
 Center     Atomic     Atomic              Coordinates (Angstroms)
 Number     Number      Type              X           Y           Z
 ---------------------------------------------------------------------
    1          8             0         .000000     .000000     .141421
    2          1             0         .000000     .707107    -.565685
    3          1             0         .000000    -.707107    -.565685
 ---------------------------------------------------------------------
 Rotational constants (GHZ):    564.6475613    501.4551008    265.5892438
 Standard basis: 6-31G(d,p) (6D, 7F)
 There are    12 symmetry adapted basis functions of A1  symmetry.
 There are     2 symmetry adapted basis functions of A2  symmetry.
 There are     4 symmetry adapted basis functions of B1  symmetry.
 There are     7 symmetry adapted basis functions of B2  symmetry.
 Integral buffers will be    262144 words long.
 Raffenetti 2 integral format.
 Two-electron integral symmetry is turned on.
    25 basis functions,    42 primitive gaussians,    25 cartesian basis functions
     5 alpha electrons        4 beta electrons
       nuclear repulsion energy         8.8410201252 Hartrees.
 NAtoms=    3 NActive=    3 NUniq=    2 SFac= 2.76E+00 NAtFMM=   60 Big=F
 One-electron integrals computed using PRISM.
 NBasis=    25 RedAO= T  NBF=    12     2     4     7
 NBsUse=    25 1.00E-06 NBFU=    12     2     4     7
 Harris functional with IExCor=  205 diagonalized for initial guess.
 ExpMin= 1.61E-01 ExpMax= 5.48E+03 ExpMxC= 8.25E+02 IAcc=1 IRadAn=         1 AccDes= 1.00E-06
 HarFok:  IExCor= 205 AccDes= 1.00E-06 IRadAn=         1 IDoV=1
 ScaDFX=  1.000000  1.000000  1.000000  1.000000
 Initial guess orbital symmetries:
 Alpha Orbitals:
       Occupied  (A1) (A1) (B2) (A1) (B1)
       Virtual   (A1) (B2) (B2) (A1) (B1) (A1) (B2) (A1) (A1) (A2)
                 (B1) (A1) (B2) (B2) (A2) (B1) (A1) (A1) (B2) (A1)
 Beta  Orbitals:
       Occupied  (A1) (A1) (B2) (A1)
       Virtual   (B1) (A1) (B2) (B2) (A1) (B1) (A1) (B2) (A1) (A1)
                 (A2) (B1) (A1) (B2) (B2) (A2) (B1) (A1) (A1) (B2)
                 (A1)
 The electronic state of the initial guess is 2-B1.
 <S**2> of initial guess=  .7500
 Requested convergence on RMS density matrix=1.00E-08 within 128 cycles.
 Requested convergence on MAX density matrix=1.00E-06.
 Requested convergence on             energy=1.00E-06.
 No special actions if energy rises.
 Keep R1 and R2 integrals in memory in canonical form, NReq=      563848.
 SCF Done:  E(UHF) =  -75.6156877700     A.U. after   12 cycles
             Convg  =     .1659E-08             -V/T =  2.0036
             S**2   =    .7572
 Annihilation of the first spin contaminant:
 S**2 before annihilation      .7572,   after      .7500

 **********************************************************************

            Population analysis using the SCF density.

 **********************************************************************

 Orbital symmetries:
 Alpha Orbitals:
       Occupied  (A1) (A1) (B2) (B1) (A1)
       Virtual   (A1) (B2) (B2) (A1) (B1) (A1) (B2) (A1) (A1) (A2)
                 (B1) (A1) (B2) (B2) (A2) (B1) (A1) (A1) (B2) (A1)
 Beta  Orbitals:
       Occupied  (A1) (A1) (B2) (A1)
       Virtual   (B1) (A1) (B2) (B2) (A1) (A1) (B1) (B2) (A1) (A1)
                 (A2) (B1) (A1) (B2) (B2) (A2) (B1) (A1) (A1) (B2)
                 (A1)
 The electronic state is 2-B1.
 Alpha  occ. eigenvalues --  -21.15183  -1.90104  -1.16699  -1.12712  -1.10895
 Alpha virt. eigenvalues --    -.14464   -.05939    .55824    .63969    .64888
 Alpha virt. eigenvalues --     .71746    .85812   1.02589   1.24486   1.34172
 Alpha virt. eigenvalues --    1.37439   2.01693   2.09988   2.38165   2.38934
 Alpha virt. eigenvalues --    2.55195   2.75282   3.16334   3.45354   3.55628
  Beta  occ. eigenvalues --  -21.10718  -1.74303  -1.12487  -1.05670
  Beta virt. eigenvalues --    -.31038   -.12917   -.05030    .55193    .66168
  Beta virt. eigenvalues --     .74654    .84458    .88157   1.06819   1.25605
  Beta virt. eigenvalues --    1.41363   1.44980   2.09487   2.10223   2.38357
  Beta virt. eigenvalues --    2.42133   2.58086   2.76088   3.18272   3.46235
  Beta virt. eigenvalues --    3.59093
          Condensed to atoms (all electrons):
              1          2          3
     1  O    7.442002    .272295    .272295
     2  H     .272295    .242551   -.008142
     3  H     .272295   -.008142    .242551
 Mulliken atomic charges:
              1
     1  O     .013408
     2  H     .493296
     3  H     .493296
 Sum of Mulliken charges=   1.00000
 Atomic charges with hydrogens summed into heavy atoms:
              1
     1  O    1.000000
     2  H     .000000
     3  H     .000000
 Sum of Mulliken charges=   1.00000
          Atomic-Atomic Spin Densities.
              1          2          3
     1  O    1.110282   -.011922   -.011922
     2  H    -.011922   -.034245    .002948
     3  H    -.011922    .002948   -.034245
 Mulliken atomic spin densities:
              1
     1  O    1.086438
     2  H    -.043219
     3  H    -.043219
 Sum of Mulliken spin densities=   1.00000
 Electronic spatial extent (au):  <R**2>=    14.7393
 Charge=     1.0000 electrons
 Dipole moment (field-independent basis, Debye):
    X=      .0000    Y=      .0000    Z=    -2.7874  Tot=     2.7874
 Quadrupole moment (field-independent basis, Debye-Ang):
   XX=    -4.7893   YY=    -2.6942   ZZ=    -3.6955
   XY=      .0000   XZ=      .0000   YZ=      .0000
 Traceless Quadrupole moment (field-independent basis, Debye-Ang):
   XX=    -1.0629   YY=     1.0321   ZZ=      .0308
   XY=      .0000   XZ=      .0000   YZ=      .0000
 Octapole moment (field-independent basis, Debye-Ang**2):
  XXX=      .0000  YYY=      .0000  ZZZ=    -2.2481  XYY=      .0000
  XXY=      .0000  XXZ=     -.2997  XZZ=      .0000  YZZ=      .0000
  YYZ=    -2.0122  XYZ=      .0000
 Hexadecapole moment (field-independent basis, Debye-Ang**3):
 XXXX=    -2.7275 YYYY=    -3.3457 ZZZZ=    -4.2999 XXXY=      .0000
 XXXZ=      .0000 YYYX=      .0000 YYYZ=      .0000 ZZZX=      .0000
 ZZZY=      .0000 XXYY=    -1.2810 XXZZ=    -1.2838 YYZZ=     -.5657
 XXYZ=      .0000 YYXZ=      .0000 ZZXY=      .0000
 N-N= 8.841020125238E+00 E-N=-1.927692519850E+02  KE= 7.534356466539E+01
 Symmetry A1   KE= 6.851151584831E+01
 Symmetry A2   KE= 1.220451172143E-34
 Symmetry B1   KE= 2.713222626628E+00
 Symmetry B2   KE= 4.118826190454E+00
                          Isotropic Fermi Contact Couplings
        Atom                 a.u.       MegaHertz       Gauss      10(-4) cm-1
     1  O(17)               .22426    -135.94303     -48.50785     -45.34571
     2  H(1)               -.02652    -118.55632     -42.30384     -39.54613
     3  H(1)               -.02652    -118.55632     -42.30384     -39.54613
 --------------------------------------------------------
       Center         ----  Spin Dipole Couplings  ----
                      3XX-RR        3YY-RR        3ZZ-RR
 --------------------------------------------------------
     1   Atom        3.849341     -1.860580     -1.988761
     2   Atom        -.051836       .031298       .020538
     3   Atom        -.051836       .031298       .020538
 --------------------------------------------------------
                        XY            XZ            YZ
 --------------------------------------------------------
     1   Atom         .000000       .000000       .000000
     2   Atom         .000000       .000000      -.160600
     3   Atom         .000000       .000000       .160600
 --------------------------------------------------------


 ---------------------------------------------------------------------------------
              Anisotropic Spin Dipole Couplings in Principal Axis System
 ---------------------------------------------------------------------------------

       Atom             a.u.   MegaHertz   Gauss  10(-4) cm-1        Axes

              Baa    -1.9888   143.905    51.349    48.002   .0000   .0000  1.0000
     1 O(17)  Bbb    -1.8606   134.630    48.039    44.908   .0000  1.0000   .0000
              Bcc     3.8493  -278.536   -99.388   -92.909  1.0000   .0000   .0000
 
              Baa     -.1348   -71.908   -25.659   -23.986   .0000   .6952   .7188
     2 H(1)   Bbb     -.0518   -27.657    -9.869    -9.226  1.0000   .0000   .0000
              Bcc      .1866    99.566    35.527    33.212   .0000   .7188  -.6952
 
              Baa     -.1348   -71.908   -25.659   -23.986   .0000  -.6952   .7188
     3 H(1)   Bbb     -.0518   -27.657    -9.869    -9.226  1.0000   .0000   .0000
              Bcc      .1866    99.566    35.527    33.212   .0000   .7188   .6952
 

 ---------------------------------------------------------------------------------

 ***** Axes restored to original set *****
 -------------------------------------------------------------------
 Center     Atomic                   Forces (Hartrees/Bohr)
 Number     Number              X              Y              Z
 -------------------------------------------------------------------
    1          8            .000000000     .041880996     .041880996
    2          1            .000000000    -.034587573    -.007293423
    3          1            .000000000    -.007293423    -.034587573
 -------------------------------------------------------------------
 Cartesian Forces:  Max      .041880996 RMS      .025834998

 GradGradGradGradGradGradGradGradGradGradGradGradGradGradGradGradGradGrad
 Berny optimization.
 Internal  Forces:  Max      .065361040 RMS      .038203201
 Search for a local minimum.
 Step number   1 out of a maximum of  20
 All quantities printed in internal units (Hartrees-Bohrs-Radians)
 Second derivative matrix not updated -- first step.
 The second derivative matrix:
                          R1        R2        A1
           R1            .47688
           R2            .00000    .47688
           A1            .00000    .00000    .16000
     Eigenvalues ---     .16000    .47688    .47688
 RFO step:  Lambda=-2.34943425E-02.
 Linear search not attempted -- first point.
 Maximum step size (    .300) exceeded in Quadratic search.
    -- Step size scaled by    .841
 Iteration  1 RMS(Cart)=   .12187790 RMS(Int)=   .05781425
 Iteration  2 RMS(Cart)=   .05622052 RMS(Int)=   .00191800
 Iteration  3 RMS(Cart)=   .00177087 RMS(Int)=   .00000024
 Iteration  4 RMS(Cart)=   .00000023 RMS(Int)=   .00000000
 Variable       Old X    -DE/DX   Delta X   Delta X   Delta X     New X
                                 (Linear)    (Quad)   (Total)
    R1        1.88973   -.00729    .00000   -.01226   -.01226   1.87747
    R2        1.88973   -.00729    .00000   -.01226   -.01226   1.87747
    A1        1.57080    .06536    .00000    .29950    .29950   1.87030
         Item               Value     Threshold  Converged?
 Maximum Force             .065361      .000450     NO 
 RMS     Force             .038203      .000300     NO 
 Maximum Displacement      .175645      .001800     NO 
 RMS     Displacement      .176692      .001200     NO 
 Predicted change in Energy=-1.250674E-02
 GradGradGradGradGradGradGradGradGradGradGradGradGradGradGradGradGradGrad

                          Input orientation:                          
 ---------------------------------------------------------------------
 Center     Atomic     Atomic              Coordinates (Angstroms)
 Number     Number      Type              X           Y           Z
 ---------------------------------------------------------------------
    1          8             0         .000000     .055276     .055276
    2          1             0         .000000    -.092947    1.037671
    3          1             0         .000000    1.037671    -.092947
 ---------------------------------------------------------------------
                    Distance matrix (angstroms):
                    1          2          3
     1  O     .000000
     2  H     .993515    .000000
     3  H     .993515   1.598936    .000000
 Stoichiometry    H2O(1+,2)
 Framework group  C2V[C2(O),SGV(H2)]
 Deg. of freedom     2
 Full point group                 C2V     NOp   4
 Largest Abelian subgroup         C2V     NOp   4
 Largest concise Abelian subgroup C2      NOp   2
                         Standard orientation:                         
 ---------------------------------------------------------------------
 Center     Atomic     Atomic              Coordinates (Angstroms)
 Number     Number      Type              X           Y           Z
 ---------------------------------------------------------------------
    1          8             0         .000000     .000000     .117970
    2          1             0         .000000     .799468    -.471879
    3          1             0         .000000    -.799468    -.471879
 ---------------------------------------------------------------------
 Rotational constants (GHZ):    811.4566783    392.2833085    264.4432468
 Standard basis: 6-31G(d,p) (6D, 7F)
 There are    12 symmetry adapted basis functions of A1  symmetry.
 There are     2 symmetry adapted basis functions of A2  symmetry.
 There are     4 symmetry adapted basis functions of B1  symmetry.
 There are     7 symmetry adapted basis functions of B2  symmetry.
 Integral buffers will be    262144 words long.
 Raffenetti 2 integral format.
 Two-electron integral symmetry is turned on.
    25 basis functions,    42 primitive gaussians,    25 cartesian basis functions
     5 alpha electrons        4 beta electrons
       nuclear repulsion energy         8.8530600064 Hartrees.
 NAtoms=    3 NActive=    3 NUniq=    2 SFac= 2.76E+00 NAtFMM=   60 Big=F
 One-electron integrals computed using PRISM.
 NBasis=    25 RedAO= T  NBF=    12     2     4     7
 NBsUse=    25 1.00E-06 NBFU=    12     2     4     7
 Initial guess read from the read-write file:
 Initial guess orbital symmetries:
 Alpha Orbitals:
       Occupied  (A1) (A1) (B2) (B1) (A1)
       Virtual   (A1) (B2) (B2) (A1) (B1) (A1) (B2) (A1) (A1) (A2)
                 (B1) (A1) (B2) (B2) (A2) (B1) (A1) (A1) (B2) (A1)
 Beta  Orbitals:
       Occupied  (A1) (A1) (B2) (A1)
       Virtual   (B1) (A1) (B2) (B2) (A1) (A1) (B1) (B2) (A1) (A1)
                 (A2) (B1) (A1) (B2) (B2) (A2) (B1) (A1) (A1) (B2)
                 (A1)
 <S**2> of initial guess=  .7572
 Harris functional with IExCor=  205 diagonalized for initial guess.
 ExpMin= 1.61E-01 ExpMax= 5.48E+03 ExpMxC= 8.25E+02 IAcc=1 IRadAn=         1 AccDes= 1.00E-06
 HarFok:  IExCor= 205 AccDes= 1.00E-06 IRadAn=         1 IDoV=1
 ScaDFX=  1.000000  1.000000  1.000000  1.000000
 Requested convergence on RMS density matrix=1.00E-08 within 128 cycles.
 Requested convergence on MAX density matrix=1.00E-06.
 Requested convergence on             energy=1.00E-06.
 No special actions if energy rises.
 Keep R1 and R2 integrals in memory in canonical form, NReq=      563848.
 SCF Done:  E(UHF) =  -75.6274406763     A.U. after   11 cycles
             Convg  =     .7159E-08             -V/T =  2.0037
             S**2   =    .7570
 Annihilation of the first spin contaminant:
 S**2 before annihilation      .7570,   after      .7500
 ***** Axes restored to original set *****
 -------------------------------------------------------------------
 Center     Atomic                   Forces (Hartrees/Bohr)
 Number     Number              X              Y              Z
 -------------------------------------------------------------------
    1          8            .000000000     .015555750     .015555750
    2          1            .000000000    -.005817943    -.009737806
    3          1            .000000000    -.009737806    -.005817943
 -------------------------------------------------------------------
 Cartesian Forces:  Max      .015555750 RMS      .009075666

 GradGradGradGradGradGradGradGradGradGradGradGradGradGradGradGradGradGrad
 Berny optimization.
 Internal  Forces:  Max      .013528338 RMS      .010591202
 Search for a local minimum.
 Step number   2 out of a maximum of  20
 All quantities printed in internal units (Hartrees-Bohrs-Radians)
 Update second derivatives using D2CorX and points  1  2
 Trust test= 9.40E-01 RLast= 3.00E-01 DXMaxT set to 4.24E-01
 The second derivative matrix:
                          R1        R2        A1
           R1            .47467
           R2           -.00222    .47467
           A1            .02423    .02423    .17505
     Eigenvalues ---     .17115    .47635    .47688
 RFO step:  Lambda=-3.66796272E-04.
 Quartic linear search produced a step of   .31579.
 Iteration  1 RMS(Cart)=   .04932164 RMS(Int)=   .00188885
 Iteration  2 RMS(Cart)=   .00192362 RMS(Int)=   .00000070
 Iteration  3 RMS(Cart)=   .00000057 RMS(Int)=   .00000000
 Variable       Old X    -DE/DX   Delta X   Delta X   Delta X     New X
                                 (Linear)    (Quad)   (Total)
    R1        1.87747   -.00876   -.00387   -.01975   -.02362   1.85385
    R2        1.87747   -.00876   -.00387   -.01975   -.02362   1.85385
    A1        1.87030    .01353    .09458    .00111    .09569   1.96599
         Item               Value     Threshold  Converged?
 Maximum Force             .013528      .000450     NO 
 RMS     Force             .010591      .000300     NO 
 Maximum Displacement      .042997      .001800     NO 
 RMS     Displacement      .048450      .001200     NO 
 Predicted change in Energy=-7.529230E-04
 GradGradGradGradGradGradGradGradGradGradGradGradGradGradGradGradGradGrad

                          Input orientation:                          
 ---------------------------------------------------------------------
 Center     Atomic     Atomic              Coordinates (Angstroms)
 Number     Number      Type              X           Y           Z
 ---------------------------------------------------------------------
    1          8             0         .000000     .076886     .076886
    2          1             0         .000000    -.115700    1.038814
    3          1             0         .000000    1.038814    -.115700
 ---------------------------------------------------------------------
                    Distance matrix (angstroms):
                    1          2          3
     1  O     .000000
     2  H     .981017    .000000
     3  H     .981017   1.632729    .000000
 Stoichiometry    H2O(1+,2)
 Framework group  C2V[C2(O),SGV(H2)]
 Deg. of freedom     2
 Full point group                 C2V     NOp   4
 Largest Abelian subgroup         C2V     NOp   4
 Largest concise Abelian subgroup C2      NOp   2
                         Standard orientation:                         
 ---------------------------------------------------------------------
 Center     Atomic     Atomic              Coordinates (Angstroms)
 Number     Number      Type              X           Y           Z
 ---------------------------------------------------------------------
    1          8             0         .000000     .000000     .108801
    2          1             0         .000000     .816365    -.435206
    3          1             0         .000000    -.816365    -.435206
 ---------------------------------------------------------------------
 Rotational constants (GHZ):    953.9775057    376.2128314    269.8099426
 Standard basis: 6-31G(d,p) (6D, 7F)
 There are    12 symmetry adapted basis functions of A1  symmetry.
 There are     2 symmetry adapted basis functions of A2  symmetry.
 There are     4 symmetry adapted basis functions of B1  symmetry.
 There are     7 symmetry adapted basis functions of B2  symmetry.
 Integral buffers will be    262144 words long.
 Raffenetti 2 integral format.
 Two-electron integral symmetry is turned on.
    25 basis functions,    42 primitive gaussians,    25 cartesian basis functions
     5 alpha electrons        4 beta electrons
       nuclear repulsion energy         8.9547734185 Hartrees.
 NAtoms=    3 NActive=    3 NUniq=    2 SFac= 2.76E+00 NAtFMM=   60 Big=F
 One-electron integrals computed using PRISM.
 NBasis=    25 RedAO= T  NBF=    12     2     4     7
 NBsUse=    25 1.00E-06 NBFU=    12     2     4     7
 Initial guess read from the read-write file:
 Initial guess orbital symmetries:
 Alpha Orbitals:
       Occupied  (A1) (A1) (B2) (B1) (A1)
       Virtual   (A1) (B2) (B2) (A1) (B1) (A1) (B2) (A1) (A2) (A1)
                 (B1) (A1) (B2) (B2) (B1) (A2) (A1) (A1) (B2) (A1)
 Beta  Orbitals:
       Occupied  (A1) (A1) (B2) (A1)
       Virtual   (B1) (A1) (B2) (B2) (A1) (A1) (B1) (B2) (A1) (A2)
                 (A1) (B1) (A1) (B2) (B2) (B1) (A2) (A1) (A1) (B2)
                 (A1)
 <S**2> of initial guess=  .7569
 Harris functional with IExCor=  205 diagonalized for initial guess.
 ExpMin= 1.61E-01 ExpMax= 5.48E+03 ExpMxC= 8.25E+02 IAcc=1 IRadAn=         1 AccDes= 1.00E-06
 HarFok:  IExCor= 205 AccDes= 1.00E-06 IRadAn=         1 IDoV=1
 ScaDFX=  1.000000  1.000000  1.000000  1.000000
 Requested convergence on RMS density matrix=1.00E-08 within 128 cycles.
 Requested convergence on MAX density matrix=1.00E-06.
 Requested convergence on             energy=1.00E-06.
 No special actions if energy rises.
 Keep R1 and R2 integrals in memory in canonical form, NReq=      563848.
 SCF Done:  E(UHF) =  -75.6282620381     A.U. after    9 cycles
             Convg  =     .7180E-08             -V/T =  2.0032
             S**2   =    .7567
 Annihilation of the first spin contaminant:
 S**2 before annihilation      .7567,   after      .7500
 ***** Axes restored to original set *****
 -------------------------------------------------------------------
 Center     Atomic                   Forces (Hartrees/Bohr)
 Number     Number              X              Y              Z
 -------------------------------------------------------------------
    1          8            .000000000    -.000933511    -.000933511
    2          1            .000000000    -.000238173     .001171685
    3          1            .000000000     .001171685    -.000238173
 -------------------------------------------------------------------
 Cartesian Forces:  Max      .001171685 RMS      .000715078

 GradGradGradGradGradGradGradGradGradGradGradGradGradGradGradGradGradGrad
 Berny optimization.
 Internal  Forces:  Max      .001195642 RMS      .000976245
 Search for a local minimum.
 Step number   3 out of a maximum of  20
 All quantities printed in internal units (Hartrees-Bohrs-Radians)
 Update second derivatives using D2CorX and points  1  2  3
 Trust test= 1.09E+00 RLast= 1.01E-01 DXMaxT set to 4.24E-01
 The second derivative matrix:
                          R1        R2        A1
           R1            .48733
           R2            .01045    .48733
           A1            .01880    .01880    .15059
     Eigenvalues ---     .14856    .47688    .49980
 RFO step:  Lambda=-3.99505718E-06.
 Quartic linear search produced a step of  -.03217.
 Iteration  1 RMS(Cart)=   .00163535 RMS(Int)=   .00000047
 Iteration  2 RMS(Cart)=   .00000048 RMS(Int)=   .00000000
 Variable       Old X    -DE/DX   Delta X   Delta X   Delta X     New X
                                 (Linear)    (Quad)   (Total)
    R1        1.85385    .00120    .00076    .00167    .00243   1.85628
    R2        1.85385    .00120    .00076    .00167    .00243   1.85628
    A1        1.96599    .00001   -.00308    .00246   -.00062   1.96537
         Item               Value     Threshold  Converged?
 Maximum Force             .001196      .000450     NO 
 RMS     Force             .000976      .000300     NO 
 Maximum Displacement      .001634      .001800     YES
 RMS     Displacement      .001635      .001200     NO 
 Predicted change in Energy=-2.895155E-06
 GradGradGradGradGradGradGradGradGradGradGradGradGradGradGradGradGradGrad

                          Input orientation:                          
 ---------------------------------------------------------------------
 Center     Atomic     Atomic              Coordinates (Angstroms)
 Number     Number      Type              X           Y           Z
 ---------------------------------------------------------------------
    1          8             0         .000000     .076430     .076430
    2          1             0         .000000    -.116109    1.039679
    3          1             0         .000000    1.039679    -.116109
 ---------------------------------------------------------------------
                    Distance matrix (angstroms):
                    1          2          3
     1  O     .000000
     2  H     .982303    .000000
     3  H     .982303   1.634532    .000000
 Stoichiometry    H2O(1+,2)
 Framework group  C2V[C2(O),SGV(H2)]
 Deg. of freedom     2
 Full point group                 C2V     NOp   4
 Largest Abelian subgroup         C2V     NOp   4
 Largest concise Abelian subgroup C2      NOp   2
                         Standard orientation:                         
 ---------------------------------------------------------------------
 Center     Atomic     Atomic              Coordinates (Angstroms)
 Number     Number      Type              X           Y           Z
 ---------------------------------------------------------------------
    1          8             0         .000000     .000000     .108995
    2          1             0         .000000     .817266    -.435979
    3          1             0         .000000    -.817266    -.435979
 ---------------------------------------------------------------------
 Rotational constants (GHZ):    950.5976807    375.3837371    269.1130547
 Standard basis: 6-31G(d,p) (6D, 7F)
 There are    12 symmetry adapted basis functions of A1  symmetry.
 There are     2 symmetry adapted basis functions of A2  symmetry.
 There are     4 symmetry adapted basis functions of B1  symmetry.
 There are     7 symmetry adapted basis functions of B2  symmetry.
 Integral buffers will be    262144 words long.
 Raffenetti 2 integral format.
 Two-electron integral symmetry is turned on.
    25 basis functions,    42 primitive gaussians,    25 cartesian basis functions
     5 alpha electrons        4 beta electrons
       nuclear repulsion energy         8.9431199888 Hartrees.
 NAtoms=    3 NActive=    3 NUniq=    2 SFac= 2.76E+00 NAtFMM=   60 Big=F
 One-electron integrals computed using PRISM.
 NBasis=    25 RedAO= T  NBF=    12     2     4     7
 NBsUse=    25 1.00E-06 NBFU=    12     2     4     7
 Initial guess read from the read-write file:
 Initial guess orbital symmetries:
 Alpha Orbitals:
       Occupied  (A1) (A1) (B2) (B1) (A1)
       Virtual   (A1) (B2) (A1) (B2) (B1) (A1) (B2) (A1) (A2) (A1)
                 (B1) (A1) (B2) (B2) (B1) (A2) (A1) (A1) (B2) (A1)
 Beta  Orbitals:
       Occupied  (A1) (A1) (B2) (A1)
       Virtual   (B1) (A1) (B2) (B2) (A1) (A1) (B1) (B2) (A1) (A2)
                 (A1) (B1) (B2) (A1) (B2) (B1) (A2) (A1) (A1) (B2)
                 (A1)
 <S**2> of initial guess=  .7567
 Requested convergence on RMS density matrix=1.00E-08 within 128 cycles.
 Requested convergence on MAX density matrix=1.00E-06.
 Requested convergence on             energy=1.00E-06.
 No special actions if energy rises.
 Keep R1 and R2 integrals in memory in canonical form, NReq=      563848.
 SCF Done:  E(UHF) =  -75.6282649279     A.U. after    8 cycles
             Convg  =     .4553E-08             -V/T =  2.0033
             S**2   =    .7567
 Annihilation of the first spin contaminant:
 S**2 before annihilation      .7567,   after      .7500
 ***** Axes restored to original set *****
 -------------------------------------------------------------------
 Center     Atomic                   Forces (Hartrees/Bohr)
 Number     Number              X              Y              Z
 -------------------------------------------------------------------
    1          8            .000000000     .000021041     .000021041
    2          1            .000000000    -.000018149    -.000002892
    3          1            .000000000    -.000002892    -.000018149
 -------------------------------------------------------------------
 Cartesian Forces:  Max      .000021041 RMS      .000013169

 GradGradGradGradGradGradGradGradGradGradGradGradGradGradGradGradGradGrad
 Berny optimization.
 Internal  Forces:  Max      .000034088 RMS      .000019689
 Search for a local minimum.
 Step number   4 out of a maximum of  20
 All quantities printed in internal units (Hartrees-Bohrs-Radians)
 Update second derivatives using D2CorX and points  1  2  3  4
 Trust test= 9.98E-01 RLast= 3.49E-03 DXMaxT set to 4.24E-01
 The second derivative matrix:
                          R1        R2        A1
           R1            .48610
           R2            .00922    .48610
           A1            .01368    .01368    .15175
     Eigenvalues ---     .15066    .47688    .49640
 RFO step:  Lambda= 0.00000000E+00.
 Quartic linear search produced a step of  -.00304.
 Iteration  1 RMS(Cart)=   .00012382 RMS(Int)=   .00000001
 Iteration  2 RMS(Cart)=   .00000001 RMS(Int)=   .00000000
 Variable       Old X    -DE/DX   Delta X   Delta X   Delta X     New X
                                 (Linear)    (Quad)   (Total)
    R1        1.85628    .00000   -.00001    .00000    .00000   1.85628
    R2        1.85628    .00000   -.00001    .00000    .00000   1.85628
    A1        1.96537    .00003    .00000    .00022    .00023   1.96559
         Item               Value     Threshold  Converged?
 Maximum Force             .000034      .000450     YES
 RMS     Force             .000020      .000300     YES
 Maximum Displacement      .000121      .001800     YES
 RMS     Displacement      .000124      .001200     YES
 Predicted change in Energy=-3.839901E-09
 Optimization completed.
    -- Stationary point found.
                           ----------------------------
                           !   Optimized Parameters   !
                           ! (Angstroms and Degrees)  !
 --------------------------                            --------------------------
 ! Name  Definition              Value          Derivative Info.                !
 --------------------------------------------------------------------------------
 ! R1    R(1,2)                  0.9823         -DE/DX =    0.0                 !
 ! R2    R(1,3)                  0.9823         -DE/DX =    0.0                 !
 ! A1    A(2,1,3)              112.6073         -DE/DX =    0.0                 !
 --------------------------------------------------------------------------------
 GradGradGradGradGradGradGradGradGradGradGradGradGradGradGradGradGradGrad

                          Input orientation:                          
 ---------------------------------------------------------------------
 Center     Atomic     Atomic              Coordinates (Angstroms)
 Number     Number      Type              X           Y           Z
 ---------------------------------------------------------------------
    1          8             0         .000000     .076430     .076430
    2          1             0         .000000    -.116109    1.039679
    3          1             0         .000000    1.039679    -.116109
 ---------------------------------------------------------------------
                    Distance matrix (angstroms):
                    1          2          3
     1  O     .000000
     2  H     .982303    .000000
     3  H     .982303   1.634532    .000000
 Stoichiometry    H2O(1+,2)
 Framework group  C2V[C2(O),SGV(H2)]
 Deg. of freedom     2
 Full point group                 C2V     NOp   4
 Largest Abelian subgroup         C2V     NOp   4
 Largest concise Abelian subgroup C2      NOp   2
                         Standard orientation:                         
 ---------------------------------------------------------------------
 Center     Atomic     Atomic              Coordinates (Angstroms)
 Number     Number      Type              X           Y           Z
 ---------------------------------------------------------------------
    1          8             0         .000000     .000000     .108995
    2          1             0         .000000     .817266    -.435979
    3          1             0         .000000    -.817266    -.435979
 ---------------------------------------------------------------------
 Rotational constants (GHZ):    950.5976807    375.3837371    269.1130547

 **********************************************************************

            Population analysis using the SCF density.

 **********************************************************************

 Orbital symmetries:
 Alpha Orbitals:
       Occupied  (A1) (A1) (B2) (B1) (A1)
       Virtual   (A1) (B2) (A1) (B2) (B1) (A1) (B2) (A1) (A2) (A1)
                 (B1) (A1) (B2) (B2) (B1) (A2) (A1) (A1) (B2) (A1)
 Beta  Orbitals:
       Occupied  (A1) (A1) (B2) (A1)
       Virtual   (B1) (A1) (B2) (B2) (A1) (A1) (B1) (B2) (A1) (A2)
                 (A1) (B1) (B2) (A1) (B2) (B1) (A2) (A1) (A1) (B2)
                 (A1)
 The electronic state is 2-B1.
 Alpha  occ. eigenvalues --  -21.13955  -1.89246  -1.21414  -1.12177  -1.07406
 Alpha virt. eigenvalues --    -.13257   -.04160    .61155    .62540    .65223
 Alpha virt. eigenvalues --     .70260    .86396    .94758   1.29137   1.40035
 Alpha virt. eigenvalues --    1.44629   2.02591   2.06553   2.33692   2.44597
 Alpha virt. eigenvalues --    2.53053   2.86731   3.21534   3.40578   3.65362
  Beta  occ. eigenvalues --  -21.09517  -1.73305  -1.17659  -1.02202
  Beta virt. eigenvalues --    -.30720   -.11690   -.03191    .62210    .63246
  Beta virt. eigenvalues --     .72648    .84812    .88451    .97846   1.36215
  Beta virt. eigenvalues --    1.43706   1.52670   2.06244   2.10166   2.34562
  Beta virt. eigenvalues --    2.46997   2.56519   2.87145   3.23339   3.41657
  Beta virt. eigenvalues --    3.68404
          Condensed to atoms (all electrons):
              1          2          3
     1  O    7.449912    .279606    .279606
     2  H     .279606    .223189   -.007356
     3  H     .279606   -.007356    .223189
 Mulliken atomic charges:
              1
     1  O    -.009123
     2  H     .504562
     3  H     .504562
 Sum of Mulliken charges=   1.00000
 Atomic charges with hydrogens summed into heavy atoms:
              1
     1  O    1.000000
     2  H     .000000
     3  H     .000000
 Sum of Mulliken charges=   1.00000
          Atomic-Atomic Spin Densities.
              1          2          3
     1  O    1.107172   -.012588   -.012588
     2  H    -.012588   -.030221    .001812
     3  H    -.012588    .001812   -.030221
 Mulliken atomic spin densities:
              1
     1  O    1.081996
     2  H    -.040998
     3  H    -.040998
 Sum of Mulliken spin densities=   1.00000
 Electronic spatial extent (au):  <R**2>=    14.5046
 Charge=     1.0000 electrons
 Dipole moment (field-independent basis, Debye):
    X=      .0000    Y=      .0000    Z=    -2.2725  Tot=     2.2725
 Quadrupole moment (field-independent basis, Debye-Ang):
   XX=    -4.7570   YY=    -1.5207   ZZ=    -4.5327
   XY=      .0000   XZ=      .0000   YZ=      .0000
 Traceless Quadrupole moment (field-independent basis, Debye-Ang):
   XX=    -1.1535   YY=     2.0827   ZZ=     -.9292
   XY=      .0000   XZ=      .0000   YZ=      .0000
 Octapole moment (field-independent basis, Debye-Ang**2):
  XXX=      .0000  YYY=      .0000  ZZZ=    -1.4972  XYY=      .0000
  XXY=      .0000  XXZ=     -.2557  XZZ=      .0000  YZZ=      .0000
  YYZ=    -2.0513  XYZ=      .0000
 Hexadecapole moment (field-independent basis, Debye-Ang**3):
 XXXX=    -2.6967 YYYY=    -2.1074 ZZZZ=    -4.2483 XXXY=      .0000
 XXXZ=      .0000 YYYX=      .0000 YYYZ=      .0000 ZZZX=      .0000
 ZZZY=      .0000 XXYY=    -1.3016 XXZZ=    -1.1943 YYZZ=     -.7136
 XXYZ=      .0000 YYXZ=      .0000 ZZXY=      .0000
 N-N= 8.943119988839E+00 E-N=-1.930535451570E+02  KE= 7.537958218562E+01
 Symmetry A1   KE= 6.867627195249E+01
 Symmetry A2   KE= 1.459260376539E-34
 Symmetry B1   KE= 2.701585325936E+00
 Symmetry B2   KE= 4.001724907193E+00
                          Isotropic Fermi Contact Couplings
        Atom                 a.u.       MegaHertz       Gauss      10(-4) cm-1
     1  O(17)               .24910    -151.00491     -53.88230     -50.36982
     2  H(1)               -.02574    -115.07180     -41.06048     -38.38382
     3  H(1)               -.02574    -115.07180     -41.06048     -38.38382
 --------------------------------------------------------
       Center         ----  Spin Dipole Couplings  ----
                      3XX-RR        3YY-RR        3ZZ-RR
 --------------------------------------------------------
     1   Atom        3.846864     -1.883246     -1.963618
     2   Atom        -.051001       .094493      -.043492
     3   Atom        -.051001       .094493      -.043492
 --------------------------------------------------------
                        XY            XZ            YZ
 --------------------------------------------------------
     1   Atom         .000000       .000000       .000000
     2   Atom         .000000       .000000      -.147772
     3   Atom         .000000       .000000       .147772
 --------------------------------------------------------


 ---------------------------------------------------------------------------------
              Anisotropic Spin Dipole Couplings in Principal Axis System
 ---------------------------------------------------------------------------------

       Atom             a.u.   MegaHertz   Gauss  10(-4) cm-1        Axes

              Baa    -1.9636   142.086    50.700    47.395   .0000   .0000  1.0000
     1 O(17)  Bbb    -1.8832   136.270    48.625    45.455   .0000  1.0000   .0000
              Bcc     3.8469  -278.356   -99.324   -92.850  1.0000   .0000   .0000
 
              Baa     -.1376   -73.408   -26.194   -24.486   .0000   .5371   .8435
     2 H(1)   Bbb     -.0510   -27.212    -9.710    -9.077  1.0000   .0000   .0000
              Bcc      .1886   100.620    35.904    33.563   .0000   .8435  -.5371
 
              Baa     -.1376   -73.408   -26.194   -24.486   .0000  -.5371   .8435
     3 H(1)   Bbb     -.0510   -27.212    -9.710    -9.077  1.0000   .0000   .0000
              Bcc      .1886   100.620    35.904    33.563   .0000   .8435   .5371
 

 ---------------------------------------------------------------------------------

 1\1\GINC-RKANTERS-MAC\FOpt\UHF\6-31G(d,p)\H2O1(1+,2)\RKANTERS\30-Oct-2
 004\0\\# UHF/6-31G** OPT FREQ\\H2O+ UHF\\1,2\O,0.,-0.0770708863,-0.077
 0708863\H,0.,-0.269610613,0.8861777032\H,0.,0.8861777032,-0.269610613\
 \Version=Mac32-G03RevC.02\State=2-B1\HF=-75.6282649\S2=0.756732\S2-1=0
 .\S2A=0.750026\RMSD=4.553e-09\RMSF=1.317e-05\Dipole=0.,0.6322152,0.632
 2152\PG=C02V [C2(O1),SGV(H2)]\\@


 YOU ARE IN A MAZE OF TWISTY LITTLE PASSAGES.
 Job cpu time:  0 days  0 hours  0 minutes 19.2 seconds.
 File lengths (MBytes):  RWF=     11 Int=      0 D2E=      0 Chk=      4 Scr=      1
 Normal termination of Gaussian 03 at Sat Oct 30 12:43:37 2004.
 Link1:  Proceeding to internal job step number  2.
 -----------------------------------------------------------------
 #N Geom=AllCheck Guess=Read SCRF=Check GenChk UHF/6-31G(d,p) Freq
 -----------------------------------------------------------------
 1/10=4,29=7,30=1,38=1,40=1,46=1/1,3;
 2/40=1/2;
 3/5=1,6=6,7=101,11=2,16=1,25=1,30=1,70=2,71=2/1,2,3;
 4/5=1,7=2/1;
 5/5=2,38=6/2;
 8/6=4,10=90,11=11/1;
 10/13=10/2;
 11/6=2,8=1,9=11,15=111,16=1/1,2,10;
 10/6=1/2;
 6/7=2,8=2,9=2,10=2,18=1,28=1/1;
 7/8=1,10=1,25=1/1,2,3,16;
 1/10=4,30=1,46=1/3;
 99//99;
 --------
 H2O+ UHF
 --------
 Redundant internal coordinates taken from checkpoint file:
 H2O.chk
 Charge =  1 Multiplicity = 2
 O,0,0.,-0.0770708863,-0.0770708863
 H,0,0.,-0.269610613,0.8861777032
 H,0,0.,0.8861777032,-0.269610613
 Recover connectivity data from disk.

 GradGradGradGradGradGradGradGradGradGradGradGradGradGradGradGradGradGrad
 Berny optimization.
 Initialization pass.
                           ----------------------------
                           !    Initial Parameters    !
                           ! (Angstroms and Degrees)  !
 --------------------------                            --------------------------
 ! Name  Definition              Value          Derivative Info.                !
 --------------------------------------------------------------------------------
 ! R1    R(1,2)                  0.9823         calculate D2E/DX2 analytically  !
 ! R2    R(1,3)                  0.9823         calculate D2E/DX2 analytically  !
 ! A1    A(2,1,3)              112.6073         calculate D2E/DX2 analytically  !
 --------------------------------------------------------------------------------
 Trust Radius=3.00E-01 FncErr=1.00E-07 GrdErr=1.00E-07
 Number of steps in this run=   2 maximum allowed number of steps=   2.
 GradGradGradGradGradGradGradGradGradGradGradGradGradGradGradGradGradGrad

                          Input orientation:                          
 ---------------------------------------------------------------------
 Center     Atomic     Atomic              Coordinates (Angstroms)
 Number     Number      Type              X           Y           Z
 ---------------------------------------------------------------------
    1          8             0         .000000    -.077071    -.077071
    2          1             0         .000000    -.269611     .886178
    3          1             0         .000000     .886178    -.269611
 ---------------------------------------------------------------------
                    Distance matrix (angstroms):
                    1          2          3
     1  O     .000000
     2  H     .982303    .000000
     3  H     .982303   1.634532    .000000
 Stoichiometry    H2O(1+,2)
 Framework group  C2V[C2(O),SGV(H2)]
 Deg. of freedom     2
 Full point group                 C2V     NOp   4
 Largest Abelian subgroup         C2V     NOp   4
 Largest concise Abelian subgroup C2      NOp   2
                         Standard orientation:                         
 ---------------------------------------------------------------------
 Center     Atomic     Atomic              Coordinates (Angstroms)
 Number     Number      Type              X           Y           Z
 ---------------------------------------------------------------------
    1          8             0         .000000     .000000     .108995
    2          1             0         .000000     .817266    -.435979
    3          1             0         .000000    -.817266    -.435979
 ---------------------------------------------------------------------
 Rotational constants (GHZ):    950.5976807    375.3837371    269.1130547
 Standard basis: 6-31G(d,p) (6D, 7F)
 There are    12 symmetry adapted basis functions of A1  symmetry.
 There are     2 symmetry adapted basis functions of A2  symmetry.
 There are     4 symmetry adapted basis functions of B1  symmetry.
 There are     7 symmetry adapted basis functions of B2  symmetry.
 Integral buffers will be    262144 words long.
 Raffenetti 2 integral format.
 Two-electron integral symmetry is turned on.
    25 basis functions,    42 primitive gaussians,    25 cartesian basis functions
     5 alpha electrons        4 beta electrons
       nuclear repulsion energy         8.9431199888 Hartrees.
 NAtoms=    3 NActive=    3 NUniq=    2 SFac= 2.76E+00 NAtFMM=   60 Big=F
 One-electron integrals computed using PRISM.
 NBasis=    25 RedAO= T  NBF=    12     2     4     7
 NBsUse=    25 1.00E-06 NBFU=    12     2     4     7
 Initial guess read from the checkpoint file:
 H2O.chk
 Initial guess orbital symmetries:
 Alpha Orbitals:
       Occupied  (A1) (A1) (B2) (B1) (A1)
       Virtual   (A1) (B2) (A1) (B2) (B1) (A1) (B2) (A1) (A2) (A1)
                 (B1) (A1) (B2) (B2) (B1) (A2) (A1) (A1) (B2) (A1)
 Beta  Orbitals:
       Occupied  (A1) (A1) (B2) (A1)
       Virtual   (B1) (A1) (B2) (B2) (A1) (A1) (B1) (B2) (A1) (A2)
                 (A1) (B1) (B2) (A1) (B2) (B1) (A2) (A1) (A1) (B2)
                 (A1)
 <S**2> of initial guess=  .7567
 Requested convergence on RMS density matrix=1.00E-08 within 128 cycles.
 Requested convergence on MAX density matrix=1.00E-06.
 Requested convergence on             energy=1.00E-06.
 No special actions if energy rises.
 Keep R1 and R2 integrals in memory in canonical form, NReq=      563848.
 SCF Done:  E(UHF) =  -75.6282649279     A.U. after    1 cycles
             Convg  =     .2966E-09             -V/T =  2.0033
             S**2   =    .7567
 Annihilation of the first spin contaminant:
 S**2 before annihilation      .7567,   after      .7500
 Range of M.O.s used for correlation:     1    25
 NBasis=    25 NAE=     5 NBE=     4 NFC=     0 NFV=     0
 NROrb=     25 NOA=     5 NOB=     4 NVA=    20 NVB=    21
          Differentiating once with respect to electric field.
                with respect to dipole field.
          Electric field/nuclear overlap derivatives assumed to be zero.
          Store integrals in memory, NReq=      536200.
          There are   3 degrees of freedom in the 1st order CPHF.
     3 vectors were produced by pass  0.
 AX will form   3 AO Fock derivatives at one time.
     3 vectors were produced by pass  1.
     3 vectors were produced by pass  2.
     3 vectors were produced by pass  3.
     3 vectors were produced by pass  4.
     3 vectors were produced by pass  5.
     3 vectors were produced by pass  6.
     3 vectors were produced by pass  7.
     1 vectors were produced by pass  8.
 Inv2:  IOpt= 1 Iter= 1 AM= 3.03E-15 Conv= 1.00E-12.
 Inverted reduced A of dimension   25 with in-core refinement.
 End of Minotr Frequency-dependent properties file   721 does not exist.
 Symmetrizing basis deriv contribution to polar:
 IMax=3 JMax=2 DiffMx= 0.00E+00
 G2DrvN: will do    4 centers at a time, making    1 passes doing MaxLOS=2.
 FoFDir/FoFCou used for L=0 through L=2.
 DoAtom=TTT
          Differentiating once with respect to electric field.
                with respect to dipole field.
          Differentiating once with respect to nuclear coordinates.
          Store integrals in memory, NReq=      536235.
          There are   9 degrees of freedom in the 1st order CPHF.
     9 vectors were produced by pass  0.
 AX will form   9 AO Fock derivatives at one time.
     9 vectors were produced by pass  1.
     9 vectors were produced by pass  2.
     9 vectors were produced by pass  3.
     9 vectors were produced by pass  4.
     9 vectors were produced by pass  5.
     8 vectors were produced by pass  6.
     2 vectors were produced by pass  7.
 Inv2:  IOpt= 1 Iter= 1 AM= 1.72E-15 Conv= 1.00E-12.
 Inverted reduced A of dimension   64 with in-core refinement.
 Isotropic polarizability for W=     .000000        3.76 Bohr**3.
 End of Minotr Frequency-dependent properties file   721 does not exist.

 **********************************************************************

            Population analysis using the SCF density.

 **********************************************************************

 Orbital symmetries:
 Alpha Orbitals:
       Occupied  (A1) (A1) (B2) (B1) (A1)
       Virtual   (A1) (B2) (A1) (B2) (B1) (A1) (B2) (A1) (A2) (A1)
                 (B1) (A1) (B2) (B2) (B1) (A2) (A1) (A1) (B2) (A1)
 Beta  Orbitals:
       Occupied  (A1) (A1) (B2) (A1)
       Virtual   (B1) (A1) (B2) (B2) (A1) (A1) (B1) (B2) (A1) (A2)
                 (A1) (B1) (B2) (A1) (B2) (B1) (A2) (A1) (A1) (B2)
                 (A1)
 The electronic state is 2-B1.
 Alpha  occ. eigenvalues --  -21.13955  -1.89246  -1.21414  -1.12177  -1.07406
 Alpha virt. eigenvalues --    -.13257   -.04160    .61155    .62540    .65223
 Alpha virt. eigenvalues --     .70260    .86396    .94758   1.29137   1.40035
 Alpha virt. eigenvalues --    1.44629   2.02591   2.06553   2.33692   2.44597
 Alpha virt. eigenvalues --    2.53053   2.86731   3.21534   3.40578   3.65362
  Beta  occ. eigenvalues --  -21.09517  -1.73305  -1.17659  -1.02202
  Beta virt. eigenvalues --    -.30720   -.11690   -.03191    .62210    .63246
  Beta virt. eigenvalues --     .72648    .84812    .88451    .97846   1.36215
  Beta virt. eigenvalues --    1.43706   1.52670   2.06244   2.10166   2.34562
  Beta virt. eigenvalues --    2.46997   2.56519   2.87145   3.23339   3.41657
  Beta virt. eigenvalues --    3.68404
          Condensed to atoms (all electrons):
              1          2          3
     1  O    7.449912    .279606    .279606
     2  H     .279606    .223189   -.007356
     3  H     .279606   -.007356    .223189
 Mulliken atomic charges:
              1
     1  O    -.009123
     2  H     .504562
     3  H     .504562
 Sum of Mulliken charges=   1.00000
 Atomic charges with hydrogens summed into heavy atoms:
              1
     1  O    1.000000
     2  H     .000000
     3  H     .000000
 Sum of Mulliken charges=   1.00000
          Atomic-Atomic Spin Densities.
              1          2          3
     1  O    1.107172   -.012588   -.012588
     2  H    -.012588   -.030221    .001812
     3  H    -.012588    .001812   -.030221
 Mulliken atomic spin densities:
              1
     1  O    1.081996
     2  H    -.040998
     3  H    -.040998
 Sum of Mulliken spin densities=   1.00000
 APT atomic charges:
              1
     1  O    -.102009
     2  H     .551005
     3  H     .551005
 Sum of APT charges=   1.00000
 APT Atomic charges with hydrogens summed into heavy atoms:
              1
     1  O    1.000000
     2  H     .000000
     3  H     .000000
 Sum of APT charges=   1.00000
 Electronic spatial extent (au):  <R**2>=    14.5046
 Charge=     1.0000 electrons
 Dipole moment (field-independent basis, Debye):
    X=      .0000    Y=      .0000    Z=    -2.2725  Tot=     2.2725
 Quadrupole moment (field-independent basis, Debye-Ang):
   XX=    -4.7570   YY=    -1.5207   ZZ=    -4.5327
   XY=      .0000   XZ=      .0000   YZ=      .0000
 Traceless Quadrupole moment (field-independent basis, Debye-Ang):
   XX=    -1.1535   YY=     2.0827   ZZ=     -.9292
   XY=      .0000   XZ=      .0000   YZ=      .0000
 Octapole moment (field-independent basis, Debye-Ang**2):
  XXX=      .0000  YYY=      .0000  ZZZ=    -1.4972  XYY=      .0000
  XXY=      .0000  XXZ=     -.2557  XZZ=      .0000  YZZ=      .0000
  YYZ=    -2.0513  XYZ=      .0000
 Hexadecapole moment (field-independent basis, Debye-Ang**3):
 XXXX=    -2.6967 YYYY=    -2.1074 ZZZZ=    -4.2483 XXXY=      .0000
 XXXZ=      .0000 YYYX=      .0000 YYYZ=      .0000 ZZZX=      .0000
 ZZZY=      .0000 XXYY=    -1.3016 XXZZ=    -1.1943 YYZZ=     -.7136
 XXYZ=      .0000 YYXZ=      .0000 ZZXY=      .0000
 N-N= 8.943119988839E+00 E-N=-1.930535451681E+02  KE= 7.537958219509E+01
 Symmetry A1   KE= 6.867627197523E+01
 Symmetry A2   KE= 1.311392462275E-34
 Symmetry B1   KE= 2.701585326057E+00
 Symmetry B2   KE= 4.001724893798E+00
  Exact polarizability:   2.791    .000   5.104    .000    .000   3.387
 Approx polarizability:   2.132    .000   4.184    .000    .000   2.885
                          Isotropic Fermi Contact Couplings
        Atom                 a.u.       MegaHertz       Gauss      10(-4) cm-1
     1  O(17)               .24910    -151.00490     -53.88230     -50.36981
     2  H(1)               -.02574    -115.07180     -41.06048     -38.38382
     3  H(1)               -.02574    -115.07180     -41.06048     -38.38382
 --------------------------------------------------------
       Center         ----  Spin Dipole Couplings  ----
                      3XX-RR        3YY-RR        3ZZ-RR
 --------------------------------------------------------
     1   Atom        3.846864     -1.883246     -1.963618
     2   Atom        -.051001       .094493      -.043492
     3   Atom        -.051001       .094493      -.043492
 --------------------------------------------------------
                        XY            XZ            YZ
 --------------------------------------------------------
     1   Atom         .000000       .000000       .000000
     2   Atom         .000000       .000000      -.147772
     3   Atom         .000000       .000000       .147772
 --------------------------------------------------------


 ---------------------------------------------------------------------------------
              Anisotropic Spin Dipole Couplings in Principal Axis System
 ---------------------------------------------------------------------------------

       Atom             a.u.   MegaHertz   Gauss  10(-4) cm-1        Axes

              Baa    -1.9636   142.086    50.700    47.395   .0000   .0000  1.0000
     1 O(17)  Bbb    -1.8832   136.270    48.625    45.455   .0000  1.0000   .0000
              Bcc     3.8469  -278.356   -99.324   -92.850  1.0000   .0000   .0000
 
              Baa     -.1376   -73.408   -26.194   -24.486   .0000   .5371   .8435
     2 H(1)   Bbb     -.0510   -27.212    -9.710    -9.077  1.0000   .0000   .0000
              Bcc      .1886   100.620    35.904    33.563   .0000   .8435  -.5371
 
              Baa     -.1376   -73.408   -26.194   -24.486   .0000  -.5371   .8435
     3 H(1)   Bbb     -.0510   -27.212    -9.710    -9.077  1.0000   .0000   .0000
              Bcc      .1886   100.620    35.904    33.563   .0000   .8435   .5371
 

 ---------------------------------------------------------------------------------

 Full mass-weighted force constant matrix:
 Low frequencies ---  -13.5309   -3.2894     .0017     .0023     .0024   20.6456
 Low frequencies --- 1521.9426 3659.6573 3733.8491
 Diagonal vibrational polarizability:
         .0000000       1.1685921       2.9134101
 Diagonal vibrational hyperpolarizability:
         .0000000        .0000000      -9.9641400
 Harmonic frequencies (cm**-1), IR intensities (KM/Mole), Raman scattering
 activities (A**4/AMU), depolarization ratios for plane and unpolarized
 incident light, reduced masses (AMU), force constants (mDyne/A),
 and normal coordinates:
                     1                      2                      3
                    A1                     A1                     B2
 Frequencies --  1521.9426              3659.6573              3733.8491
 Red. masses --     1.0860                 1.0421                 1.0897
 Frc consts  --     1.4821                 8.2229                 8.9514
 IR Inten    --   218.9852               183.7471               605.4013
 Raman Activ --     2.3494                31.4326                10.5669
 Depolar (P) --      .6093                  .1835                  .7500
 Depolar (U) --      .7573                  .3101                  .8571
 Atom AN      X      Y      Z        X      Y      Z        X      Y      Z
   1   8      .00    .00    .07      .00    .00    .05      .00    .07    .00
   2   1      .00   -.41   -.57      .00    .60   -.38      .00   -.59    .39
   3   1      .00    .41   -.57      .00   -.60   -.38      .00   -.59   -.39

 -------------------
 - Thermochemistry -
 -------------------
 Temperature   298.150 Kelvin.  Pressure   1.00000 Atm.
 Atom  1 has atomic number  8 and mass  15.99491
 Atom  2 has atomic number  1 and mass   1.00783
 Atom  3 has atomic number  1 and mass   1.00783
 Molecular mass:    18.01056 amu.
 Principal axes and moments of inertia in atomic units:
                           1         2         3
     EIGENVALUES --     1.89853   4.80772   6.70626
           X             .00000    .00000   1.00000
           Y            1.00000    .00000    .00000
           Z             .00000   1.00000    .00000
 This molecule is an asymmetric top.
 Rotational symmetry number  2.
 Rotational temperatures (Kelvin)     45.62144    18.01556    12.91537
 Rotational constants (GHZ):         950.59768   375.38374   269.11305
 Zero-point vibrational energy      53326.2 (Joules/Mol)
                                   12.74527 (Kcal/Mol)
 Vibrational temperatures:   2189.73  5265.42  5372.17
          (Kelvin)
 
 Zero-point correction=                            .020311 (Hartree/Particle)
 Thermal correction to Energy=                     .023148
 Thermal correction to Enthalpy=                   .024092
 Thermal correction to Gibbs Free Energy=          .001994
 Sum of electronic and zero-point Energies=            -75.607954
 Sum of electronic and thermal Energies=               -75.605117
 Sum of electronic and thermal Enthalpies=             -75.604173
 Sum of electronic and thermal Free Energies=          -75.626271
 
                     E (Thermal)             CV                S
                      KCal/Mol        Cal/Mol-Kelvin    Cal/Mol-Kelvin
 Total                   14.526              6.031             46.510
 Electronic                .000               .000              1.377
 Translational             .889              2.981             34.608
 Rotational                .889              2.981             10.514
 Vibrational             12.748               .069               .011
                       Q            Log10(Q)             Ln(Q)
 Total Bot        .121046E+00          -.917048         -2.111581
 Total V=0        .266252E+09          8.425292         19.399952
 Vib (Bot)        .454926E-09         -9.342059        -21.510886
 Vib (V=0)        .100065E+01           .000281           .000646
 Electronic       .200000E+01           .301030           .693147
 Translational    .300432E+07          6.477746         14.915562
 Rotational       .442828E+02          1.646235          3.790597
 ***** Axes restored to original set *****
 -------------------------------------------------------------------
 Center     Atomic                   Forces (Hartrees/Bohr)
 Number     Number              X              Y              Z
 -------------------------------------------------------------------
    1          8            .000000000     .000021041     .000021041
    2          1            .000000000    -.000018149    -.000002892
    3          1            .000000000    -.000002892    -.000018149
 -------------------------------------------------------------------
 Cartesian Forces:  Max      .000021041 RMS      .000013169

 GradGradGradGradGradGradGradGradGradGradGradGradGradGradGradGradGradGrad
 Berny optimization.
 Internal  Forces:  Max      .000034088 RMS      .000019690
 Search for a local minimum.
 Step number   1 out of a maximum of   2
 All quantities printed in internal units (Hartrees-Bohrs-Radians)
 Second derivative matrix not updated -- analytic derivatives used.
 The second derivative matrix:
                          R1        R2        A1
           R1            .49092
           R2            .00185    .49092
           A1            .01226    .01226    .14073
     Eigenvalues ---     .13988    .48907    .49362
 Angle between quadratic step and forces=   3.24 degrees.
 Linear search not attempted -- first point.
 Iteration  1 RMS(Cart)=   .00013361 RMS(Int)=   .00000001
 Iteration  2 RMS(Cart)=   .00000001 RMS(Int)=   .00000000
 Variable       Old X    -DE/DX   Delta X   Delta X   Delta X     New X
                                 (Linear)    (Quad)   (Total)
    R1        1.85628    .00000    .00000    .00000    .00000   1.85628
    R2        1.85628    .00000    .00000    .00000    .00000   1.85628
    A1        1.96537    .00003    .00000    .00024    .00024   1.96561
         Item               Value     Threshold  Converged?
 Maximum Force             .000034      .000450     YES
 RMS     Force             .000020      .000300     YES
 Maximum Displacement      .000131      .001800     YES
 RMS     Displacement      .000134      .001200     YES
 Predicted change in Energy=-4.138683E-09
 Optimization completed.
    -- Stationary point found.
                           ----------------------------
                           !   Optimized Parameters   !
                           ! (Angstroms and Degrees)  !
 --------------------------                            --------------------------
 ! Name  Definition              Value          Derivative Info.                !
 --------------------------------------------------------------------------------
 ! R1    R(1,2)                  0.9823         -DE/DX =    0.0                 !
 ! R2    R(1,3)                  0.9823         -DE/DX =    0.0                 !
 ! A1    A(2,1,3)              112.6073         -DE/DX =    0.0                 !
 --------------------------------------------------------------------------------
 GradGradGradGradGradGradGradGradGradGradGradGradGradGradGradGradGradGrad

 1\1\GINC-RKANTERS-MAC\Freq\UHF\6-31G(d,p)\H2O1(1+,2)\RKANTERS\30-Oct-2
 004\0\\#N GEOM=ALLCHECK GUESS=READ SCRF=CHECK GENCHK UHF/6-31G(D,P) FR
 EQ\\H2O+ UHF\\1,2\O,0.,-0.0770708863,-0.0770708863\H,0.,-0.269610613,0
 .8861777032\H,0.,0.8861777032,-0.269610613\\Version=Mac32-G03RevC.02\S
 tate=2-B1\HF=-75.6282649\S2=0.756732\S2-1=0.\S2A=0.750026\RMSD=2.966e-
 10\RMSF=1.317e-05\Dipole=0.,0.6322151,0.6322151\DipoleDeriv=-0.0681718
 ,0.,0.,0.,-0.1189277,0.1564127,0.,0.1564127,-0.1189277,0.5340859,0.,0.
 ,0.,0.4913988,-0.0771987,0.,-0.0792139,0.6275289,0.5340859,0.,0.,0.,0.
 6275289,-0.0792139,0.,-0.0771987,0.4913988\Polar=2.7909179,0.,4.245539
 3,0.,-0.8589474,4.2455393\PolarDeriv=0.,-0.408995,0.,-0.408995,0.,0.,0
 .0787784,0.,-3.9561263,0.,-0.0247729,-0.56569,0.0787784,0.,-0.56569,0.
 ,-0.0247729,-3.9561263,0.,-0.3251353,0.,0.7341303,0.,0.,-0.0314943,0.,
 -0.3546031,0.,0.9647204,-0.1328694,-0.047284,0.,0.6985594,0.,-0.939947
 5,4.3107295,0.,0.7341303,0.,-0.3251353,0.,0.,-0.047284,0.,4.3107295,0.
 ,-0.9399475,0.6985594,-0.0314943,0.,-0.1328694,0.,0.9647204,-0.3546031
 \HyperPolar=0.,0.8405399,0.,10.7839961,0.8405399,0.,-2.1041984,0.,-2.1
 041984,10.7839961\PG=C02V [C2(O1),SGV(H2)]\NImag=0\\0.00002887,0.,0.53
 455348,0.,-0.14253377,0.53455348,-0.00001444,0.,0.,0.00000373,0.,-0.06
 207328,0.05073053,0.,0.06067547,0.,0.09180323,-0.47248020,0.,-0.092612
 99,0.47108239,-0.00001444,0.,0.,0.00001071,0.,0.,0.00000373,0.,-0.4724
 8020,0.09180323,0.,0.00139781,0.00080976,0.,0.47108239,0.,0.05073053,-
 0.06207328,0.,0.04188246,0.00139781,0.,-0.09261299,0.06067547\\0.,-0.0
 0002104,-0.00002104,0.,0.00001815,0.00000289,0.,0.00000289,0.00001815\
 \\@


 YOU ARE IN A MAZE OF TWISTY LITTLE PASSAGES.
 Job cpu time:  0 days  0 hours  0 minutes 12.7 seconds.
 File lengths (MBytes):  RWF=     11 Int=      0 D2E=      0 Chk=      4 Scr=      1
 Normal termination of Gaussian 03 at Sat Oct 30 12:43:56 2004.
 Initial command:
 /usr/local/g03/l1.exe /Users/rkanters/scratch/Gau-4755.inp -scrdir=/Users/rkanters/scratch/
 Entering Link 1 = /usr/local/g03/l1.exe PID=      4758.
  
 Copyright (c) 1988,1990,1992,1993,1995,1998,2003,2004, Gaussian, Inc.
                  All Rights Reserved.
  
 This is the Gaussian(R) 03 program.  It is based on the
 the Gaussian(R) 98 system (copyright 1998, Gaussian, Inc.),
 the Gaussian(R) 94 system (copyright 1995, Gaussian, Inc.),
 the Gaussian 92(TM) system (copyright 1992, Gaussian, Inc.),
 the Gaussian 90(TM) system (copyright 1990, Gaussian, Inc.),
 the Gaussian 88(TM) system (copyright 1988, Gaussian, Inc.),
 the Gaussian 86(TM) system (copyright 1986, Carnegie Mellon
 University), and the Gaussian 82(TM) system (copyright 1983,
 Carnegie Mellon University). Gaussian is a federally registered
 trademark of Gaussian, Inc.
  
 This software contains proprietary and confidential information,
 including trade secrets, belonging to Gaussian, Inc.
  
 This software is provided under written license and may be
 used, copied, transmitted, or stored only in accord with that
 written license.
  
 The following legend is applicable only to US Government
 contracts under FAR:
  
                    RESTRICTED RIGHTS LEGEND
  
 Use, reproduction and disclosure by the US Government is
 subject to restrictions as set forth in subparagraphs (a)
 and (c) of the Commercial Computer Software - Restricted
 Rights clause in FAR 52.227-19.
  
 Gaussian, Inc.
 340 Quinnipiac St., Bldg. 40, Wallingford CT 06492
  
  
 ---------------------------------------------------------------
 Warning -- This program may not be used in any manner that
 competes with the business of Gaussian, Inc. or will provide
 assistance to any competitor of Gaussian, Inc.  The licensee
 of this program is prohibited from giving any competitor of
 Gaussian, Inc. access to this program.  By using this program,
 the user acknowledges that Gaussian, Inc. is engaged in the
 business of creating and licensing software in the field of
 computational chemistry and represents and warrants to the
 licensee that it is not a competitor of Gaussian, Inc. and that
 it will not use this program in any manner prohibited above.
 ---------------------------------------------------------------
  

 Cite this work as:
 Gaussian 03, Revision C.02,
 M. J. Frisch, G. W. Trucks, H. B. Schlegel, G. E. Scuseria, 
 M. A. Robb, J. R. Cheeseman, J. A. Montgomery, Jr., T. Vreven, 
 K. N. Kudin, J. C. Burant, J. M. Millam, S. S. Iyengar, J. Tomasi, 
 V. Barone, B. Mennucci, M. Cossi, G. Scalmani, N. Rega, 
 G. A. Petersson, H. Nakatsuji, M. Hada, M. Ehara, K. Toyota, 
 R. Fukuda, J. Hasegawa, M. Ishida, T. Nakajima, Y. Honda, O. Kitao, 
 H. Nakai, M. Klene, X. Li, J. E. Knox, H. P. Hratchian, J. B. Cross, 
 C. Adamo, J. Jaramillo, R. Gomperts, R. E. Stratmann, O. Yazyev, 
 A. J. Austin, R. Cammi, C. Pomelli, J. W. Ochterski, P. Y. Ayala, 
 K. Morokuma, G. A. Voth, P. Salvador, J. J. Dannenberg, 
 V. G. Zakrzewski, S. Dapprich, A. D. Daniels, M. C. Strain, 
 O. Farkas, D. K. Malick, A. D. Rabuck, K. Raghavachari, 
 J. B. Foresman, J. V. Ortiz, Q. Cui, A. G. Baboul, S. Clifford, 
 J. Cioslowski, B. B. Stefanov, G. Liu, A. Liashenko, P. Piskorz, 
 I. Komaromi, R. L. Martin, D. J. Fox, T. Keith, M. A. Al-Laham, 
 C. Y. Peng, A. Nanayakkara, M. Challacombe, P. M. W. Gill, 
 B. Johnson, W. Chen, M. W. Wong, C. Gonzalez, and J. A. Pople, 
 Gaussian, Inc., Wallingford CT, 2004.
 
 ******************************************
 Gaussian 03:  Mac32-G03RevC.02 12-Jun-2004
                30-Oct-2004 
 ******************************************
 %Chk=H2O
 ---------------------------------------------
 # UMP2/6-31G** Geom=Check Guess=Read OPT FREQ
 ---------------------------------------------
 1/18=20,29=2,38=1/1,3;
 2/9=110,40=1/2;
 3/5=1,6=6,7=101,11=2,16=1,25=1,30=1/1,2,3;
 4/5=1,7=2/1;
 5/5=2,38=6/2;
 8/6=4,10=2/1;
 9/15=2,16=-3/6;
 10/5=1/2;
 6/7=2,8=2,9=2,10=2/1;
 7/12=2/1,2,3,16;
 1/18=20/3(1);
 99//99;
 2/9=110/2;
 3/5=1,6=6,7=101,11=2,16=1,25=1,30=1/1,2,3;
 4/5=5,7=2,16=3/1;
 5/5=2,38=5/2;
 8/6=4,10=2/1;
 9/15=2,16=-3/6;
 10/5=1/2;
 7/12=2/1,2,3,16;
 1/18=20/3(-8);
 2/9=110/2;
 6/7=2,8=2,9=2,10=2/1;
 99//99;
 ---------
 H2O+ UMP2
 ---------
 Redundant internal coordinates taken from checkpoint file:
 H2O.chk
 Charge =  1 Multiplicity = 2
 O,0,0.,-0.0770708863,-0.0770708863
 H,0,0.,-0.269610613,0.8861777032
 H,0,0.,0.8861777032,-0.269610613
 Recover connectivity data from disk.

 GradGradGradGradGradGradGradGradGradGradGradGradGradGradGradGradGradGrad
 Berny optimization.
 Initialization pass.
                           ----------------------------
                           !    Initial Parameters    !
                           ! (Angstroms and Degrees)  !
 --------------------------                            --------------------------
 ! Name  Definition              Value          Derivative Info.                !
 --------------------------------------------------------------------------------
 ! R1    R(1,2)                  0.9823         estimate D2E/DX2                !
 ! R2    R(1,3)                  0.9823         estimate D2E/DX2                !
 ! A1    A(2,1,3)              112.6073         estimate D2E/DX2                !
 --------------------------------------------------------------------------------
 Trust Radius=3.00E-01 FncErr=1.00E-07 GrdErr=1.00E-07
 Number of steps in this run=  20 maximum allowed number of steps= 100.
 GradGradGradGradGradGradGradGradGradGradGradGradGradGradGradGradGradGrad

                          Input orientation:                          
 ---------------------------------------------------------------------
 Center     Atomic     Atomic              Coordinates (Angstroms)
 Number     Number      Type              X           Y           Z
 ---------------------------------------------------------------------
    1          8             0         .000000    -.077071    -.077071
    2          1             0         .000000    -.269611     .886178
    3          1             0         .000000     .886178    -.269611
 ---------------------------------------------------------------------
                    Distance matrix (angstroms):
                    1          2          3
     1  O     .000000
     2  H     .982303    .000000
     3  H     .982303   1.634532    .000000
 Stoichiometry    H2O(1+,2)
 Framework group  C2V[C2(O),SGV(H2)]
 Deg. of freedom     2
 Full point group                 C2V     NOp   4
 Largest Abelian subgroup         C2V     NOp   4
 Largest concise Abelian subgroup C2      NOp   2
                         Standard orientation:                         
 ---------------------------------------------------------------------
 Center     Atomic     Atomic              Coordinates (Angstroms)
 Number     Number      Type              X           Y           Z
 ---------------------------------------------------------------------
    1          8             0         .000000     .000000     .108995
    2          1             0         .000000     .817266    -.435979
    3          1             0         .000000    -.817266    -.435979
 ---------------------------------------------------------------------
 Rotational constants (GHZ):    950.5976807    375.3837371    269.1130547
 Standard basis: 6-31G(d,p) (6D, 7F)
 There are    12 symmetry adapted basis functions of A1  symmetry.
 There are     2 symmetry adapted basis functions of A2  symmetry.
 There are     4 symmetry adapted basis functions of B1  symmetry.
 There are     7 symmetry adapted basis functions of B2  symmetry.
 Integral buffers will be    262144 words long.
 Raffenetti 2 integral format.
 Two-electron integral symmetry is turned on.
    25 basis functions,    42 primitive gaussians,    25 cartesian basis functions
     5 alpha electrons        4 beta electrons
       nuclear repulsion energy         8.9431199888 Hartrees.
 NAtoms=    3 NActive=    3 NUniq=    2 SFac= 2.76E+00 NAtFMM=   60 Big=F
 One-electron integrals computed using PRISM.
 NBasis=    25 RedAO= T  NBF=    12     2     4     7
 NBsUse=    25 1.00E-06 NBFU=    12     2     4     7
 Initial guess read from the checkpoint file:
 H2O.chk
 Initial guess orbital symmetries:
 Alpha Orbitals:
       Occupied  (A1) (A1) (B2) (B1) (A1)
       Virtual   (A1) (B2) (A1) (B2) (B1) (A1) (B2) (A1) (A2) (A1)
                 (B1) (A1) (B2) (B2) (B1) (A2) (A1) (A1) (B2) (A1)
 Beta  Orbitals:
       Occupied  (A1) (A1) (B2) (A1)
       Virtual   (B1) (A1) (B2) (B2) (A1) (A1) (B1) (B2) (A1) (A2)
                 (A1) (B1) (B2) (A1) (B2) (B1) (A2) (A1) (A1) (B2)
                 (A1)
 <S**2> of initial guess=  .7567
 Requested convergence on RMS density matrix=1.00E-08 within 128 cycles.
 Requested convergence on MAX density matrix=1.00E-06.
 Requested convergence on             energy=1.00E-06.
 No special actions if energy rises.
 Keep R1 and R2 integrals in memory in canonical form, NReq=      563848.
 SCF Done:  E(UHF) =  -75.6282649279     A.U. after    1 cycles
             Convg  =     .1186E-09             -V/T =  2.0033
             S**2   =    .7567
 Annihilation of the first spin contaminant:
 S**2 before annihilation      .7567,   after      .7500
 ExpMin= 1.61E-01 ExpMax= 5.48E+03 ExpMxC= 8.25E+02 IAcc=1 IRadAn=         1 AccDes= 1.00E-06
 HarFok:  IExCor= 205 AccDes= 1.00E-06 IRadAn=         1 IDoV=1
 ScaDFX=  1.000000  1.000000  1.000000  1.000000
 Range of M.O.s used for correlation:     2    25
[...]
 ---------------------------------------------------------------------
 Rotational constants (GHZ):    352.8255237    352.5385004    176.3409768
 Standard basis: 6-31G(d,p) (6D, 7F)
 There are    15 symmetry adapted basis functions of A1  symmetry.
 There are     2 symmetry adapted basis functions of A2  symmetry.
 There are     5 symmetry adapted basis functions of B1  symmetry.
 There are     8 symmetry adapted basis functions of B2  symmetry.
 Integral buffers will be    262144 words long.
 Raffenetti 2 integral format.
 Two-electron integral symmetry is turned on.
    30 basis functions,    49 primitive gaussians,    30 cartesian basis functions
     5 alpha electrons        5 beta electrons
       nuclear repulsion energy        13.9861042685 Hartrees.
 NAtoms=    4 NActive=    4 NUniq=    3 SFac= 2.05E+00 NAtFMM=   60 Big=F
 One-electron integrals computed using PRISM.
 NBasis=    30 RedAO= T  NBF=    15     2     5     8
 NBsUse=    30 1.00E-06 NBFU=    15     2     5     8
 Initial guess read from the checkpoint file:
 /Users/rkanters/scratch/Gau-4759.chk
 Initial guess orbital symmetries:
       Occupied  (A1) (A1) (A1) (B2) (B1)
       Virtual   (A1) (A1) (B2) (A1) (B2) (A1) (B1) (B2) (A1) (A1)
                 (B1) (A2) (B2) (A1) (A1) (B2) (B1) (A2) (B1) (B2)
                 (A1) (A1) (A1) (B2) (A1)
 Requested convergence on RMS density matrix=1.00E-08 within 128 cycles.
 Requested convergence on MAX density matrix=1.00E-06.
 Requested convergence on             energy=1.00E-06.
 No special actions if energy rises.
 Keep R1 integrals in memory in canonical form, NReq=      605214.
 SCF Done:  E(RB+HF-PW91) =  -76.6783788081     A.U. after    1 cycles
             Convg  =     .1603E-08             -V/T =  2.0091
             S**2   =    .0000
 Range of M.O.s used for correlation:     1    30
 NBasis=    30 NAE=     5 NBE=     5 NFC=     0 NFV=     0
 NROrb=     30 NOA=     5 NOB=     5 NVA=    25 NVB=    25
 Symmetrizing basis deriv contribution to polar:
 IMax=3 JMax=2 DiffMx= 0.00E+00
 G2DrvN: will do    5 centers at a time, making    1 passes doing MaxLOS=2.
 FoFDir/FoFCou used for L=0 through L=2.
 DoAtom=TTTT
          Differentiating once with respect to electric field.
                with respect to dipole field.
          Differentiating once with respect to nuclear coordinates.
          Store integrals in memory, NReq=      538679.
          There are  12 degrees of freedom in the 1st order CPHF.
    12 vectors were produced by pass  0.
 AX will form  12 AO Fock derivatives at one time.
    12 vectors were produced by pass  1.
    12 vectors were produced by pass  2.
    12 vectors were produced by pass  3.
     8 vectors were produced by pass  4.
     3 vectors were produced by pass  5.
 Inv2:  IOpt= 1 Iter= 1 AM= 6.94E-16 Conv= 1.00E-12.
 Inverted reduced A of dimension   59 with in-core refinement.
 Isotropic polarizability for W=     .000000        4.50 Bohr**3.
 End of Minotr Frequency-dependent properties file   721 does not exist.

 **********************************************************************

            Population analysis using the SCF density.

 **********************************************************************

 Orbital symmetries:
       Occupied  (A1) (A1) (A1) (B2) (B1)
       Virtual   (A1) (A1) (B2) (A1) (B2) (A1) (B1) (B2) (A1) (A1)
                 (B1) (A2) (B2) (A1) (A1) (B2) (B1) (A2) (B1) (B2)
                 (A1) (A1) (A1) (B2) (A1)
 The electronic state is 1-A1.
 Alpha  occ. eigenvalues --  -19.56938  -1.44446   -.94895   -.94893   -.72147
 Alpha virt. eigenvalues --    -.24726   -.13855   -.13849    .42205    .43128
 Alpha virt. eigenvalues --     .43141    .50920    .63810    .63811    .87231
 Alpha virt. eigenvalues --    1.09541   1.09551   1.66903   1.80280   1.83368
 Alpha virt. eigenvalues --    1.83414   2.05060   2.34078   2.34088   2.54303
 Alpha virt. eigenvalues --    2.54348   2.95007   3.13703   3.13729   3.70382
          Condensed to atoms (all electrons):
              1          2          3          4
     1  O    7.492549    .306856    .306856    .306772
     2  H     .306856    .243109   -.010468   -.010459
     3  H     .306856   -.010468    .243109   -.010459
     4  H     .306772   -.010459   -.010459    .243036
 Mulliken atomic charges:
              1
     1  O    -.413033
     2  H     .470961
     3  H     .470961
     4  H     .471110
 Sum of Mulliken charges=   1.00000
 Atomic charges with hydrogens summed into heavy atoms:
              1
     1  O    1.000000
     2  H     .000000
     3  H     .000000
     4  H     .000000
 Sum of Mulliken charges=   1.00000
 APT atomic charges:
              1
     1  O    -.537059
     2  H     .512297
     3  H     .512297
     4  H     .512465
 Sum of APT charges=   1.00000
 APT Atomic charges with hydrogens summed into heavy atoms:
              1
     1  O    1.000000
     2  H     .000000
     3  H     .000000
     4  H     .000000
 Sum of APT charges=   1.00000
 Electronic spatial extent (au):  <R**2>=    18.0344
 Charge=     1.0000 electrons
 Dipole moment (field-independent basis, Debye):
    X=      .0000    Y=      .0000    Z=      .0002  Tot=      .0002
 Quadrupole moment (field-independent basis, Debye-Ang):
   XX=    -6.4921   YY=    -2.0549   ZZ=    -2.0512
   XY=      .0000   XZ=      .0000   YZ=      .0000
 Traceless Quadrupole moment (field-independent basis, Debye-Ang):
   XX=    -2.9594   YY=     1.4778   ZZ=     1.4815
   XY=      .0000   XZ=      .0000   YZ=      .0000
 Octapole moment (field-independent basis, Debye-Ang**2):
  XXX=      .0000  YYY=      .0000  ZZZ=     1.9712  XYY=      .0000
  XXY=      .0000  XXZ=     -.0001  XZZ=      .0000  YZZ=      .0000
  YYZ=    -1.9698  XYZ=      .0000
 Hexadecapole moment (field-independent basis, Debye-Ang**3):
 XXXX=    -4.2885 YYYY=    -2.4962 ZZZZ=    -2.4923 XXXY=      .0000
 XXXZ=      .0000 YYYX=      .0000 YYYZ=      .0000 ZZZX=      .0000
 ZZZY=      .0000 XXYY=    -1.6801 XXZZ=    -1.6804 YYZZ=     -.8313
 XXYZ=      .0000 YYXZ=      .0000 ZZXY=      .0000
 N-N= 1.398610426852E+01 E-N=-2.046319054154E+02  KE= 7.598860380800E+01
 Symmetry A1   KE= 6.726479590091E+01
 Symmetry A2   KE= 5.963018344362E-34
 Symmetry B1   KE= 4.856731026753E+00
 Symmetry B2   KE= 3.867076880330E+00
  Exact polarizability:   2.768    .000   5.371    .000    .000   5.374
 Approx polarizability:   3.122    .000   6.453    .000    .000   6.457
 Full mass-weighted force constant matrix:
 Low frequencies --- -589.4559  -90.3585  -79.0279  -58.6927    -.0015    -.0015
 Low frequencies ---    -.0010 1620.3601 1620.4894
 ******    1 imaginary frequencies (negative Signs) ****** 
 Diagonal vibrational polarizability:
       55.9283936       2.7496492       2.7509688
 Harmonic frequencies (cm**-1), IR intensities (KM/Mole), Raman scattering
 activities (A**4/AMU), depolarization ratios for plane and unpolarized
 incident light, reduced masses (AMU), force constants (mDyne/A),
 and normal coordinates:
                     1                      2                      3
                    B1                     A1                     B2
 Frequencies --  -589.4467              1620.3601              1620.4890
 Red. masses --     1.1842                 1.0799                 1.0799
 Frc consts  --      .2424                 1.6706                 1.6709
 IR Inten    --   722.0851               154.6761               154.7922
 Atom AN      X      Y      Z        X      Y      Z        X      Y      Z
   1   8      .11    .00    .00      .00    .00    .07      .00    .07    .00
   2   1     -.57    .00    .00      .00   -.38   -.59      .00   -.15   -.38
   3   1     -.57    .00    .00      .00    .38   -.59      .00   -.15    .38
   4   1     -.57    .00    .00      .00    .00    .08      .00   -.81    .00
                     4                      5                      6
                    A1                     A1                     B2
 Frequencies --  3665.7766              3828.4926              3830.3629
 Red. masses --     1.0078                 1.0981                 1.0981
 Frc consts  --     7.9794                 9.4827                 9.4920
 IR Inten    --      .0462               634.7952               634.2352
 Atom AN      X      Y      Z        X      Y      Z        X      Y      Z
   1   8      .00    .00    .00      .00    .00    .08      .00    .08    .00
   2   1      .00   -.50    .29      .00    .35   -.21      .00   -.61    .35
   3   1      .00    .50    .29      .00   -.35   -.21      .00   -.61   -.35
   4   1      .00    .00   -.58      .00    .00   -.81      .00   -.01    .00

 -------------------
 - Thermochemistry -
 -------------------
 Temperature   298.150 Kelvin.  Pressure   1.00000 Atm.
 Atom  1 has atomic number  8 and mass  15.99491
 Atom  2 has atomic number  1 and mass   1.00783
 Atom  3 has atomic number  1 and mass   1.00783
 Atom  4 has atomic number  1 and mass   1.00783
 Molecular mass:    19.01839 amu.
 Principal axes and moments of inertia in atomic units:
                           1         2         3
     EIGENVALUES --     5.11511   5.11927  10.23438
           X             .00000    .00000   1.00000
           Y             .00000   1.00000    .00000
           Z            1.00000    .00000    .00000
 This molecule is an asymmetric top.
 Rotational symmetry number  2.
 Rotational temperatures (Kelvin)     16.93294    16.91916     8.46302
 Rotational constants (GHZ):         352.82552   352.53850   176.34098
    1 imaginary frequencies ignored.
 Zero-point vibrational energy      87120.9 (Joules/Mol)
                                   20.82240 (Kcal/Mol)
 Vibrational temperatures:   2331.33  2331.52  5274.23  5508.34  5511.03
          (Kelvin)
 
 Zero-point correction=                            .033183 (Hartree/Particle)
 Thermal correction to Energy=                     .036021
 Thermal correction to Enthalpy=                   .036965
 Thermal correction to Gibbs Free Energy=          .014746
 Sum of electronic and zero-point Energies=            -76.645196
 Sum of electronic and thermal Energies=               -76.642358
 Sum of electronic and thermal Enthalpies=             -76.641414
 Sum of electronic and thermal Free Energies=          -76.663633
 
                     E (Thermal)             CV                S
                      KCal/Mol        Cal/Mol-Kelvin    Cal/Mol-Kelvin
 Total                   22.604              6.059             46.765
 Electronic                .000               .000               .000
 Translational             .889              2.981             34.771
 Rotational                .889              2.981             11.981
 Vibrational             20.826               .098               .014
                       Q            Log10(Q)             Ln(Q)
 Total Bot        .165020E-06         -6.782464        -15.617201
 Total V=0        .302304E+09          8.480444         19.526943
 Vib (Bot)        .546312E-15        -15.262559        -35.143341
 Vib (V=0)        .100080E+01           .000349           .000804
 Electronic       .100000E+01           .000000           .000000
 Translational    .325999E+07          6.513216         14.997234
 Rotational       .926571E+02          1.966879          4.528906
 ***** Axes restored to original set *****
 -------------------------------------------------------------------
 Center     Atomic                   Forces (Hartrees/Bohr)
 Number     Number              X              Y              Z
 -------------------------------------------------------------------
    1          8            .000000000     .000119873     .000119873
    2          1            .000000000    -.000523708     .000178190
    3          1            .000000000     .000178190    -.000523708
    4          1            .000000000     .000225645     .000225645
 -------------------------------------------------------------------
 Cartesian Forces:  Max      .000523708 RMS      .000248766

 GradGradGradGradGradGradGradGradGradGradGradGradGradGradGradGradGradGrad
 Berny optimization.
 Internal  Forces:  Max      .000331823 RMS      .000178723
 Search for a local minimum.
 Step number   1 out of a maximum of   2
 All quantities printed in internal units (Hartrees-Bohrs-Radians)
 Second derivative matrix not updated -- analytic derivatives used.
 The second derivative matrix:
                          R1        R2        R3        R4        A1
           R1            .45859
           R2           -.03390    .45859
           R3           -.05191   -.05557    .15227
           R4           -.05557   -.05191    .08652    .15227
           A1           -.06315   -.06315    .09532    .09532    .16625
           A2           -.02107   -.17372    .05295    .08755    .09249
           A3           -.17372   -.02107    .08755    .05295    .09249
           A4            .13164    .13164   -.04518   -.04518   -.01872
           D1            .00000    .00000    .00000    .00000    .00000
           D2            .00000    .00000    .00000    .00000    .00000
           D3            .00000    .00000    .00000    .00000    .00000
           D4            .00000    .00000    .00000    .00000    .00000
                          A2        A3        A4        D1        D2
           A2            .10747
           A3            .04073    .10747
           A4           -.05572   -.05572    .09271
           D1            .00000    .00000    .00000   -.00132
           D2            .00000    .00000    .00000    .00132   -.00132
           D3            .00000    .00000    .00000   -.00076    .00076
           D4            .00000    .00000    .00000    .00076   -.00076
                          D3        D4
           D3           -.00044
           D4            .00044   -.00044
     Eigenvalues ---    -.00352    .07681    .08331    .26090    .54167
     Eigenvalues ---     .732931000.000001000.000001000.000001000.00000
     Eigenvalues --- 1000.000001000.00000
 Eigenvalue   1 out of range, new value =     .003519 Eigenvector:
                           1
           R1            .00000
           R2            .00000
           R3            .00000
           R4            .00000
           A1            .00000
           A2            .00000
           A3            .00000
           A4            .00000
           D1            .61233
           D2           -.61233
           D3            .35362
           D4           -.35362
 Angle between quadratic step and forces=  19.73 degrees.
 Linear search not attempted -- first point.
 Iteration  1 RMS(Cart)=   .00049889 RMS(Int)=   .00000009
 Iteration  2 RMS(Cart)=   .00000007 RMS(Int)=   .00000002
 Variable       Old X    -DE/DX   Delta X   Delta X   Delta X     New X
                                 (Linear)    (Quad)   (Total)
    R1        1.83968    .00033    .00000    .00107    .00107   1.84076
    R2        1.83968    .00033    .00000    .00107    .00107   1.84076
    R3        3.18700    .00022    .00000    .00128    .00128   3.18828
    R4        3.18700    .00022    .00000    .00128    .00128   3.18828
    A1        2.09397    .00018    .00000    .00042    .00042   2.09439
    A2         .52356   -.00001    .00000    .00003    .00003    .52360
    A3         .52356   -.00001    .00000    .00003    .00003    .52360
    A4        1.04685    .00019    .00000    .00035    .00035   1.04719
    D1        3.14159    .00000    .00000    .00000    .00000   3.14159
    D2        3.14159    .00000    .00000    .00000    .00000   3.14159
    D3         .00000    .00000    .00000    .00000    .00000    .00000
    D4         .00000    .00000    .00000    .00000    .00000    .00000
         Item               Value     Threshold  Converged?
 Maximum Force             .000332      .000450     YES
 RMS     Force             .000179      .000300     YES
 Maximum Displacement      .000977      .001800     YES
 RMS     Displacement      .000499      .001200     YES
 Predicted change in Energy=-7.073614E-07
 Optimization completed.
    -- Stationary point found.
                           ----------------------------
                           !   Optimized Parameters   !
                           ! (Angstroms and Degrees)  !
 --------------------------                            --------------------------
 ! Name  Definition              Value          Derivative Info.                !
 --------------------------------------------------------------------------------
 ! R1    R(1,2)                  0.9735         -DE/DX =    0.0003              !
 ! R2    R(1,3)                  0.9735         -DE/DX =    0.0003              !
 ! R3    R(2,4)                  1.6865         -DE/DX =    0.0002              !
 ! R4    R(3,4)                  1.6865         -DE/DX =    0.0002              !
 ! A1    A(2,1,3)              119.9757         -DE/DX =    0.0002              !
 ! A2    A(1,2,4)               29.9979         -DE/DX =    0.0                 !
 ! A3    A(1,3,4)               29.9979         -DE/DX =    0.0                 !
 ! A4    A(2,4,3)               59.9798         -DE/DX =    0.0002              !
 ! D1    D(3,1,2,4)            180.0            -DE/DX =    0.0                 !
 ! D2    D(2,1,3,4)            180.0            -DE/DX =    0.0                 !
 ! D3    D(1,2,4,3)              0.0            -DE/DX =    0.0                 !
 ! D4    D(1,3,4,2)              0.0            -DE/DX =    0.0                 !
 --------------------------------------------------------------------------------
 GradGradGradGradGradGradGradGradGradGradGradGradGradGradGradGradGradGrad

 1\1\GINC-RKANTERS-MAC\Freq\RB3PW91\6-31G(d,p)\H3O1(1+)\RKANTERS\30-Oct
 -2004\0\\#N GEOM=ALLCHECK GUESS=READ SCRF=CHECK GENCHK RB3PW91/6-31G(D
 ,P) FREQ\\H3O+ B3PW91\\1,1\O,0.,0.0000078483,0.0000078483\H,0.,-0.9403
 911554,0.2517729161\H,0.,0.2517729161,-0.9403911554\H,0.,0.6885554531,
 0.6885554531\\Version=Mac32-G03RevC.02\State=1-A1\HF=-76.6783788\RMSD=
 1.603e-09\RMSF=2.488e-04\Dipole=0.,0.0000446,0.0000446\DipoleDeriv=-0.
 531361,0.,0.,0.,-0.5399083,-0.0001551,0.,-0.0001551,-0.5399083,0.51043
 12,0.,0.,0.,0.6358481,-0.0706856,0.,-0.0707737,0.3906116,0.5104312,0.,
 0.,0.,0.3906116,-0.0707737,0.,-0.0706856,0.6358481,0.5104985,0.,0.,0.,
 0.5134486,0.1416144,0.,0.1416144,0.5134486\Polar=2.7677476,0.,5.372383
 6,0.,0.0013544,5.3723836\PG=C02V [C2(O1H1),SGV(H2)]\NImag=1\\-0.033434
 55,0.,0.89180634,0.,-0.00037174,0.89180634,0.01119208,0.,0.,-0.0039241
 0,0.,-0.47887804,0.10476702,0.,0.48162858,0.,0.10472123,-0.11587800,0.
 ,-0.11258927,0.09152962,0.01119208,0.,0.,-0.00361271,0.,0.,-0.00392410
 ,0.,-0.11587800,0.10472123,0.,0.00539131,0.03007686,0.,0.09152962,0.,0
 .10476702,-0.47887804,0.,0.00127006,0.00539131,0.,-0.11258927,0.481628
 58,0.01105038,0.,0.,-0.00365527,0.,0.,-0.00365527,0.,0.,-0.00373983,0.
 ,-0.29705030,-0.20911650,0.,-0.00814185,-0.02220881,0.,0.01895708,0.00
 655220,0.,0.28623507,0.,-0.20911650,-0.29705030,0.,0.00655220,0.018957
 08,0.,-0.02220881,-0.00814185,0.,0.22477312,0.28623507\\0.,-0.00011987
 ,-0.00011987,0.,0.00052371,-0.00017819,0.,-0.00017819,0.00052371,0.,-0
 .00022565,-0.00022565\\\@


 WE ARE PERHAPS NOT FAR REMOVED FROM THE TIME WHEN WE SHALL BE ABLE TO SUBMIT
 THE BULK OF CHEMICAL PHENOMENA TO CALCULATION.

            -- JOSEPH LOUIS GAY-LUSSAC
               MEMOIRES DE LA SOCIETE D'ARCUEIL, 2, 207 (1808)
 Job cpu time:  0 days  0 hours  0 minutes 34.0 seconds.
 File lengths (MBytes):  RWF=     11 Int=      0 D2E=      0 Chk=      4 Scr=      1
 Normal termination of Gaussian 03 at Sat Oct 30 12:50:30 2004.
