 Entering Gaussian System, Link 0=g03
 Input=H2O_G03_zopt.com
 Output=H2O_G03_zopt.log
 Initial command:
 /usr/local/g03/l1.exe /Users/rkanters/scratch/Gau-29792.inp -scrdir=/Users/rkanters/scratch/
 Entering Link 1 = /usr/local/g03/l1.exe PID=     29793.
  
 Copyright (c) 1988,1990,1992,1993,1995,1998,2003,2004, Gaussian, Inc.
                  All Rights Reserved.
  
 This is the Gaussian(R) 03 program.  It is based on the
 the Gaussian(R) 98 system (copyright 1998, Gaussian, Inc.),
 the Gaussian(R) 94 system (copyright 1995, Gaussian, Inc.),
 the Gaussian 92(TM) system (copyright 1992, Gaussian, Inc.),
 the Gaussian 90(TM) system (copyright 1990, Gaussian, Inc.),
 the Gaussian 88(TM) system (copyright 1988, Gaussian, Inc.),
 the Gaussian 86(TM) system (copyright 1986, Carnegie Mellon
 University), and the Gaussian 82(TM) system (copyright 1983,
 Carnegie Mellon University). Gaussian is a federally registered
 trademark of Gaussian, Inc.
  
 This software contains proprietary and confidential information,
 including trade secrets, belonging to Gaussian, Inc.
  
 This software is provided under written license and may be
 used, copied, transmitted, or stored only in accord with that
 written license.
  
 The following legend is applicable only to US Government
 contracts under FAR:
  
                    RESTRICTED RIGHTS LEGEND
  
 Use, reproduction and disclosure by the US Government is
 subject to restrictions as set forth in subparagraphs (a)
 and (c) of the Commercial Computer Software - Restricted
 Rights clause in FAR 52.227-19.
  
 Gaussian, Inc.
 340 Quinnipiac St., Bldg. 40, Wallingford CT 06492
  
  
 ---------------------------------------------------------------
 Warning -- This program may not be used in any manner that
 competes with the business of Gaussian, Inc. or will provide
 assistance to any competitor of Gaussian, Inc.  The licensee
 of this program is prohibited from giving any competitor of
 Gaussian, Inc. access to this program.  By using this program,
 the user acknowledges that Gaussian, Inc. is engaged in the
 business of creating and licensing software in the field of
 computational chemistry and represents and warrants to the
 licensee that it is not a competitor of Gaussian, Inc. and that
 it will not use this program in any manner prohibited above.
 ---------------------------------------------------------------
  

 Cite this work as:
 Gaussian 03, Revision C.02,
 M. J. Frisch, G. W. Trucks, H. B. Schlegel, G. E. Scuseria, 
 M. A. Robb, J. R. Cheeseman, J. A. Montgomery, Jr., T. Vreven, 
 K. N. Kudin, J. C. Burant, J. M. Millam, S. S. Iyengar, J. Tomasi, 
 V. Barone, B. Mennucci, M. Cossi, G. Scalmani, N. Rega, 
 G. A. Petersson, H. Nakatsuji, M. Hada, M. Ehara, K. Toyota, 
 R. Fukuda, J. Hasegawa, M. Ishida, T. Nakajima, Y. Honda, O. Kitao, 
 H. Nakai, M. Klene, X. Li, J. E. Knox, H. P. Hratchian, J. B. Cross, 
 C. Adamo, J. Jaramillo, R. Gomperts, R. E. Stratmann, O. Yazyev, 
 A. J. Austin, R. Cammi, C. Pomelli, J. W. Ochterski, P. Y. Ayala, 
 K. Morokuma, G. A. Voth, P. Salvador, J. J. Dannenberg, 
 V. G. Zakrzewski, S. Dapprich, A. D. Daniels, M. C. Strain, 
 O. Farkas, D. K. Malick, A. D. Rabuck, K. Raghavachari, 
 J. B. Foresman, J. V. Ortiz, Q. Cui, A. G. Baboul, S. Clifford, 
 J. Cioslowski, B. B. Stefanov, G. Liu, A. Liashenko, P. Piskorz, 
 I. Komaromi, R. L. Martin, D. J. Fox, T. Keith, M. A. Al-Laham, 
 C. Y. Peng, A. Nanayakkara, M. Challacombe, P. M. W. Gill, 
 B. Johnson, W. Chen, M. W. Wong, C. Gonzalez, and J. A. Pople, 
 Gaussian, Inc., Wallingford CT, 2004.
 
 ******************************************
 Gaussian 03:  Mac32-G03RevC.02 12-Jun-2004
                24-Oct-2004 
 ******************************************
 ------------------------------
 #N HF/STO-3G OPT=z-matrix Freq
 ------------------------------
 1/10=7,18=40,38=1/1,3;
 2/17=6,18=5,29=3,40=1/2;
 3/6=3,11=9,16=1,25=1,30=1/1,2,3;
 4//1;
 5/5=2,38=5/2;
 6/7=2,8=2,9=2,10=2,28=1/1;
 7/29=1/1,2,3,16;
 1/10=7,18=40/3(1);
 99//99;
 2/29=3/2;
 3/6=3,11=9,16=1,25=1,30=1/1,2,3;
 4/5=5,16=3/1;
 5/5=2,38=5/2;
 7//1,2,3,16;
 1/18=40/3(-5);
 2/29=3/2;
 6/7=2,8=2,9=2,10=2,19=2,28=1/1;
 99/9=1/99;
 ---
 H2O
 ---
 Symbolic Z-matrix:
 Charge =  0 Multiplicity = 1
 X1
 O2                   X1   DO2X1
 H3                   O2   DH3O2    X1   AH3X1
 H4                   O2   DH4O2    X1   AH4X1    H3   TH3H4    0
       Variables:
  DO2X1                 1.8                      
  DH3O2                 0.98                     
  DH4O2                 0.98946                  
  AH3X1               129.98528                  
  AH4X1               129.98528                  
  TH3H4               180.                       
 

 GradGradGradGradGradGradGradGradGradGradGradGradGradGradGradGradGradGrad
 Berny optimization.
 Initialization pass.
                       ----------------------------
                       !    Initial Parameters    !
                       ! (Angstroms and Degrees)  !
 ----------------------                            ----------------------
 !      Name          Value   Derivative information (Atomic Units)     !
 ------------------------------------------------------------------------
 !      DO2X1        1.8      estimate D2E/DX2                          !
 !      DH3O2        0.98     estimate D2E/DX2                          !
 !      DH4O2        0.9895   estimate D2E/DX2                          !
 !      AH3X1      129.9853   estimate D2E/DX2                          !
 !      AH4X1      129.9853   estimate D2E/DX2                          !
 !      TH3H4      180.0      estimate D2E/DX2                          !
 ------------------------------------------------------------------------
 Trust Radius=3.00E-01 FncErr=1.00E-07 GrdErr=1.00E-07
 Number of steps in this run=  20 maximum allowed number of steps= 100.
 GradGradGradGradGradGradGradGradGradGradGradGradGradGradGradGradGradGrad

 ------------------------------------------------------------------------
                         Z-MATRIX (ANGSTROMS AND DEGREES)
 CD Cent Atom  N1     Length/X     N2    Alpha/Y     N3     Beta/Z      J
 ------------------------------------------------------------------------
   1      X 
   2   1  O     1   1.800000(  1)
   3   2  H     2    .980000(  2)   1  129.985(  4)
   4   3  H     2    .989460(  3)   1  129.985(  5)   3  180.000(  6)   0
 ------------------------------------------------------------------------
                         Z-Matrix orientation:                         
 ---------------------------------------------------------------------
 Center     Atomic     Atomic              Coordinates (Angstroms)
 Number     Number      Type              X           Y           Z
 ---------------------------------------------------------------------
    1         -1             0         .000000     .000000     .000000
    2          8             0         .000000     .000000    1.800000
    3          1             0         .750885     .000000    2.429739
    4          1             0        -.758134     .000000    2.435818
 ---------------------------------------------------------------------
                    Distance matrix (angstroms):
                    1          2          3          4
     1  X     .000000
     2  O    1.800000    .000000
     3  H    2.543120    .980000    .000000
     4  H    2.551073    .989460   1.509031    .000000
                           Interatomic angles:
       X1-O2-H3=129.9853       X1-O2-H4=129.9853       H3-O2-H4=100.0294
 Stoichiometry    H2O
 Framework group  CS[SG(H2O)]
 Deg. of freedom     3
 Full point group                 CS      NOp   2
 Largest Abelian subgroup         CS      NOp   2
 Largest concise Abelian subgroup C1      NOp   1
                         Standard orientation:                         
 ---------------------------------------------------------------------
 Center     Atomic     Atomic              Coordinates (Angstroms)
 Number     Number      Type              X           Y           Z
 ---------------------------------------------------------------------
    1          8             0         .000000     .126558     .000000
    2          1             0         .754480    -.498870     .000000
    3          1             0        -.754480    -.513592     .000000
 ---------------------------------------------------------------------
 Rotational constants (GHZ):    705.2449379    440.3487750    271.0854127
 Standard basis: STO-3G (5D, 7F)
 There are     6 symmetry adapted basis functions of A'  symmetry.
 There are     1 symmetry adapted basis functions of A"  symmetry.
 Integral buffers will be    262144 words long.
 Raffenetti 1 integral format.
 Two-electron integral symmetry is turned on.
     7 basis functions,    21 primitive gaussians,     7 cartesian basis functions
     5 alpha electrons        5 beta electrons
       nuclear repulsion energy         8.9490005836 Hartrees.
 NAtoms=    3 NActive=    3 NUniq=    3 SFac= 1.00E+00 NAtFMM=   60 Big=F
 One-electron integrals computed using PRISM.
 NBasis=     7 RedAO= T  NBF=     6     1
 NBsUse=     7 1.00E-06 NBFU=     6     1
 Harris functional with IExCor=  205 diagonalized for initial guess.
 ExpMin= 1.69E-01 ExpMax= 1.31E+02 ExpMxC= 1.31E+02 IAcc=1 IRadAn=         1 AccDes= 1.00E-06
 HarFok:  IExCor= 205 AccDes= 1.00E-06 IRadAn=         1 IDoV=1
 ScaDFX=  1.000000  1.000000  1.000000  1.000000
 Initial guess orbital symmetries:
       Occupied  (A') (A') (A') (A') (A")
       Virtual   (A') (A')
 The electronic state of the initial guess is 1-A'.
 Requested convergence on RMS density matrix=1.00E-08 within 128 cycles.
 Requested convergence on MAX density matrix=1.00E-06.
 Requested convergence on             energy=1.00E-06.
 No special actions if energy rises.
 Keep R1 integrals in memory in canonical form, NReq=      419402.
 SCF Done:  E(RHF) =  -74.9657959666     A.U. after    8 cycles
             Convg  =     .1188E-08             -V/T =  2.0059
             S**2   =    .0000

 **********************************************************************

            Population analysis using the SCF density.

 **********************************************************************

 Orbital symmetries:
       Occupied  (A') (A') (A') (A') (A")
       Virtual   (A') (A')
 The electronic state is 1-A'.
 Alpha  occ. eigenvalues --  -20.25096  -1.25982   -.59619   -.46030   -.39285
 Alpha virt. eigenvalues --     .58604    .69820
          Condensed to atoms (all electrons):
              1          2          3
     1  O    7.824866    .255185    .254603
     2  H     .255185    .621827   -.046229
     3  H     .254603   -.046229    .626188
 Mulliken atomic charges:
              1
     1  O    -.334654
     2  H     .169217
     3  H     .165438
 Sum of Mulliken charges=    .00000
 Atomic charges with hydrogens summed into heavy atoms:
              1
     1  O     .000000
     2  H     .000000
     3  H     .000000
 Sum of Mulliken charges=    .00000
 Electronic spatial extent (au):  <R**2>=    18.2063
 Charge=      .0000 electrons
 Dipole moment (field-independent basis, Debye):
    X=      .0157    Y=    -1.7158    Z=      .0000  Tot=     1.7158
 Quadrupole moment (field-independent basis, Debye-Ang):
   XX=    -4.4873   YY=    -5.3329   ZZ=    -6.1217
   XY=      .0102   XZ=      .0000   YZ=      .0000
 Traceless Quadrupole moment (field-independent basis, Debye-Ang):
   XX=      .8267   YY=     -.0190   ZZ=     -.8077
   XY=      .0102   XZ=      .0000   YZ=      .0000
 Octapole moment (field-independent basis, Debye-Ang**2):
  XXX=      .0125  YYY=     -.1816  ZZZ=      .0000  XYY=     -.0070
  XXY=     -.5284  XXZ=      .0000  XZZ=      .0029  YZZ=      .0165
  YYZ=      .0000  XYZ=      .0000
 Hexadecapole moment (field-independent basis, Debye-Ang**3):
 XXXX=    -6.6894 YYYY=    -5.1917 ZZZZ=    -3.2608 XXXY=     -.0188
 XXXZ=      .0000 YYYX=     -.0131 YYYZ=      .0000 ZZZX=      .0000
 ZZZY=      .0000 XXYY=    -1.7303 XXZZ=    -1.7983 YYZZ=    -1.4538
 XXYZ=      .0000 YYXZ=      .0000 ZZXY=     -.0080
 N-N= 8.949000583575E+00 E-N=-1.964380269626E+02  KE= 7.452867719271E+01
 Symmetry A'   KE= 6.947121474069E+01
 Symmetry A"   KE= 5.057462452019E+00
 ***** Axes restored to original set *****
 -------------------------------------------------------------------
 Center     Atomic                   Forces (Hartrees/Bohr)
 Number     Number              X              Y              Z
 -------------------------------------------------------------------
    1          8           -.009621193     .000000000    -.006735790
    2          1            .009377981     .000000000     .007400137
    3          1            .000243213     .000000000    -.000664348
 -------------------------------------------------------------------
 Cartesian Forces:  Max      .009621193 RMS      .005589149
 ------------------------------------------------------------------------
           Internal Coordinate Forces (Hartree/Bohr or radian)
 Cent Atom N1     Length/X     N2     Alpha/Y      N3      Beta/Z       J
 ------------------------------------------------------------------------
      X 
   1  O     1    .000000(   1)
   2  H     2    .011941(   2)  1   -.000660(   4)
   3  H     2   -.000613(   3)  1   -.000660(   5)  3    .000000(   6)  0
 ------------------------------------------------------------------------
 Internal  Forces:  Max      .011940758 RMS      .004896050

 GradGradGradGradGradGradGradGradGradGradGradGradGradGradGradGradGradGrad
 Berny optimization.
 Search for a local minimum.
 Step number   1 out of a maximum of  20
 All quantities printed in internal units (Hartrees-Bohrs-Radians)
 Second derivative matrix not updated -- first step.
 The second derivative matrix:
                         DO2X1     DH3O2     DH4O2     AH3X1     AH4X1
           DO2X1         .00000
           DH3O2         .00000    .51385
           DH4O2         .00000    .00000    .49590
           AH3X1         .00000    .00000    .00000    .16000
           AH4X1         .00000    .00000    .00000    .16000    .16000
           TH3H4         .00000    .00000    .00000    .00000    .00000
                         TH3H4
           TH3H4        2.05253
     Eigenvalues ---     .00000    .00000    .32000    .49590    .51385
     Eigenvalues ---    2.05253
 RFO step:  Lambda=-2.80809402E-04.
 Linear search not attempted -- first point.
 Variable       Old X    -DE/DX   Delta X   Delta X   Delta X     New X
                                 (Linear)    (Quad)   (Total)
  DO2X1       3.40151    .00000    .00000    .00000    .00000   3.40151
  DH3O2       1.85193    .01194    .00000    .02323    .02323   1.87516
  DH4O2       1.86981   -.00061    .00000   -.00124   -.00124   1.86857
  AH3X1       2.26867   -.00066    .00000   -.00206   -.00206   2.26661
  AH4X1       2.26867   -.00066    .00000   -.00206   -.00206   2.26661
  TH3H4       3.14159    .00000    .00000    .00000    .00000   3.14159
         Item               Value     Threshold  Converged?
 Maximum Force             .011941      .000450     NO 
 RMS     Force             .004896      .000300     NO 
 Maximum Displacement      .023225      .001800     NO 
 RMS     Displacement      .009569      .001200     NO 
 Predicted change in Energy=-1.404778E-04
 GradGradGradGradGradGradGradGradGradGradGradGradGradGradGradGradGradGrad

 ------------------------------------------------------------------------
                         Z-MATRIX (ANGSTROMS AND DEGREES)
 CD Cent Atom  N1     Length/X     N2    Alpha/Y     N3     Beta/Z      J
 ------------------------------------------------------------------------
   1      X 
   2   1  O     1   1.800000(  1)
   3   2  H     2    .992290(  2)   1  129.867(  4)
   4   3  H     2    .988806(  3)   1  129.867(  5)   3  180.000(  6)   0
 ------------------------------------------------------------------------
                         Z-Matrix orientation:                         
 ---------------------------------------------------------------------
 Center     Atomic     Atomic              Coordinates (Angstroms)
 Number     Number      Type              X           Y           Z
 ---------------------------------------------------------------------
    1         -1             0         .000000     .000000     .000000
    2          8             0         .000000     .000000    1.800000
    3          1             0         .761613     .000000    2.436070
    4          1             0        -.758940     .000000    2.433836
 ---------------------------------------------------------------------
                    Distance matrix (angstroms):
                    1          2          3          4
     1  X     .000000
     2  O    1.800000    .000000
     3  H    2.552350    .992290    .000000
     4  H    2.549421    .988806   1.520555    .000000
                           Interatomic angles:
       X1-O2-H3=129.8673       X1-O2-H4=129.8673       H3-O2-H4=100.2654
 Stoichiometry    H2O
 Framework group  CS[SG(H2O)]
 Deg. of freedom     3
 Full point group                 CS      NOp   2
 Largest Abelian subgroup         CS      NOp   2
 Largest concise Abelian subgroup C1      NOp   1
                         Standard orientation:                         
 ---------------------------------------------------------------------
 Center     Atomic     Atomic              Coordinates (Angstroms)
 Number     Number      Type              X           Y           Z
 ---------------------------------------------------------------------
    1          8             0         .000000     .126991     .000000
    2          1             0         .760273    -.510681     .000000
    3          1             0        -.760273    -.505246     .000000
 ---------------------------------------------------------------------
 Rotational constants (GHZ):    700.2889308    433.7593206    267.8517871
 Standard basis: STO-3G (5D, 7F)
 There are     6 symmetry adapted basis functions of A'  symmetry.
 There are     1 symmetry adapted basis functions of A"  symmetry.
 Integral buffers will be    262144 words long.
 Raffenetti 1 integral format.
 Two-electron integral symmetry is turned on.
     7 basis functions,    21 primitive gaussians,     7 cartesian basis functions
     5 alpha electrons        5 beta electrons
       nuclear repulsion energy         8.8956688199 Hartrees.
 NAtoms=    3 NActive=    3 NUniq=    3 SFac= 1.00E+00 NAtFMM=   60 Big=F
 One-electron integrals computed using PRISM.
 NBasis=     7 RedAO= T  NBF=     6     1
 NBsUse=     7 1.00E-06 NBFU=     6     1
 Initial guess read from the read-write file:
 Initial guess orbital symmetries:
       Occupied  (A') (A') (A') (A') (A")
       Virtual   (A') (A')
 Harris functional with IExCor=  205 diagonalized for initial guess.
 ExpMin= 1.69E-01 ExpMax= 1.31E+02 ExpMxC= 1.31E+02 IAcc=1 IRadAn=         1 AccDes= 1.00E-06
 HarFok:  IExCor= 205 AccDes= 1.00E-06 IRadAn=         1 IDoV=1
 ScaDFX=  1.000000  1.000000  1.000000  1.000000
 Requested convergence on RMS density matrix=1.00E-08 within 128 cycles.
 Requested convergence on MAX density matrix=1.00E-06.
 Requested convergence on             energy=1.00E-06.
 No special actions if energy rises.
 Keep R1 integrals in memory in canonical form, NReq=      419402.
 SCF Done:  E(RHF) =  -74.9658877173     A.U. after    7 cycles
             Convg  =     .9415E-08             -V/T =  2.0060
             S**2   =    .0000
 ***** Axes restored to original set *****
 -------------------------------------------------------------------
 Center     Atomic                   Forces (Hartrees/Bohr)
 Number     Number              X              Y              Z
 -------------------------------------------------------------------
    1          8            .003437942     .000000000     .000756836
    2          1           -.003334616     .000000000    -.001815742
    3          1           -.000103325     .000000000     .001058906
 -------------------------------------------------------------------
 Cartesian Forces:  Max      .003437942 RMS      .001761968
 ------------------------------------------------------------------------
           Internal Coordinate Forces (Hartree/Bohr or radian)
 Cent Atom N1     Length/X     N2     Alpha/Y      N3      Beta/Z       J
 ------------------------------------------------------------------------
      X 
   1  O     1    .000000(   1)
   2  H     2   -.003723(   2)  1    .001395(   4)
   3  H     2    .000758(   3)  1    .001395(   5)  3    .000000(   6)  0
 ------------------------------------------------------------------------
 Internal  Forces:  Max      .003723333 RMS      .001747829

 GradGradGradGradGradGradGradGradGradGradGradGradGradGradGradGradGradGrad
 Berny optimization.
 Search for a local minimum.
 Step number   2 out of a maximum of  20
 All quantities printed in internal units (Hartrees-Bohrs-Radians)
 Update second derivatives using D2CorN and points  1  2
 Trust test= 6.53E-01 RLast= 2.34E-02 DXMaxT set to 3.00E-01
 The second derivative matrix:
                         DO2X1     DH3O2     DH4O2     AH3X1     AH4X1
           DO2X1         .00000
           DH3O2         .00000    .67152
           DH4O2         .00000   -.02023    .49761
           AH3X1         .00000   -.03648    .00299    .16523
           AH4X1         .00000   -.03649    .00299    .16523    .16523
           TH3H4         .00000    .00000    .00000    .00000    .00000
                         TH3H4
           TH3H4        2.05253
     Eigenvalues ---     .00000    .00000    .32282    .49531    .68147
     Eigenvalues ---    2.05253
 RFO step:  Lambda=-5.22138048E-06.
 Quartic linear search produced a step of  -.25541.
 Variable       Old X    -DE/DX   Delta X   Delta X   Delta X     New X
                                 (Linear)    (Quad)   (Total)
  DO2X1       3.40151    .00000    .00000    .00000    .00000   3.40151
  DH3O2       1.87516   -.00372   -.00593    .00058   -.00535   1.86981
  DH4O2       1.86857    .00076    .00032    .00082    .00114   1.86971
  AH3X1       2.26661    .00139    .00053    .00289    .00341   2.27003
  AH4X1       2.26661    .00139    .00053    .00255    .00307   2.26968
  TH3H4       3.14159    .00000    .00000    .00000    .00000   3.14159
         Item               Value     Threshold  Converged?
 Maximum Force             .003723      .000450     NO 
 RMS     Force             .001748      .000300     NO 
 Maximum Displacement      .005347      .001800     NO 
 RMS     Displacement      .002915      .001200     NO 
 Predicted change in Energy=-1.501101E-05
 GradGradGradGradGradGradGradGradGradGradGradGradGradGradGradGradGradGrad

 ------------------------------------------------------------------------
                         Z-MATRIX (ANGSTROMS AND DEGREES)
 CD Cent Atom  N1     Length/X     N2    Alpha/Y     N3     Beta/Z      J
 ------------------------------------------------------------------------
   1      X 
   2   1  O     1   1.800000(  1)
   3   2  H     2    .989461(  2)   1  130.063(  4)
   4   3  H     2    .989408(  3)   1  130.043(  5)   3  180.000(  6)   0
 ------------------------------------------------------------------------
                         Z-Matrix orientation:                         
 ---------------------------------------------------------------------
 Center     Atomic     Atomic              Coordinates (Angstroms)
 Number     Number      Type              X           Y           Z
 ---------------------------------------------------------------------
    1         -1             0         .000000     .000000     .000000
    2          8             0         .000000     .000000    1.800000
    3          1             0         .757272     .000000    2.436845
    4          1             0        -.757450     .000000    2.436551
 ---------------------------------------------------------------------
                    Distance matrix (angstroms):
                    1          2          3          4
     1  X     .000000
     2  O    1.800000    .000000
     3  H    2.551798    .989461    .000000
     4  H    2.551570    .989408   1.514722    .000000
                           Interatomic angles:
       X1-O2-H3=130.0629       X1-O2-H4=130.0433       H3-O2-H4= 99.8938
 Stoichiometry    H2O
 Framework group  CS[SG(H2O)]
 Deg. of freedom     3
 Full point group                 CS      NOp   2
 Largest Abelian subgroup         CS      NOp   2
 Largest concise Abelian subgroup C1      NOp   1
                         Standard orientation:                         
 ---------------------------------------------------------------------
 Center     Atomic     Atomic              Coordinates (Angstroms)
 Number     Number      Type              X           Y           Z
 ---------------------------------------------------------------------
    1          8             0         .000000     .127340     .000000
    2          1             0         .757361    -.509400     .000000
    3          1             0        -.757361    -.509317     .000000
 ---------------------------------------------------------------------
 Rotational constants (GHZ):    696.4344623    437.1157343    268.5566658
 Standard basis: STO-3G (5D, 7F)
 There are     6 symmetry adapted basis functions of A'  symmetry.
 There are     1 symmetry adapted basis functions of A"  symmetry.
 Integral buffers will be    262144 words long.
 Raffenetti 1 integral format.
 Two-electron integral symmetry is turned on.
     7 basis functions,    21 primitive gaussians,     7 cartesian basis functions
     5 alpha electrons        5 beta electrons
       nuclear repulsion energy         8.9066061810 Hartrees.
 NAtoms=    3 NActive=    3 NUniq=    3 SFac= 1.00E+00 NAtFMM=   60 Big=F
 One-electron integrals computed using PRISM.
 NBasis=     7 RedAO= T  NBF=     6     1
 NBsUse=     7 1.00E-06 NBFU=     6     1
 Initial guess read from the read-write file:
 Initial guess orbital symmetries:
       Occupied  (A') (A') (A') (A') (A")
       Virtual   (A') (A')
 Requested convergence on RMS density matrix=1.00E-08 within 128 cycles.
 Requested convergence on MAX density matrix=1.00E-06.
 Requested convergence on             energy=1.00E-06.
 No special actions if energy rises.
 Keep R1 integrals in memory in canonical form, NReq=      419402.
 SCF Done:  E(RHF) =  -74.9659004209     A.U. after    7 cycles
             Convg  =     .3823E-08             -V/T =  2.0060
             S**2   =    .0000
 ***** Axes restored to original set *****
 -------------------------------------------------------------------
 Center     Atomic                   Forces (Hartrees/Bohr)
 Number     Number              X              Y              Z
 -------------------------------------------------------------------
    1          8            .000052413     .000000000     .000487067
    2          1            .000254878     .000000000    -.000265539
    3          1           -.000307291     .000000000    -.000221528
 -------------------------------------------------------------------
 Cartesian Forces:  Max      .000487067 RMS      .000240129
 ------------------------------------------------------------------------
           Internal Coordinate Forces (Hartree/Bohr or radian)
 Cent Atom N1     Length/X     N2     Alpha/Y      N3      Beta/Z       J
 ------------------------------------------------------------------------
      X 
   1  O     1    .000000(   1)
   2  H     2    .000024(   2)  1   -.000687(   4)
   3  H     2    .000093(   3)  1   -.000687(   5)  3    .000000(   6)  0
 ------------------------------------------------------------------------
 Internal  Forces:  Max      .000686732 RMS      .000398410

 GradGradGradGradGradGradGradGradGradGradGradGradGradGradGradGradGradGrad
 Berny optimization.
 Search for a local minimum.
 Step number   3 out of a maximum of  20
 All quantities printed in internal units (Hartrees-Bohrs-Radians)
 Update second derivatives using D2CorN and points  1  2  3
 Trust test= 8.46E-01 RLast= 7.14E-03 DXMaxT set to 3.00E-01
 The second derivative matrix:
                         DO2X1     DH3O2     DH4O2     AH3X1     AH4X1
           DO2X1         .00000
           DH3O2         .00000    .66505
           DH4O2         .00000   -.02432    .49617
           AH3X1         .00000   -.07096    .00945    .22321
           AH4X1         .00000   -.07120    .00986    .22024    .21726
           TH3H4         .00000    .00000    .00000    .00000    .00000
                         TH3H4
           TH3H4        2.05253
     Eigenvalues ---    -.00002    .00000    .40189    .49273    .70709
     Eigenvalues ---    2.05253
 RFO step:  Lambda=-2.52213559E-05.
 Quartic linear search produced a step of  -.12991.
 Maximum step size (    .300) exceeded in Quadratic search.
    -- Step size scaled by    .063
 Variable       Old X    -DE/DX   Delta X   Delta X   Delta X     New X
                                 (Linear)    (Quad)   (Total)
  DO2X1       3.40151    .00000    .00000    .00000    .00000   3.40151
  DH3O2       1.86981    .00002    .00069   -.00045    .00025   1.87006
  DH4O2       1.86971    .00009   -.00015    .00023    .00009   1.86980
  AH3X1       2.27003   -.00069   -.00044    .21056    .21011   2.48014
  AH4X1       2.26968   -.00069   -.00040   -.21369   -.21409   2.05559
  TH3H4       3.14159    .00000    .00000    .00000    .00000   3.14159
         Item               Value     Threshold  Converged?
 Maximum Force             .000687      .000450     NO 
 RMS     Force             .000398      .000300     NO 
 Maximum Displacement      .214093      .001800     NO 
 RMS     Displacement      .122464      .001200     NO 
 Predicted change in Energy=-3.542454E-06
 GradGradGradGradGradGradGradGradGradGradGradGradGradGradGradGradGradGrad

 ------------------------------------------------------------------------
                         Z-MATRIX (ANGSTROMS AND DEGREES)
 CD Cent Atom  N1     Length/X     N2    Alpha/Y     N3     Beta/Z      J
 ------------------------------------------------------------------------
   1      X 
   2   1  O     1   1.800000(  1)
   3   2  H     2    .989591(  2)   1  142.102(  4)
   4   3  H     2    .989453(  3)   1  117.777(  5)   3  180.000(  6)   0
 ------------------------------------------------------------------------
                         Z-Matrix orientation:                         
 ---------------------------------------------------------------------
 Center     Atomic     Atomic              Coordinates (Angstroms)
 Number     Number      Type              X           Y           Z
 ---------------------------------------------------------------------
    1         -1             0         .000000     .000000     .000000
    2          8             0         .000000     .000000    1.800000
    3          1             0         .607870     .000000    2.580888
    4          1             0        -.875440     .000000    2.261111
 ---------------------------------------------------------------------
                    Distance matrix (angstroms):
                    1          2          3          4
     1  X     .000000
     2  O    1.800000    .000000
     3  H    2.651507    .989591    .000000
     4  H    2.424668    .989453   1.517388    .000000
                           Interatomic angles:
       X1-O2-H3=142.1016       X1-O2-H4=117.7766       H3-O2-H4=100.1218
 Stoichiometry    H2O
 Framework group  CS[SG(H2O)]
 Deg. of freedom     3
 Full point group                 CS      NOp   2
 Largest Abelian subgroup         CS      NOp   2
 Largest concise Abelian subgroup C1      NOp   1
                         Standard orientation:                         
 ---------------------------------------------------------------------
 Center     Atomic     Atomic              Coordinates (Angstroms)
 Number     Number      Type              X           Y           Z
 ---------------------------------------------------------------------
    1          8             0         .000000     .127049     .000000
    2          1             0         .758694    -.508305     .000000
    3          1             0        -.758694    -.508090     .000000
 ---------------------------------------------------------------------
 Rotational constants (GHZ):    699.6210266    435.5810773    268.4470716
 Standard basis: STO-3G (5D, 7F)
 There are     6 symmetry adapted basis functions of A'  symmetry.
 There are     1 symmetry adapted basis functions of A"  symmetry.
 Integral buffers will be    262144 words long.
 Raffenetti 1 integral format.
 Two-electron integral symmetry is turned on.
     7 basis functions,    21 primitive gaussians,     7 cartesian basis functions
     5 alpha electrons        5 beta electrons
       nuclear repulsion energy         8.9052298304 Hartrees.
 NAtoms=    3 NActive=    3 NUniq=    3 SFac= 1.00E+00 NAtFMM=   60 Big=F
 One-electron integrals computed using PRISM.
 NBasis=     7 RedAO= T  NBF=     6     1
 NBsUse=     7 1.00E-06 NBFU=     6     1
 Initial guess read from the read-write file:
 Initial guess orbital symmetries:
       Occupied  (A') (A') (A') (A') (A")
       Virtual   (A') (A')
 Harris functional with IExCor=  205 diagonalized for initial guess.
 ExpMin= 1.69E-01 ExpMax= 1.31E+02 ExpMxC= 1.31E+02 IAcc=1 IRadAn=         1 AccDes= 1.00E-06
 HarFok:  IExCor= 205 AccDes= 1.00E-06 IRadAn=         1 IDoV=1
 ScaDFX=  1.000000  1.000000  1.000000  1.000000
 Requested convergence on RMS density matrix=1.00E-08 within 128 cycles.
 Requested convergence on MAX density matrix=1.00E-06.
 Requested convergence on             energy=1.00E-06.
 No special actions if energy rises.
 Keep R1 integrals in memory in canonical form, NReq=      419402.
 SCF Done:  E(RHF) =  -74.9659007430     A.U. after    6 cycles
             Convg  =     .8028E-08             -V/T =  2.0060
             S**2   =    .0000
 ***** Axes restored to original set *****
 -------------------------------------------------------------------
 Center     Atomic                   Forces (Hartrees/Bohr)
 Number     Number              X              Y              Z
 -------------------------------------------------------------------
    1          8            .000168863     .000000000    -.000132735
    2          1           -.000389177     .000000000    -.000058054
    3          1            .000220314     .000000000     .000190789
 -------------------------------------------------------------------
 Cartesian Forces:  Max      .000389177 RMS      .000178232
 ------------------------------------------------------------------------
           Internal Coordinate Forces (Hartree/Bohr or radian)
 Cent Atom N1     Length/X     N2     Alpha/Y      N3      Beta/Z       J
 ------------------------------------------------------------------------
      X 
   1  O     1    .000000(   1)
   2  H     2   -.000285(   2)  1    .000508(   4)
   3  H     2   -.000106(   3)  1    .000508(   5)  3    .000000(   6)  0
 ------------------------------------------------------------------------
 Internal  Forces:  Max      .000507606 RMS      .000318255

 GradGradGradGradGradGradGradGradGradGradGradGradGradGradGradGradGradGrad
 Berny optimization.
 Search for a local minimum.
 Step number   4 out of a maximum of  20
 All quantities printed in internal units (Hartrees-Bohrs-Radians)
 Update second derivatives using D2CorN and points  1  2  3  4
 Trust test= 9.09E-02 RLast= 3.00E-01 DXMaxT set to 1.50E-01
 The second derivative matrix:
                         DO2X1     DH3O2     DH4O2     AH3X1     AH4X1
           DO2X1         .00000
           DH3O2         .00000    .66505
           DH4O2         .00000   -.02432    .49617
           AH3X1         .00000   -.07111    .00991    .22014
           AH4X1         .00000   -.07104    .00939    .22023    .22035
           TH3H4         .00000    .00000    .00000    .00000    .00000
                         TH3H4
           TH3H4        2.05253
     Eigenvalues ---     .00000    .00001    .40188    .49274    .70708
     Eigenvalues ---    2.05253
 RFO step:  Lambda=-3.87280101E-08.
 Quartic linear search produced a step of  -.43367.
 Variable       Old X    -DE/DX   Delta X   Delta X   Delta X     New X
                                 (Linear)    (Quad)   (Total)
  DO2X1       3.40151    .00000    .00000    .00000    .00000   3.40151
  DH3O2       1.87006   -.00028   -.00011   -.00024   -.00035   1.86971
  DH4O2       1.86980   -.00011   -.00004   -.00005   -.00009   1.86971
  AH3X1       2.48014    .00051   -.09112   -.00067   -.09179   2.38835
  AH4X1       2.05559    .00051    .09285    .00055    .09339   2.14898
  TH3H4       3.14159    .00000    .00000    .00000    .00000   3.14159
         Item               Value     Threshold  Converged?
 Maximum Force             .000508      .000450     NO 
 RMS     Force             .000318      .000300     NO 
 Maximum Displacement      .093394      .001800     NO 
 RMS     Displacement      .053461      .001200     NO 
 Predicted change in Energy=-4.469896E-07
 GradGradGradGradGradGradGradGradGradGradGradGradGradGradGradGradGradGrad

 ------------------------------------------------------------------------
                         Z-MATRIX (ANGSTROMS AND DEGREES)
 CD Cent Atom  N1     Length/X     N2    Alpha/Y     N3     Beta/Z      J
 ------------------------------------------------------------------------
   1      X 
   2   1  O     1   1.800000(  1)
   3   2  H     2    .989407(  2)   1  136.842(  4)
   4   3  H     2    .989408(  3)   1  123.128(  5)   3  180.000(  6)   0
 ------------------------------------------------------------------------
                         Z-Matrix orientation:                         
 ---------------------------------------------------------------------
 Center     Atomic     Atomic              Coordinates (Angstroms)
 Number     Number      Type              X           Y           Z
 ---------------------------------------------------------------------
    1         -1             0         .000000     .000000     .000000
    2          8             0         .000000     .000000    1.800000
    3          1             0         .676763     .000000    2.521747
    4          1             0        -.828584     .000000    2.340718
 ---------------------------------------------------------------------
                    Distance matrix (angstroms):
                    1          2          3          4
     1  X     .000000
     2  O    1.800000    .000000
     3  H    2.610980    .989407    .000000
     4  H    2.483045    .989408   1.516193    .000000
                           Interatomic angles:
       X1-O2-H3=136.8423       X1-O2-H4=123.1277       H3-O2-H4=100.03  
 Stoichiometry    H2O
 Framework group  CS[SG(H2O)]
 Deg. of freedom     3
 Full point group                 CS      NOp   2
 Largest Abelian subgroup         CS      NOp   2
 Largest concise Abelian subgroup C1      NOp   1
                         Standard orientation:                         
 ---------------------------------------------------------------------
 Center     Atomic     Atomic              Coordinates (Angstroms)
 Number     Number      Type              X           Y           Z
 ---------------------------------------------------------------------
    1          8             0         .000000     .127156     .000000
    2          1             0         .758096    -.508624     .000000
    3          1             0        -.758096    -.508625     .000000
 ---------------------------------------------------------------------
 Rotational constants (GHZ):    698.4467375    436.2679816    268.5344107
 Standard basis: STO-3G (5D, 7F)
 There are     6 symmetry adapted basis functions of A'  symmetry.
 There are     1 symmetry adapted basis functions of A"  symmetry.
 Integral buffers will be    262144 words long.
 Raffenetti 1 integral format.
 Two-electron integral symmetry is turned on.
     7 basis functions,    21 primitive gaussians,     7 cartesian basis functions
     5 alpha electrons        5 beta electrons
       nuclear repulsion energy         8.9065003468 Hartrees.
 NAtoms=    3 NActive=    3 NUniq=    3 SFac= 1.00E+00 NAtFMM=   60 Big=F
 One-electron integrals computed using PRISM.
 NBasis=     7 RedAO= T  NBF=     6     1
 NBsUse=     7 1.00E-06 NBFU=     6     1
 Initial guess read from the read-write file:
 Initial guess orbital symmetries:
       Occupied  (A') (A') (A') (A') (A")
       Virtual   (A') (A')
 Harris functional with IExCor=  205 diagonalized for initial guess.
 ExpMin= 1.69E-01 ExpMax= 1.31E+02 ExpMxC= 1.31E+02 IAcc=1 IRadAn=         1 AccDes= 1.00E-06
 HarFok:  IExCor= 205 AccDes= 1.00E-06 IRadAn=         1 IDoV=1
 ScaDFX=  1.000000  1.000000  1.000000  1.000000
 Requested convergence on RMS density matrix=1.00E-08 within 128 cycles.
 Requested convergence on MAX density matrix=1.00E-06.
 Requested convergence on             energy=1.00E-06.
 No special actions if energy rises.
 Keep R1 integrals in memory in canonical form, NReq=      419402.
 SCF Done:  E(RHF) =  -74.9659012167     A.U. after    7 cycles
             Convg  =     .2172E-09             -V/T =  2.0060
             S**2   =    .0000
 ***** Axes restored to original set *****
 -------------------------------------------------------------------
 Center     Atomic                   Forces (Hartrees/Bohr)
 Number     Number              X              Y              Z
 -------------------------------------------------------------------
    1          8            .000000777     .000000000    -.000013551
    2          1           -.000005462     .000000000     .000006523
    3          1            .000004685     .000000000     .000007028
 -------------------------------------------------------------------
 Cartesian Forces:  Max      .000013551 RMS      .000006037
 ------------------------------------------------------------------------
           Internal Coordinate Forces (Hartree/Bohr or radian)
 Cent Atom N1     Length/X     N2     Alpha/Y      N3      Beta/Z       J
 ------------------------------------------------------------------------
      X 
   1  O     1    .000000(   1)
   2  H     2    .000001(   2)  1    .000016(   4)
   3  H     2    .000000(   3)  1    .000016(   5)  3    .000000(   6)  0
 ------------------------------------------------------------------------
 Internal  Forces:  Max      .000015792 RMS      .000009127

 GradGradGradGradGradGradGradGradGradGradGradGradGradGradGradGradGradGrad
 Berny optimization.
 Search for a local minimum.
 Step number   5 out of a maximum of  20
 All quantities printed in internal units (Hartrees-Bohrs-Radians)
 Update second derivatives using D2CorN and points  1  2  4  5
 Trust test= 1.06E+00 RLast= 1.31E-01 DXMaxT set to 1.50E-01
 The second derivative matrix:
                         DO2X1     DH3O2     DH4O2     AH3X1     AH4X1
           DO2X1         .00000
           DH3O2         .00000    .66509
           DH4O2         .00000   -.02439    .49617
           AH3X1         .00000   -.07074    .00987    .22038
           AH4X1         .00000   -.07099    .00942    .22023    .22010
           TH3H4         .00000    .00000    .00000    .00000    .00000
                         TH3H4
           TH3H4        2.05253
     Eigenvalues ---     .00000    .00001    .40208    .49272    .70693
     Eigenvalues ---    2.05253
 RFO step:  Lambda= 0.00000000E+00.
 Quartic linear search produced a step of   .02780.
 Maximum step size (    .150) exceeded in Quadratic search.
    -- Step size scaled by    .005
 Variable       Old X    -DE/DX   Delta X   Delta X   Delta X     New X
                                 (Linear)    (Quad)   (Total)
  DO2X1       3.40151    .00000    .00000   -.15000   -.15000   3.25151
  DH3O2       1.86971    .00000   -.00001    .00000   -.00001   1.86970
  DH4O2       1.86971    .00000    .00000    .00000    .00000   1.86971
  AH3X1       2.38835    .00002   -.00255    .00000   -.00255   2.38580
  AH4X1       2.14898    .00002    .00260    .00000    .00260   2.15158
  TH3H4       3.14159    .00000    .00000    .00000    .00000   3.14159
         Item               Value     Threshold  Converged?
 Maximum Force             .000016      .000450     YES
 RMS     Force             .000009      .000300     YES
 Maximum Displacement      .150000      .001800     NO 
 RMS     Displacement      .061255      .001200     NO 
 Predicted change in Energy=-3.483754E-10
 GradGradGradGradGradGradGradGradGradGradGradGradGradGradGradGradGradGrad

 ------------------------------------------------------------------------
                         Z-MATRIX (ANGSTROMS AND DEGREES)
 CD Cent Atom  N1     Length/X     N2    Alpha/Y     N3     Beta/Z      J
 ------------------------------------------------------------------------
   1      X 
   2   1  O     1   1.720624(  1)
   3   2  H     2    .989402(  2)   1  136.696(  4)
   4   3  H     2    .989406(  3)   1  123.277(  5)   3  180.000(  6)   0
 ------------------------------------------------------------------------
                         Z-Matrix orientation:                         
 ---------------------------------------------------------------------
 Center     Atomic     Atomic              Coordinates (Angstroms)
 Number     Number      Type              X           Y           Z
 ---------------------------------------------------------------------
    1         -1             0         .000000     .000000     .000000
    2          8             0         .000000     .000000    1.720624
    3          1             0         .678600     .000000    2.440636
    4          1             0        -.827175     .000000    2.263492
 ---------------------------------------------------------------------
                    Distance matrix (angstroms):
                    1          2          3          4
     1  X     .000000
     2  O    1.720624    .000000
     3  H    2.533220    .989402    .000000
     4  H    2.409899    .989406   1.516159    .000000
                           Interatomic angles:
       X1-O2-H3=136.696        X1-O2-H4=123.2766       H3-O2-H4=100.0274
 Stoichiometry    H2O
 Framework group  CS[SG(H2O)]
 Deg. of freedom     3
 Full point group                 CS      NOp   2
 Largest Abelian subgroup         CS      NOp   2
 Largest concise Abelian subgroup C1      NOp   1
                         Standard orientation:                         
 ---------------------------------------------------------------------
 Center     Atomic     Atomic              Coordinates (Angstroms)
 Number     Number      Type              X           Y           Z
 ---------------------------------------------------------------------
    1          8             0         .000000     .127159     .000000
    2          1             0         .758080    -.508633     .000000
    3          1             0        -.758080    -.508640     .000000
 ---------------------------------------------------------------------
 Rotational constants (GHZ):    698.4140583    436.2871079    268.5368260
 Standard basis: STO-3G (5D, 7F)
 There are     6 symmetry adapted basis functions of A'  symmetry.
 There are     1 symmetry adapted basis functions of A"  symmetry.
 Integral buffers will be    262144 words long.
 Raffenetti 1 integral format.
 Two-electron integral symmetry is turned on.
     7 basis functions,    21 primitive gaussians,     7 cartesian basis functions
     5 alpha electrons        5 beta electrons
       nuclear repulsion energy         8.9065354516 Hartrees.
 NAtoms=    3 NActive=    3 NUniq=    3 SFac= 1.00E+00 NAtFMM=   60 Big=F
 One-electron integrals computed using PRISM.
 NBasis=     7 RedAO= T  NBF=     6     1
 NBsUse=     7 1.00E-06 NBFU=     6     1
 Initial guess read from the read-write file:
 Initial guess orbital symmetries:
       Occupied  (A') (A') (A') (A') (A")
       Virtual   (A') (A')
 Harris functional with IExCor=  205 diagonalized for initial guess.
 ExpMin= 1.69E-01 ExpMax= 1.31E+02 ExpMxC= 1.31E+02 IAcc=1 IRadAn=         1 AccDes= 1.00E-06
 HarFok:  IExCor= 205 AccDes= 1.00E-06 IRadAn=         1 IDoV=1
 ScaDFX=  1.000000  1.000000  1.000000  1.000000
 Requested convergence on RMS density matrix=1.00E-08 within 128 cycles.
 Requested convergence on MAX density matrix=1.00E-06.
 Requested convergence on             energy=1.00E-06.
 No special actions if energy rises.
 Keep R1 integrals in memory in canonical form, NReq=      419402.
 SCF Done:  E(RHF) =  -74.9659012170     A.U. after    5 cycles
             Convg  =     .1116E-08             -V/T =  2.0060
             S**2   =    .0000
 ***** Axes restored to original set *****
 -------------------------------------------------------------------
 Center     Atomic                   Forces (Hartrees/Bohr)
 Number     Number              X              Y              Z
 -------------------------------------------------------------------
    1          8           -.000003544     .000000000    -.000009768
    2          1            .000005313     .000000000     .000007268
    3          1           -.000001768     .000000000     .000002500
 -------------------------------------------------------------------
 Cartesian Forces:  Max      .000009768 RMS      .000004695
 ------------------------------------------------------------------------
           Internal Coordinate Forces (Hartree/Bohr or radian)
 Cent Atom N1     Length/X     N2     Alpha/Y      N3      Beta/Z       J
 ------------------------------------------------------------------------
      X 
   1  O     1    .000000(   1)
   2  H     2    .000009(   2)  1    .000002(   4)
   3  H     2    .000003(   3)  1    .000002(   5)  3    .000000(   6)  0
 ------------------------------------------------------------------------
 Internal  Forces:  Max      .000008933 RMS      .000004014

 GradGradGradGradGradGradGradGradGradGradGradGradGradGradGradGradGradGrad
 Berny optimization.
 Search for a local minimum.
 Step number   6 out of a maximum of  20
 All quantities printed in internal units (Hartrees-Bohrs-Radians)
 Update second derivatives using D2CorN and points  1  2  3  4  5
                                                        6
 Trust test= 9.98E-01 RLast= 1.50E-01 DXMaxT set to 1.50E-01
 The second derivative matrix:
                         DO2X1     DH3O2     DH4O2     AH3X1     AH4X1
           DO2X1         .00000
           DH3O2        -.00009    .66510
           DH4O2         .00005   -.02442    .49617
           AH3X1        -.00011   -.07070    .00991    .22002
           AH4X1        -.00011   -.07079    .00937    .22024    .22046
           TH3H4         .00000    .00000    .00000    .00000    .00000
                         TH3H4
           TH3H4        2.05253
     Eigenvalues ---     .00000    .00001    .40220    .49272    .70684
     Eigenvalues ---    2.05253
 RFO step:  Lambda=-1.10371502E-06.
 Quartic linear search produced a step of   .00619.
 Maximum step size (    .150) exceeded in Quadratic search.
    -- Step size scaled by    .291
 Variable       Old X    -DE/DX   Delta X   Delta X   Delta X     New X
                                 (Linear)    (Quad)   (Total)
  DO2X1       3.25151    .00000   -.00093    .13803    .13710   3.38861
  DH3O2       1.86970    .00001    .00000    .00003    .00003   1.86973
  DH4O2       1.86971    .00000    .00000   -.00006   -.00006   1.86965
  AH3X1       2.38580    .00000   -.00002    .04158    .04156   2.42736
  AH4X1       2.15158    .00000    .00002   -.04145   -.04144   2.11015
  TH3H4       3.14159    .00000    .00000    .00000    .00000   3.14159
         Item               Value     Threshold  Converged?
 Maximum Force             .000009      .000450     YES
 RMS     Force             .000004      .000300     YES
 Maximum Displacement      .137105      .001800     NO 
 RMS     Displacement      .060885      .001200     NO 
 Predicted change in Energy=-1.252742E-08
 GradGradGradGradGradGradGradGradGradGradGradGradGradGradGradGradGradGrad

 ------------------------------------------------------------------------
                         Z-MATRIX (ANGSTROMS AND DEGREES)
 CD Cent Atom  N1     Length/X     N2    Alpha/Y     N3     Beta/Z      J
 ------------------------------------------------------------------------
   1      X 
   2   1  O     1   1.793176(  1)
   3   2  H     2    .989417(  2)   1  139.077(  4)
   4   3  H     2    .989375(  3)   1  120.902(  5)   3  180.000(  6)   0
 ------------------------------------------------------------------------
                         Z-Matrix orientation:                         
 ---------------------------------------------------------------------
 Center     Atomic     Atomic              Coordinates (Angstroms)
 Number     Number      Type              X           Y           Z
 ---------------------------------------------------------------------
    1         -1             0         .000000     .000000     .000000
    2          8             0         .000000     .000000    1.793176
    3          1             0         .648107     .000000    2.540774
    4          1             0        -.848926     .000000    2.301298
 ---------------------------------------------------------------------
                    Distance matrix (angstroms):
                    1          2          3          4
     1  X     .000000
     2  O    1.793176    .000000
     3  H    2.622132    .989417    .000000
     4  H    2.452886    .989375   1.516066    .000000
                           Interatomic angles:
       X1-O2-H3=139.0774       X1-O2-H4=120.9025       H3-O2-H4=100.0202
 Stoichiometry    H2O
 Framework group  CS[SG(H2O)]
 Deg. of freedom     3
 Full point group                 CS      NOp   2
 Largest Abelian subgroup         CS      NOp   2
 Largest concise Abelian subgroup C1      NOp   1
                         Standard orientation:                         
 ---------------------------------------------------------------------
 Center     Atomic     Atomic              Coordinates (Angstroms)
 Number     Number      Type              X           Y           Z
 ---------------------------------------------------------------------
    1          8             0         .000000     .127168     .000000
    2          1             0         .758033    -.508703     .000000
    3          1             0        -.758033    -.508638     .000000
 ---------------------------------------------------------------------
 Rotational constants (GHZ):    698.3197314    436.3406041    268.5431436
 Standard basis: STO-3G (5D, 7F)
 There are     6 symmetry adapted basis functions of A'  symmetry.
 There are     1 symmetry adapted basis functions of A"  symmetry.
 Integral buffers will be    262144 words long.
 Raffenetti 1 integral format.
 Two-electron integral symmetry is turned on.
     7 basis functions,    21 primitive gaussians,     7 cartesian basis functions
     5 alpha electrons        5 beta electrons
       nuclear repulsion energy         8.9066261534 Hartrees.
 NAtoms=    3 NActive=    3 NUniq=    3 SFac= 1.00E+00 NAtFMM=   60 Big=F
 One-electron integrals computed using PRISM.
 NBasis=     7 RedAO= T  NBF=     6     1
 NBsUse=     7 1.00E-06 NBFU=     6     1
 Initial guess read from the read-write file:
 Initial guess orbital symmetries:
       Occupied  (A') (A') (A') (A') (A")
       Virtual   (A') (A')
 Harris functional with IExCor=  205 diagonalized for initial guess.
 ExpMin= 1.69E-01 ExpMax= 1.31E+02 ExpMxC= 1.31E+02 IAcc=1 IRadAn=         1 AccDes= 1.00E-06
 HarFok:  IExCor= 205 AccDes= 1.00E-06 IRadAn=         1 IDoV=1
 ScaDFX=  1.000000  1.000000  1.000000  1.000000
 Requested convergence on RMS density matrix=1.00E-08 within 128 cycles.
 Requested convergence on MAX density matrix=1.00E-06.
 Requested convergence on             energy=1.00E-06.
 No special actions if energy rises.
 Keep R1 integrals in memory in canonical form, NReq=      419402.
 SCF Done:  E(RHF) =  -74.9659012134     A.U. after    6 cycles
             Convg  =     .2110E-08             -V/T =  2.0060
             S**2   =    .0000
 ***** Axes restored to original set *****
 -------------------------------------------------------------------
 Center     Atomic                   Forces (Hartrees/Bohr)
 Number     Number              X              Y              Z
 -------------------------------------------------------------------
    1          8            .000040081     .000000000     .000010701
    2          1            .000010375     .000000000    -.000018013
    3          1           -.000050456     .000000000     .000007312
 -------------------------------------------------------------------
 Cartesian Forces:  Max      .000050456 RMS      .000022979
 ------------------------------------------------------------------------
           Internal Coordinate Forces (Hartree/Bohr or radian)
 Cent Atom N1     Length/X     N2     Alpha/Y      N3      Beta/Z       J
 ------------------------------------------------------------------------
      X 
   1  O     1    .000000(   1)
   2  H     2   -.000007(   2)  1   -.000037(   4)
   3  H     2    .000047(   3)  1   -.000037(   5)  3    .000000(   6)  0
 ------------------------------------------------------------------------
 Internal  Forces:  Max      .000047049 RMS      .000028742

 GradGradGradGradGradGradGradGradGradGradGradGradGradGradGradGradGradGrad
 Berny optimization.
 Search for a local minimum.
 Step number   7 out of a maximum of  20
 All quantities printed in internal units (Hartrees-Bohrs-Radians)
 Update second derivatives using D2CorN and points  1  2  3  4  5
                                                        7  6
 Trust test=-2.90E-01 RLast= 1.49E-01 DXMaxT set to 7.50E-02
 The second derivative matrix:
                         DO2X1     DH3O2     DH4O2     AH3X1     AH4X1
           DO2X1         .00000
           DH3O2        -.00006    .66512
           DH4O2        -.00009   -.02445    .49617
           AH3X1         .00000   -.07060    .00988    .21998
           AH4X1         .00000   -.07065    .00939    .22024    .22051
           TH3H4         .00000    .00000    .00000    .00000    .00000
                         TH3H4
           TH3H4        2.05253
 Maximum step size (    .075) exceeded in linear search.
    -- Step size scaled by    .523
 Quartic linear search produced a step of  -.50289.
 Variable       Old X    -DE/DX   Delta X   Delta X   Delta X     New X
                                 (Linear)    (Quad)   (Total)
  DO2X1       3.38861    .00000   -.06895    .00000   -.06895   3.31966
  DH3O2       1.86973   -.00001   -.00001    .00000   -.00001   1.86971
  DH4O2       1.86965    .00005    .00003    .00000    .00003   1.86968
  AH3X1       2.42736   -.00004   -.02090    .00000   -.02090   2.40646
  AH4X1       2.11015   -.00004    .02084    .00000    .02084   2.13098
  TH3H4       3.14159    .00000    .00000    .00000    .00000   3.14159
         Item               Value     Threshold  Converged?
 Maximum Force             .000047      .000450     YES
 RMS     Force             .000029      .000300     YES
 Maximum Displacement      .068949      .001800     NO 
 RMS     Displacement      .030619      .001200     NO 
 Predicted change in Energy=-2.832048E-09
 GradGradGradGradGradGradGradGradGradGradGradGradGradGradGradGradGradGrad

 ------------------------------------------------------------------------
                         Z-MATRIX (ANGSTROMS AND DEGREES)
 CD Cent Atom  N1     Length/X     N2    Alpha/Y     N3     Beta/Z      J
 ------------------------------------------------------------------------
   1      X 
   2   1  O     1   1.756690(  1)
   3   2  H     2    .989409(  2)   1  137.880(  4)
   4   3  H     2    .989391(  3)   1  122.096(  5)   3  180.000(  6)   0
 ------------------------------------------------------------------------
                         Z-Matrix orientation:                         
 ---------------------------------------------------------------------
 Center     Atomic     Atomic              Coordinates (Angstroms)
 Number     Number      Type              X           Y           Z
 ---------------------------------------------------------------------
    1         -1             0         .000000     .000000     .000000
    2          8             0         .000000     .000000    1.756690
    3          1             0         .663585     .000000    2.490574
    4          1             0        -.838168     .000000    2.282398
 ---------------------------------------------------------------------
                    Distance matrix (angstroms):
                    1          2          3          4
     1  X     .000000
     2  O    1.756690    .000000
     3  H    2.577461    .989409    .000000
     4  H    2.431433    .989391   1.516113    .000000
                           Interatomic angles:
       X1-O2-H3=137.8798       X1-O2-H4=122.0964       H3-O2-H4=100.0238
 Stoichiometry    H2O
 Framework group  CS[SG(H2O)]
 Deg. of freedom     3
 Full point group                 CS      NOp   2
 Largest Abelian subgroup         CS      NOp   2
 Largest concise Abelian subgroup C1      NOp   1
                         Standard orientation:                         
 ---------------------------------------------------------------------
 Center     Atomic     Atomic              Coordinates (Angstroms)
 Number     Number      Type              X           Y           Z
 ---------------------------------------------------------------------
    1          8             0         .000000     .127163     .000000
    2          1             0         .758057    -.508667     .000000
    3          1             0        -.758057    -.508639     .000000
 ---------------------------------------------------------------------
 Rotational constants (GHZ):    698.3671634    436.3137002    268.5399666
 Standard basis: STO-3G (5D, 7F)
 There are     6 symmetry adapted basis functions of A'  symmetry.
 There are     1 symmetry adapted basis functions of A"  symmetry.
 Integral buffers will be    262144 words long.
 Raffenetti 1 integral format.
 Two-electron integral symmetry is turned on.
     7 basis functions,    21 primitive gaussians,     7 cartesian basis functions
     5 alpha electrons        5 beta electrons
       nuclear repulsion energy         8.9065805385 Hartrees.
 NAtoms=    3 NActive=    3 NUniq=    3 SFac= 1.00E+00 NAtFMM=   60 Big=F
 One-electron integrals computed using PRISM.
 NBasis=     7 RedAO= T  NBF=     6     1
 NBsUse=     7 1.00E-06 NBFU=     6     1
 Initial guess read from the read-write file:
 Initial guess orbital symmetries:
       Occupied  (A') (A') (A') (A') (A")
       Virtual   (A') (A')
 Harris functional with IExCor=  205 diagonalized for initial guess.
 ExpMin= 1.69E-01 ExpMax= 1.31E+02 ExpMxC= 1.31E+02 IAcc=1 IRadAn=         1 AccDes= 1.00E-06
 HarFok:  IExCor= 205 AccDes= 1.00E-06 IRadAn=         1 IDoV=1
 ScaDFX=  1.000000  1.000000  1.000000  1.000000
 Requested convergence on RMS density matrix=1.00E-08 within 128 cycles.
 Requested convergence on MAX density matrix=1.00E-06.
 Requested convergence on             energy=1.00E-06.
 No special actions if energy rises.
 Keep R1 integrals in memory in canonical form, NReq=      419402.
 SCF Done:  E(RHF) =  -74.9659012162     A.U. after    5 cycles
             Convg  =     .6050E-08             -V/T =  2.0060
             S**2   =    .0000
 ***** Axes restored to original set *****
 -------------------------------------------------------------------
 Center     Atomic                   Forces (Hartrees/Bohr)
 Number     Number              X              Y              Z
 -------------------------------------------------------------------
    1          8            .000018350     .000000000    -.000000045
    2          1            .000007565     .000000000    -.000005351
    3          1           -.000025915     .000000000     .000005396
 -------------------------------------------------------------------
 Cartesian Forces:  Max      .000025915 RMS      .000011172
 ------------------------------------------------------------------------
           Internal Coordinate Forces (Hartree/Bohr or radian)
 Cent Atom N1     Length/X     N2     Alpha/Y      N3      Beta/Z       J
 ------------------------------------------------------------------------
      X 
   1  O     1    .000000(   1)
   2  H     2    .000001(   2)  1   -.000017(   4)
   3  H     2    .000025(   3)  1   -.000017(   5)  3    .000000(   6)  0
 ------------------------------------------------------------------------
 Internal  Forces:  Max      .000024821 RMS      .000014195

 GradGradGradGradGradGradGradGradGradGradGradGradGradGradGradGradGradGrad
 Berny optimization.
 Search for a local minimum.
 Step number   8 out of a maximum of  20
 All quantities printed in internal units (Hartrees-Bohrs-Radians)
 Update second derivatives using D2CorN and points  2  3  4  5  8
                                                        6
 The second derivative matrix:
                         DO2X1     DH3O2     DH4O2     AH3X1     AH4X1
           DO2X1         .00000
           DH3O2        -.00004    .66510
           DH4O2        -.00013   -.02445    .49617
           AH3X1         .00012   -.07063    .00992    .21963
           AH4X1         .00012   -.07062    .00935    .22025    .22088
           TH3H4         .00000    .00000    .00000    .00000    .00000
                         TH3H4
           TH3H4        2.05253
     Eigenvalues ---     .00000    .00000    .40234    .49271    .70673
     Eigenvalues ---    2.05253
 RFO step:  Lambda=-1.91394455E-06.
 Quartic linear search produced a step of  -.91665.
 Maximum step size (    .075) exceeded in Quadratic search.
    -- Step size scaled by    .089
 Variable       Old X    -DE/DX   Delta X   Delta X   Delta X     New X
                                 (Linear)    (Quad)   (Total)
  DO2X1       3.31966    .00000   -.06247    .01648   -.04599   3.27367
  DH3O2       1.86971    .00000   -.00001   -.00001   -.00003   1.86969
  DH4O2       1.86968    .00002    .00003    .00007    .00009   1.86977
  AH3X1       2.40646   -.00002   -.01894   -.05182   -.07076   2.33570
  AH4X1       2.13098   -.00002    .01888    .05166    .07054   2.20152
  TH3H4       3.14159    .00000    .00000    .00000    .00000   3.14159
         Item               Value     Threshold  Converged?
 Maximum Force             .000025      .000450     YES
 RMS     Force             .000014      .000300     YES
 Maximum Displacement      .070757      .001800     NO 
 RMS     Displacement      .044902      .001200     NO 
 Predicted change in Energy=-1.263964E-08
 GradGradGradGradGradGradGradGradGradGradGradGradGradGradGradGradGradGrad

 ------------------------------------------------------------------------
                         Z-MATRIX (ANGSTROMS AND DEGREES)
 CD Cent Atom  N1     Length/X     N2    Alpha/Y     N3     Beta/Z      J
 ------------------------------------------------------------------------
   1      X 
   2   1  O     1   1.732351(  1)
   3   2  H     2    .989395(  2)   1  133.826(  4)
   4   3  H     2    .989441(  3)   1  126.138(  5)   3  180.000(  6)   0
 ------------------------------------------------------------------------
                         Z-Matrix orientation:                         
 ---------------------------------------------------------------------
 Center     Atomic     Atomic              Coordinates (Angstroms)
 Number     Number      Type              X           Y           Z
 ---------------------------------------------------------------------
    1         -1             0         .000000     .000000     .000000
    2          8             0         .000000     .000000    1.732351
    3          1             0         .713798     .000000    2.417475
    4          1             0        -.799073     .000000    2.315854
 ---------------------------------------------------------------------
                    Distance matrix (angstroms):
                    1          2          3          4
     1  X     .000000
     2  O    1.732351    .000000
     3  H    2.520653    .989395    .000000
     4  H    2.449836    .989441   1.516281    .000000
                           Interatomic angles:
       X1-O2-H3=133.8257       X1-O2-H4=126.1378       H3-O2-H4=100.0365
 Stoichiometry    H2O
 Framework group  CS[SG(H2O)]
 Deg. of freedom     3
 Full point group                 CS      NOp   2
 Largest Abelian subgroup         CS      NOp   2
 Largest concise Abelian subgroup C1      NOp   1
                         Standard orientation:                         
 ---------------------------------------------------------------------
 Center     Atomic     Atomic              Coordinates (Angstroms)
 Number     Number      Type              X           Y           Z
 ---------------------------------------------------------------------
    1          8             0         .000000     .127149     .000000
    2          1             0         .758140    -.508560     .000000
    3          1             0        -.758140    -.508631     .000000
 ---------------------------------------------------------------------
 Rotational constants (GHZ):    698.5253620    436.2170802    268.5267445
 Standard basis: STO-3G (5D, 7F)
 There are     6 symmetry adapted basis functions of A'  symmetry.
 There are     1 symmetry adapted basis functions of A"  symmetry.
 Integral buffers will be    262144 words long.
 Raffenetti 1 integral format.
 Two-electron integral symmetry is turned on.
     7 basis functions,    21 primitive gaussians,     7 cartesian basis functions
     5 alpha electrons        5 beta electrons
       nuclear repulsion energy         8.9063857402 Hartrees.
 NAtoms=    3 NActive=    3 NUniq=    3 SFac= 1.00E+00 NAtFMM=   60 Big=F
 One-electron integrals computed using PRISM.
 NBasis=     7 RedAO= T  NBF=     6     1
 NBsUse=     7 1.00E-06 NBFU=     6     1
 Initial guess read from the read-write file:
 Initial guess orbital symmetries:
       Occupied  (A') (A') (A') (A') (A")
       Virtual   (A') (A')
 Harris functional with IExCor=  205 diagonalized for initial guess.
 ExpMin= 1.69E-01 ExpMax= 1.31E+02 ExpMxC= 1.31E+02 IAcc=1 IRadAn=         1 AccDes= 1.00E-06
 HarFok:  IExCor= 205 AccDes= 1.00E-06 IRadAn=         1 IDoV=1
 ScaDFX=  1.000000  1.000000  1.000000  1.000000
 Requested convergence on RMS density matrix=1.00E-08 within 128 cycles.
 Requested convergence on MAX density matrix=1.00E-06.
 Requested convergence on             energy=1.00E-06.
 No special actions if energy rises.
 Keep R1 integrals in memory in canonical form, NReq=      419402.
 SCF Done:  E(RHF) =  -74.9659012113     A.U. after    6 cycles
             Convg  =     .3130E-08             -V/T =  2.0060
             S**2   =    .0000
 ***** Axes restored to original set *****
 -------------------------------------------------------------------
 Center     Atomic                   Forces (Hartrees/Bohr)
 Number     Number              X              Y              Z
 -------------------------------------------------------------------
    1          8           -.000044146     .000000000    -.000023331
    2          1           -.000009351     .000000000     .000028721
    3          1            .000053498     .000000000    -.000005391
 -------------------------------------------------------------------
 Cartesian Forces:  Max      .000053498 RMS      .000026450
 ------------------------------------------------------------------------
           Internal Coordinate Forces (Hartree/Bohr or radian)
 Cent Atom N1     Length/X     N2     Alpha/Y      N3      Beta/Z       J
 ------------------------------------------------------------------------
      X 
   1  O     1    .000000(   1)
   2  H     2    .000013(   2)  1    .000051(   4)
   3  H     2   -.000046(   3)  1    .000051(   5)  3    .000000(   6)  0
 ------------------------------------------------------------------------
 Internal  Forces:  Max      .000050849 RMS      .000035345

 GradGradGradGradGradGradGradGradGradGradGradGradGradGradGradGradGradGrad
 Berny optimization.
 Search for a local minimum.
 Step number   9 out of a maximum of  20
 All quantities printed in internal units (Hartrees-Bohrs-Radians)
 Update second derivatives using D2CorN and points  3  4  5  8  9
                                                        6
 Trust test=-4.54E-01 RLast= 7.41E-02 DXMaxT set to 5.00E-02
 The second derivative matrix:
                         DO2X1     DH3O2     DH4O2     AH3X1     AH4X1
           DO2X1         .00000
           DH3O2         .00001    .66510
           DH4O2        -.00005   -.02445    .49617
           AH3X1         .00007   -.07067    .00972    .21993
           AH4X1         .00007   -.07057    .00954    .22026    .22058
           TH3H4         .00000    .00000    .00000    .00000    .00000
                         TH3H4
           TH3H4        2.05253
     Eigenvalues ---     .00000    .00000    .40235    .49271    .70673
     Eigenvalues ---    2.05253
 RFO step:  Lambda=-2.11598143E-08.
 Skip linear search -- no minimum in search direction.
 Variable       Old X    -DE/DX   Delta X   Delta X   Delta X     New X
                                 (Linear)    (Quad)   (Total)
  DO2X1       3.27367    .00000    .00000   -.01623   -.01623   3.25744
  DH3O2       1.86969    .00001    .00000    .00005    .00005   1.86974
  DH4O2       1.86977   -.00005    .00000   -.00011   -.00011   1.86966
  AH3X1       2.33570    .00005    .00000    .03040    .03040   2.36609
  AH4X1       2.20152    .00005    .00000   -.03009   -.03009   2.17143
  TH3H4       3.14159    .00000    .00000    .00000    .00000   3.14159
         Item               Value     Threshold  Converged?
 Maximum Force             .000051      .000450     YES
 RMS     Force             .000035      .000300     YES
 Maximum Displacement      .030395      .001800     NO 
 RMS     Displacement      .018676      .001200     NO 
 Predicted change in Energy=-1.057961E-08
 GradGradGradGradGradGradGradGradGradGradGradGradGradGradGradGradGradGrad

 ------------------------------------------------------------------------
                         Z-MATRIX (ANGSTROMS AND DEGREES)
 CD Cent Atom  N1     Length/X     N2    Alpha/Y     N3     Beta/Z      J
 ------------------------------------------------------------------------
   1      X 
   2   1  O     1   1.723763(  1)
   3   2  H     2    .989423(  2)   1  135.567(  4)
   4   3  H     2    .989383(  3)   1  124.414(  5)   3  180.000(  6)   0
 ------------------------------------------------------------------------
                         Z-Matrix orientation:                         
 ---------------------------------------------------------------------
 Center     Atomic     Atomic              Coordinates (Angstroms)
 Number     Number      Type              X           Y           Z
 ---------------------------------------------------------------------
    1         -1             0         .000000     .000000     .000000
    2          8             0         .000000     .000000    1.723763
    3          1             0         .692667     .000000    2.430282
    4          1             0        -.816221     .000000    2.282926
 ---------------------------------------------------------------------
                    Distance matrix (angstroms):
                    1          2          3          4
     1  X     .000000
     2  O    1.723763    .000000
     3  H    2.527065    .989423    .000000
     4  H    2.424452    .989383   1.516066    .000000
                           Interatomic angles:
       X1-O2-H3=135.5672       X1-O2-H4=124.4136       H3-O2-H4=100.0191
 Stoichiometry    H2O
 Framework group  CS[SG(H2O)]
 Deg. of freedom     3
 Full point group                 CS      NOp   2
 Largest Abelian subgroup         CS      NOp   2
 Largest concise Abelian subgroup C1      NOp   1
                         Standard orientation:                         
 ---------------------------------------------------------------------
 Center     Atomic     Atomic              Coordinates (Angstroms)
 Number     Number      Type              X           Y           Z
 ---------------------------------------------------------------------
    1          8             0         .000000     .127170     .000000
    2          1             0         .758033    -.508710     .000000
    3          1             0        -.758033    -.508649     .000000
 ---------------------------------------------------------------------
 Rotational constants (GHZ):    698.2949265    436.3409089    268.5395908
 Standard basis: STO-3G (5D, 7F)
 There are     6 symmetry adapted basis functions of A'  symmetry.
 There are     1 symmetry adapted basis functions of A"  symmetry.
 Integral buffers will be    262144 words long.
 Raffenetti 1 integral format.
 Two-electron integral symmetry is turned on.
     7 basis functions,    21 primitive gaussians,     7 cartesian basis functions
     5 alpha electrons        5 beta electrons
       nuclear repulsion energy         8.9065652570 Hartrees.
 NAtoms=    3 NActive=    3 NUniq=    3 SFac= 1.00E+00 NAtFMM=   60 Big=F
 One-electron integrals computed using PRISM.
 NBasis=     7 RedAO= T  NBF=     6     1
 NBsUse=     7 1.00E-06 NBFU=     6     1
 Initial guess read from the read-write file:
 Initial guess orbital symmetries:
       Occupied  (A') (A') (A') (A') (A")
       Virtual   (A') (A')
 Harris functional with IExCor=  205 diagonalized for initial guess.
 ExpMin= 1.69E-01 ExpMax= 1.31E+02 ExpMxC= 1.31E+02 IAcc=1 IRadAn=         1 AccDes= 1.00E-06
 HarFok:  IExCor= 205 AccDes= 1.00E-06 IRadAn=         1 IDoV=1
 ScaDFX=  1.000000  1.000000  1.000000  1.000000
 Requested convergence on RMS density matrix=1.00E-08 within 128 cycles.
 Requested convergence on MAX density matrix=1.00E-06.
 Requested convergence on             energy=1.00E-06.
 No special actions if energy rises.
 Keep R1 integrals in memory in canonical form, NReq=      419402.
 SCF Done:  E(RHF) =  -74.9659012132     A.U. after    6 cycles
             Convg  =     .4497E-08             -V/T =  2.0060
             S**2   =    .0000
 ***** Axes restored to original set *****
[...]
 H,2,DH3O2,1,AH3X1
 H,2,DH4O2,1,AH4X1,3,TH3H4,0
      Variables:
 DO2X1=1.70512318
 DH3O2=0.98941007
 DH4O2=0.98940852
 AH3X1=135.35856631
 AH4X1=124.61501138
 TH3H4=180.
 Recover connectivity data from disk.

 GradGradGradGradGradGradGradGradGradGradGradGradGradGradGradGradGradGrad
 Berny optimization.
 Initialization pass.
                       ----------------------------
                       !    Initial Parameters    !
                       ! (Angstroms and Degrees)  !
 ----------------------                            ----------------------
 !      Name          Value   Derivative information (Atomic Units)     !
 ------------------------------------------------------------------------
 !      DO2X1        1.7051   calculate D2E/DX2 analytically            !
 !      DH3O2        0.9894   calculate D2E/DX2 analytically            !
 !      DH4O2        0.9894   calculate D2E/DX2 analytically            !
 !      AH3X1      135.3586   calculate D2E/DX2 analytically            !
 !      AH4X1      124.615    calculate D2E/DX2 analytically            !
 !      TH3H4      180.0      calculate D2E/DX2 analytically            !
 ------------------------------------------------------------------------
 Trust Radius=3.00E-01 FncErr=1.00E-07 GrdErr=1.00E-07
 Number of steps in this run=   2 maximum allowed number of steps=   2.
 GradGradGradGradGradGradGradGradGradGradGradGradGradGradGradGradGradGrad

                          Input orientation:                          
 ---------------------------------------------------------------------
 Center     Atomic     Atomic              Coordinates (Angstroms)
 Number     Number      Type              X           Y           Z
 ---------------------------------------------------------------------
    1          8             0         .011904     .000000    -.126603
    2          1             0         .707131     .000000     .577381
    3          1             0        -.802366     .000000     .435440
 ---------------------------------------------------------------------
                    Distance matrix (angstroms):
                    1          2          3
     1  O     .000000
     2  H     .989410    .000000
     3  H     .989409   1.516156    .000000
 Stoichiometry    H2O
 Framework group  CS[SG(H2O)]
 Deg. of freedom     3
 Full point group                 CS      NOp   2
 Largest Abelian subgroup         CS      NOp   2
 Largest concise Abelian subgroup C1      NOp   1
                         Standard orientation:                         
 ---------------------------------------------------------------------
 Center     Atomic     Atomic              Coordinates (Angstroms)
 Number     Number      Type              X           Y           Z
 ---------------------------------------------------------------------
    1          8             0         .000000     .127161     .000000
    2          1             0         .758078    -.508645     .000000
    3          1             0        -.758078    -.508643     .000000
 ---------------------------------------------------------------------
 Rotational constants (GHZ):    698.3919630    436.2888748    268.5342288
 Standard basis: STO-3G (5D, 7F)
 There are     6 symmetry adapted basis functions of A'  symmetry.
 There are     1 symmetry adapted basis functions of A"  symmetry.
 Integral buffers will be    262144 words long.
 Raffenetti 1 integral format.
 Two-electron integral symmetry is turned on.
     7 basis functions,    21 primitive gaussians,     7 cartesian basis functions
     5 alpha electrons        5 beta electrons
       nuclear repulsion energy         8.9064904321 Hartrees.
 NAtoms=    3 NActive=    3 NUniq=    3 SFac= 1.00E+00 NAtFMM=   60 Big=F
 One-electron integrals computed using PRISM.
 NBasis=     7 RedAO= T  NBF=     6     1
 NBsUse=     7 1.00E-06 NBFU=     6     1
 Initial guess read from the checkpoint file:
 /Users/rkanters/scratch/Gau-29793.chk
 Initial guess orbital symmetries:
       Occupied  (A') (A') (A') (A') (A")
       Virtual   (A') (A')
 Requested convergence on RMS density matrix=1.00E-08 within 128 cycles.
 Requested convergence on MAX density matrix=1.00E-06.
 Requested convergence on             energy=1.00E-06.
 No special actions if energy rises.
 Keep R1 integrals in memory in canonical form, NReq=      419402.
 SCF Done:  E(RHF) =  -74.9659012171     A.U. after    1 cycles
             Convg  =     .2511E-09             -V/T =  2.0060
             S**2   =    .0000
 Range of M.O.s used for correlation:     1     7
 NBasis=     7 NAE=     5 NBE=     5 NFC=     0 NFV=     0
 NROrb=      7 NOA=     5 NOB=     5 NVA=     2 NVB=     2
          Differentiating once with respect to electric field.
                with respect to dipole field.
          Electric field/nuclear overlap derivatives assumed to be zero.
          Store integrals in memory, NReq=      400525.
          There are   3 degrees of freedom in the 1st order CPHF.
     3 vectors were produced by pass  0.
 AX will form   3 AO Fock derivatives at one time.
     3 vectors were produced by pass  1.
     2 vectors were produced by pass  2.
     2 vectors were produced by pass  3.
 Inv2:  IOpt= 1 Iter= 1 AM= 5.85E-16 Conv= 1.00E-12.
 Inverted reduced A of dimension   10 with in-core refinement.
 End of Minotr Frequency-dependent properties file   721 does not exist.
 Symmetrizing basis deriv contribution to polar:
 IMax=3 JMax=2 DiffMx= 0.00E+00
 G2DrvN: will do    4 centers at a time, making    1 passes doing MaxLOS=1.
 FoFDir/FoFCou used for L=0 through L=1.
 DoAtom=TTT
          Differentiating once with respect to electric field.
                with respect to dipole field.
          Differentiating once with respect to nuclear coordinates.
          Store integrals in memory, NReq=      400562.
          There are  12 degrees of freedom in the 1st order CPHF.
     8 vectors were produced by pass  0.
 AX will form   8 AO Fock derivatives at one time.
     2 vectors were produced by pass  1.
 Inv2:  IOpt= 1 Iter= 1 AM= 6.93E-16 Conv= 1.00E-12.
 Inverted reduced A of dimension   10 with in-core refinement.
 Isotropic polarizability for W=     .000000        2.70 Bohr**3.
 End of Minotr Frequency-dependent properties file   721 does not exist.

 **********************************************************************

            Population analysis using the SCF density.

 **********************************************************************

 Orbital symmetries:
       Occupied  (A') (A') (A') (A') (A")
       Virtual   (A') (A')
 The electronic state is 1-A'.
 Alpha  occ. eigenvalues --  -20.25158  -1.25755   -.59385   -.45973   -.39262
 Alpha virt. eigenvalues --     .58179    .69267
          Condensed to atoms (all electrons):
              1          2          3
     1  O    7.822767    .253881    .253881
     2  H     .253881    .626255   -.045400
     3  H     .253881   -.045400    .626254
 Mulliken atomic charges:
              1
     1  O    -.330529
     2  H     .165264
     3  H     .165265
 Sum of Mulliken charges=    .00000
 Atomic charges with hydrogens summed into heavy atoms:
              1
     1  O     .000000
     2  H     .000000
     3  H     .000000
 Sum of Mulliken charges=    .00000
 APT atomic charges:
              1
     1  O    -.169099
     2  H     .084549
     3  H     .084550
 Sum of APT charges=    .00000
 APT Atomic charges with hydrogens summed into heavy atoms:
              1
     1  O     .000000
     2  H     .000000
     3  H     .000000
 Sum of APT charges=    .00000
 Electronic spatial extent (au):  <R**2>=    18.2685
 Charge=      .0000 electrons
 Dipole moment (field-independent basis, Debye):
    X=      .0000    Y=    -1.7092    Z=      .0000  Tot=     1.7092
 Quadrupole moment (field-independent basis, Debye-Ang):
   XX=    -4.4856   YY=    -5.3332   ZZ=    -6.1257
   XY=      .0000   XZ=      .0000   YZ=      .0000
 Traceless Quadrupole moment (field-independent basis, Debye-Ang):
   XX=      .8292   YY=     -.0184   ZZ=     -.8108
   XY=      .0000   XZ=      .0000   YZ=      .0000
 Octapole moment (field-independent basis, Debye-Ang**2):
  XXX=      .0000  YYY=     -.1744  ZZZ=      .0000  XYY=      .0000
  XXY=     -.5314  XXZ=      .0000  XZZ=      .0000  YZZ=      .0192
  YYZ=      .0000  XYZ=      .0000
 Hexadecapole moment (field-independent basis, Debye-Ang**3):
 XXXX=    -6.7334 YYYY=    -5.2197 ZZZZ=    -3.2653 XXXY=      .0000
 XXXZ=      .0000 YYYX=      .0000 YYYZ=      .0000 ZZZX=      .0000
 ZZZY=      .0000 XXYY=    -1.7391 XXZZ=    -1.8084 YYZZ=    -1.4597
 XXYZ=      .0000 YYXZ=      .0000 ZZXY=      .0000
 N-N= 8.906490432090E+00 E-N=-1.963527339002E+02  KE= 7.451860985892E+01
 Symmetry A'   KE= 6.946114740690E+01
 Symmetry A"   KE= 5.057462452019E+00
  Exact polarizability:   5.508    .000   2.566    .000    .000    .040
 Approx polarizability:   3.938    .000   2.607    .000    .000    .020
 Full mass-weighted force constant matrix:
 Low frequencies ---   -4.9585   -2.1871    -.0010    -.0003     .0010    4.8830
 Low frequencies --- 2170.0513 4140.0056 4391.0658
 Diagonal vibrational polarizability:
         .0418329        .1108967        .0000000
 Diagonal vibrational hyperpolarizability:
        -.0000057       -.4915669        .0000000
 Harmonic frequencies (cm**-1), IR intensities (KM/Mole), Raman scattering
 activities (A**4/AMU), depolarization ratios for plane and unpolarized
 incident light, reduced masses (AMU), force constants (mDyne/A),
 and normal coordinates:
                     1                      2                      3
                    A'                     A'                     A'
 Frequencies --  2170.0513              4140.0056              4391.0658
 Red. masses --     1.0785                 1.0491                 1.0774
 Frc consts  --     2.9923                10.5942                12.2392
 IR Inten    --     7.2375                44.2875                29.9726
 Raman Activ --     9.2669                47.8196                21.5551
 Depolar (P) --      .7246                  .1791                  .7500
 Depolar (U) --      .8403                  .3038                  .8571
 Atom AN      X      Y      Z        X      Y      Z        X      Y      Z
   1   8      .00    .07    .00      .00    .05    .00      .07    .00    .00
   2   1     -.45   -.54    .00      .57   -.42    .00     -.54    .45    .00
   3   1      .45   -.54    .00     -.57   -.42    .00     -.54   -.45    .00

 -------------------
 - Thermochemistry -
 -------------------
 Temperature   298.150 Kelvin.  Pressure   1.00000 Atm.
 Atom  1 has atomic number  8 and mass  15.99491
 Atom  2 has atomic number  1 and mass   1.00783
 Atom  3 has atomic number  1 and mass   1.00783
 Molecular mass:    18.01056 amu.
 Principal axes and moments of inertia in atomic units:
                           1         2         3
     EIGENVALUES --     2.58414   4.13657   6.72071
           X            1.00000    .00000    .00000
           Y             .00000   1.00000    .00000
           Z             .00000    .00000   1.00000
 This molecule is an asymmetric top.
 Rotational symmetry number  1.
 Rotational temperatures (Kelvin)     33.51749    20.93854    12.88760
 Rotational constants (GHZ):         698.39196   436.28887   268.53423
 Zero-point vibrational energy      64006.9 (Joules/Mol)
                                   15.29802 (Kcal/Mol)
 Vibrational temperatures:   3122.22  5956.54  6317.76
          (Kelvin)
 
 Zero-point correction=                            .024379 (Hartree/Particle)
 Thermal correction to Energy=                     .027212
 Thermal correction to Enthalpy=                   .028156
 Thermal correction to Gibbs Free Energy=          .005987
 Sum of electronic and zero-point Energies=            -74.941522
 Sum of electronic and thermal Energies=               -74.938689
 Sum of electronic and thermal Enthalpies=             -74.937745
 Sum of electronic and thermal Free Energies=          -74.959914
 
                     E (Thermal)             CV                S
                      KCal/Mol        Cal/Mol-Kelvin    Cal/Mol-Kelvin
 Total                   17.076              5.968             46.659
 Electronic                .000               .000               .000
 Translational             .889              2.981             34.608
 Rotational                .889              2.981             12.050
 Vibrational             15.298               .006               .001
                       Q            Log10(Q)             Ln(Q)
 Total Bot        .176309E-02         -2.753725         -6.340686
 Total V=0        .288264E+09          8.459791         19.479388
 Vib (Bot)        .611641E-11        -11.213503        -25.820046
 Vib (V=0)        .100003E+01           .000012           .000028
 Electronic       .100000E+01           .000000           .000000
 Translational    .300432E+07          6.477746         14.915562
 Rotational       .959472E+02          1.982032          4.563798
 ***** Axes restored to original set *****
 -------------------------------------------------------------------
 Center     Atomic                   Forces (Hartrees/Bohr)
 Number     Number              X              Y              Z
 -------------------------------------------------------------------
    1          8            .000001383     .000000000     .000001662
    2          1            .000000428     .000000000    -.000001371
    3          1           -.000001811     .000000000    -.000000291
 -------------------------------------------------------------------
 Cartesian Forces:  Max      .000001811 RMS      .000001059
 ------------------------------------------------------------------------
           Internal Coordinate Forces (Hartree/Bohr or radian)
 Cent Atom N1     Length/X     N2     Alpha/Y      N3      Beta/Z       J
 ------------------------------------------------------------------------
      X 
   1  O     1    .000000(   1)
   2  H     2   -.000001(   2)  1   -.000002(   4)
   3  H     2    .000001(   3)  1   -.000002(   5)  3    .000000(   6)  0
 ------------------------------------------------------------------------
 Internal  Forces:  Max      .000002371 RMS      .000001497

 GradGradGradGradGradGradGradGradGradGradGradGradGradGradGradGradGradGrad
 Berny optimization.
 Search for a local minimum.
 Step number   1 out of a maximum of   2
 All quantities printed in internal units (Hartrees-Bohrs-Radians)
 Second derivative matrix not updated -- analytic derivatives used.
 The second derivative matrix:
                         DO2X1     DH3O2     DH4O2     AH3X1     AH4X1
           DO2X1         .00000
           DH3O2         .00000    .65409
           DH4O2         .00000   -.03064    .65409
           AH3X1         .00000   -.03770   -.03770    .29689
           AH4X1         .00000   -.03770   -.03770    .29689    .29689
           TH3H4         .00000    .00000    .00000    .00000    .00000
                         TH3H4
           TH3H4         .00000
     Eigenvalues ---     .00000    .00000    .00000    .53176    .68473
     Eigenvalues ---     .68546
 Eigenvalue   1 out of range, new value =     .000000 Eigenvector:
                           1
           DO2X1        1.00000
           DH3O2         .00000
           DH4O2         .00000
           AH3X1         .00001
           AH4X1        -.00001
           TH3H4         .00000
 Quadratic step=5.599E+00 exceeds max=3.000E-01 adjusted using Lamda=-1.201E-09.
 Angle between NR and scaled steps=    .08 degrees.
 Angle between quadratic step and forces=  89.99 degrees.
 Linear search not attempted -- first point.
 Variable       Old X    -DE/DX   Delta X   Delta X   Delta X     New X
                                 (Linear)    (Quad)   (Total)
  DO2X1       3.22222    .00000    .00000    .00000    .00000   3.22222
  DH3O2       1.86971    .00000    .00000    .00000    .00000   1.86971
  DH4O2       1.86971    .00000    .00000    .00000    .00000   1.86971
  AH3X1       2.36245    .00000    .00000    .21215    .21215   2.57460
  AH4X1       2.17494    .00000    .00000   -.21216   -.21216   1.96278
  TH3H4       3.14159    .00000    .00000    .00000    .00000   3.14159
         Item               Value     Threshold  Converged?
 Maximum Force             .000002      .000450     YES
 RMS     Force             .000001      .000300     YES
 Maximum Displacement      .212158      .001800     NO 
 RMS     Displacement      .122487      .001200     NO 
 Predicted change in Energy=-1.220814E-10
 Optimization completed on the basis of negligible forces.
    -- Stationary point found.
                       ----------------------------
                       !   Optimized Parameters   !
                       ! (Angstroms and Degrees)  !
 ----------------------                            ----------------------
 !      Name          Value   Derivative information (Atomic Units)     !
 ------------------------------------------------------------------------
 !      DO2X1        1.7051   -DE/DX =    0.0                           !
 !      DH3O2        0.9894   -DE/DX =    0.0                           !
 !      DH4O2        0.9894   -DE/DX =    0.0                           !
 !      AH3X1      135.3586   -DE/DX =    0.0                           !
 !      AH4X1      124.615    -DE/DX =    0.0                           !
 !      TH3H4      180.0      -DE/DX =    0.0                           !
 ------------------------------------------------------------------------
 GradGradGradGradGradGradGradGradGradGradGradGradGradGradGradGradGradGrad

 1\1\GINC-RKANTERS-MAC\Freq\RHF\STO-3G\H2O1\RKANTERS\24-Oct-2004\1\\#N 
 GEOM=ALLCHECK GUESS=READ SCRF=CHECK GENCHK RHF/STO-3G FREQ\\H2O\\0,1\X
 \O,1,DO2X1\H,2,DH3O2,1,AH3X1\H,2,DH4O2,1,AH4X1,3,TH3H4,0\\DO2X1=1.7051
 2318\DH3O2=0.98941007\DH4O2=0.98940852\AH3X1=135.35856631\AH4X1=124.61
 501138\TH3H4=180.\\Version=Mac32-G03RevC.02\State=1-A'\HF=-74.9659012\
 RMSD=2.511e-10\RMSF=1.059e-06\Dipole=-0.0629542,0.,0.6695018\DipoleDer
 iv=-0.0301447,0.,-0.0106898,0.,-0.5596807,0.,-0.0106889,0.,0.0825292,0
 .0503701,0.,-0.1483991,0.,0.27984,0.,-0.2129777,0.,-0.0765624,-0.02022
 54,0.,0.1590889,0.,0.2798407,0.,0.2236666,0.,-0.0059668\Polar=5.482242
 9,0.,0.0400604,0.2742299,0.,2.5917267\PolarDeriv=0.8254744,0.,-0.00170
 1,-2.808791,0.,-0.0756136,0.,0.1968075,0.,0.,-2.0930431,0.,-3.0917466,
 0.,0.0180896,-0.1022257,0.,-4.8829656,4.0126542,0.,0.0319778,1.5927283
 ,0.,0.2436629,0.,1.8016753,0.,0.,1.2251894,0.,1.5454763,0.,-0.0061179,
 2.2640435,0.,2.8773635,-4.8381286,0.,-0.0302769,1.2160627,0.,-0.168049
 3,0.,-1.9984828,0.,0.,0.8678537,0.,1.5462703,0.,-0.0119718,-2.1618178,
 0.,2.0056021\HyperPolar=-1.9555544,0.,0.0071375,0.,6.8339086,0.,-0.075
 9079,0.9139216,0.,4.2438869\PG=CS [SG(H2O1)]\NImag=0\\0.80246560,0.,0.
 00000127,0.01575281,0.,0.63638397,-0.34964606,0.,-0.21933805,0.3861076
 7,0.,-0.00000117,0.,0.,0.00000048,-0.34016292,0.,-0.36977628,0.2848101
 4,0.,0.35290554,-0.45281954,0.,0.20358524,-0.03646160,0.,0.05535279,0.
 48928114,0.,-0.00000010,0.,0.,0.00000069,0.,0.,-0.00000059,0.32441012,
 0.,-0.26660769,-0.06547209,0.,0.01687074,-0.25893803,0.,0.24973695\\-0
 .00000138,0.,-0.00000166,-0.00000043,0.,0.00000137,0.00000181,0.,0.000
 00029\\\@


 NATURE WILL TELL YOU A DIRECT LIE IF SHE CAN.

                                -- CHARLES DARWIN
 Job cpu time:  0 days  0 hours  0 minutes  6.0 seconds.
 File lengths (MBytes):  RWF=     11 Int=      0 D2E=      0 Chk=      7 Scr=      1
 Normal termination of Gaussian 03 at Sun Oct 24 10:28:32 2004.
