 Entering Gaussian System, Link 0=g03
 Input=h2so4.nbo.com
 Output=h2so4.nbo.log
 Initial command:
 /gaussian/g03/l1.exe /scratch/Gau-8151.inp -scrdir=/scratch/
 Entering Link 1 = /gaussian/g03/l1.exe PID=      8152.
  
 Copyright (c) 1988,1990,1992,1993,1995,1998,2003, Gaussian, Inc.
                  All Rights Reserved.
  
 This is the Gaussian(R) 03 program.  It is based on the
 the Gaussian(R) 98 system (copyright 1998, Gaussian, Inc.),
 the Gaussian(R) 94 system (copyright 1995, Gaussian, Inc.),
 the Gaussian 92(TM) system (copyright 1992, Gaussian, Inc.),
 the Gaussian 90(TM) system (copyright 1990, Gaussian, Inc.),
 the Gaussian 88(TM) system (copyright 1988, Gaussian, Inc.),
 the Gaussian 86(TM) system (copyright 1986, Carnegie Mellon
 University), and the Gaussian 82(TM) system (copyright 1983,
 Carnegie Mellon University). Gaussian is a federally registered
 trademark of Gaussian, Inc.
  
 This software contains proprietary and confidential information,
 including trade secrets, belonging to Gaussian, Inc.
  
 This software is provided under written license and may be
 used, copied, transmitted, or stored only in accord with that
 written license.
  
 The following legend is applicable only to US Government
 contracts under DFARS:
  
                    RESTRICTED RIGHTS LEGEND
  
 Use, duplication or disclosure by the US Government is subject
 to restrictions as set forth in subparagraph (c)(1)(ii) of the
 Rights in Technical Data and Computer Software clause at DFARS
 252.227-7013.
  
 Gaussian, Inc.
 Carnegie Office Park, Building 6, Pittsburgh, PA 15106 USA
  
 The following legend is applicable only to US Government
 contracts under FAR:
  
                    RESTRICTED RIGHTS LEGEND
  
 Use, reproduction and disclosure by the US Government is subject
 to restrictions as set forth in subparagraph (c) of the
 Commercial Computer Software - Restricted Rights clause at FAR
 52.227-19.
  
 Gaussian, Inc.
 Carnegie Office Park, Building 6, Pittsburgh, PA 15106 USA
  
  
 ---------------------------------------------------------------
 Warning -- This program may not be used in any manner that
 competes with the business of Gaussian, Inc. or will provide
 assistance to any competitor of Gaussian, Inc.  The licensee
 of this program is prohibited from giving any competitor of
 Gaussian, Inc. access to this program.  By using this program,
 the user acknowledges that Gaussian, Inc. is engaged in the
 business of creating and licensing software in the field of
 computational chemistry and represents and warrants to the
 licensee that it is not a competitor of Gaussian, Inc. and that
 it will not use this program in any manner prohibited above.
 ---------------------------------------------------------------
  

 Cite this work as:
 Gaussian 03, Revision B.05,
 M. J. Frisch, G. W. Trucks, H. B. Schlegel, G. E. Scuseria, 
 M. A. Robb, J. R. Cheeseman, J. A. Montgomery, Jr., T. Vreven, 
 K. N. Kudin, J. C. Burant, J. M. Millam, S. S. Iyengar, J. Tomasi, 
 V. Barone, B. Mennucci, M. Cossi, G. Scalmani, N. Rega, 
 G. A. Petersson, H. Nakatsuji, M. Hada, M. Ehara, K. Toyota, 
 R. Fukuda, J. Hasegawa, M. Ishida, T. Nakajima, Y. Honda, O. Kitao, 
 H. Nakai, M. Klene, X. Li, J. E. Knox, H. P. Hratchian, J. B. Cross, 
 C. Adamo, J. Jaramillo, R. Gomperts, R. E. Stratmann, O. Yazyev, 
 A. J. Austin, R. Cammi, C. Pomelli, J. W. Ochterski, P. Y. Ayala, 
 K. Morokuma, G. A. Voth, P. Salvador, J. J. Dannenberg, 
 V. G. Zakrzewski, S. Dapprich, A. D. Daniels, M. C. Strain, 
 O. Farkas, D. K. Malick, A. D. Rabuck, K. Raghavachari, 
 J. B. Foresman, J. V. Ortiz, Q. Cui, A. G. Baboul, S. Clifford, 
 J. Cioslowski, B. B. Stefanov, G. Liu, A. Liashenko, P. Piskorz, 
 I. Komaromi, R. L. Martin, D. J. Fox, T. Keith, M. A. Al-Laham, 
 C. Y. Peng, A. Nanayakkara, M. Challacombe, P. M. W. Gill, 
 B. Johnson, W. Chen, M. W. Wong, C. Gonzalez, and J. A. Pople, 
 Gaussian, Inc., Pittsburgh PA, 2003.
 
 **********************************************
 Gaussian 03:  x86-Linux-G03RevB.05  8-Nov-2003
                  11-Apr-2009 
 **********************************************
 %chk=h2so4.chk
 ----------------------------------------------------------------------
 # b3lyp/6-31g* pop=(full,nboread) gfprint guess=read symm=(loose) geom
 =check iop(2/17=2,2/18=1)
 ----------------------------------------------------------------------
 1/29=2,38=1/1;
 2/17=2,18=1,40=1/2;
 3/5=1,6=6,7=1,11=2,16=1,24=100,25=1,30=1,74=-5/1,2,3;
 4/5=1/1;
 5/5=2,32=1,38=6/2;
 6/7=3,28=1,40=1/1,7;
 99/5=1,9=1/99;
 --------------------------------------
 InChI=1/H2O4S/c1-5(2,3)4/h(H2,1,2,3,4)
 --------------------------------------
 Redundant internal coordinates taken from checkpoint file:
 h2so4.chk
 Charge =  0 Multiplicity = 1
 S,0,0.,0.,0.1658968429
 O,0,-0.0052813617,1.2810374214,0.8373405041
 O,0,0.0052813617,-1.2810374214,0.8373405041
 O,0,-1.2609803682,0.0392124558,-0.863695078
 H,0,-1.4692225892,-0.8810043662,-1.1163381517
 O,0,1.2609803682,-0.0392124558,-0.863695078
 H,0,1.4692225892,0.8810043662,-1.1163381517
 Recover connectivity data from disk.
                          Input orientation:                          
 ---------------------------------------------------------------------
 Center     Atomic     Atomic              Coordinates (Angstroms)
 Number     Number      Type              X           Y           Z
 ---------------------------------------------------------------------
    1         16             0        0.000000    0.000000    0.165897
    2          8             0       -0.005281    1.281037    0.837341
    3          8             0        0.005281   -1.281037    0.837341
    4          8             0       -1.260980    0.039212   -0.863695
    5          1             0       -1.469223   -0.881004   -1.116338
    6          8             0        1.260980   -0.039212   -0.863695
    7          1             0        1.469223    0.881004   -1.116338
 ---------------------------------------------------------------------
                    Distance matrix (angstroms):
                    1          2          3          4          5
     1  S    0.000000
     2  O    1.446348   0.000000
     3  O    1.446348   2.562097   0.000000
     4  O    1.628394   2.452026   2.497999   0.000000
     5  H    2.139839   3.261044   2.480131   0.976725   0.000000
     6  O    1.628394   2.497999   2.452026   2.523180   2.868179
     7  H    2.139839   2.480131   3.261044   2.868179   3.426242
                    6          7
     6  O    0.000000
     7  H    0.976725   0.000000
 This structure is nearly, but not quite of a higher symmetry.
 Consider Symm=Loose if the higher symmetry is desired.
 Stoichiometry    H2O4S
 Framework group  C2[C2(S),X(H2O4)]
 Deg. of freedom     8
 Full point group                 C2      NOp   2
 Largest Abelian subgroup         C2      NOp   2
 Largest concise Abelian subgroup C2      NOp   2
                         Standard orientation:                         
 ---------------------------------------------------------------------
 Center     Atomic     Atomic              Coordinates (Angstroms)
 Number     Number      Type              X           Y           Z
 ---------------------------------------------------------------------
    1         16             0        0.000000    0.000000    0.165897
    2          8             0        0.000000    1.281048    0.837341
    3          8             0        0.000000   -1.281048    0.837341
    4          8             0       -1.260808    0.044411   -0.863695
    5          1             0       -1.472842   -0.874940   -1.116338
    6          8             0        1.260808   -0.044411   -0.863695
    7          1             0        1.472842    0.874940   -1.116338
 ---------------------------------------------------------------------
 Rotational constants (GHZ):      4.8915228      4.8002904      4.6225597
 Standard basis: 6-31G(d) (6D, 7F)
 AO basis set:
 Atom S1       Shell     1 S   6     bf    1 -     1          0.000000000000          0.000000000000          0.313499599593
      0.2191710000D+05  0.1869240849D-02
      0.3301490000D+04  0.1423030646D-01
      0.7541460000D+03  0.6969623166D-01
      0.2127110000D+03  0.2384871083D+00
      0.6798960000D+02  0.4833072195D+00
      0.2305150000D+02  0.3380741536D+00
 Atom S1       Shell     2 SP   6    bf    2 -     5          0.000000000000          0.000000000000          0.313499599593
      0.4237350000D+03 -0.2376770499D-02  0.4061009982D-02
      0.1007100000D+03 -0.3169300665D-01  0.3068129986D-01
      0.3215990000D+02 -0.1133170238D+00  0.1304519994D+00
      0.1180790000D+02  0.5609001177D-01  0.3272049985D+00
      0.4631100000D+01  0.5922551243D+00  0.4528509980D+00
      0.1870250000D+01  0.4550060955D+00  0.2560419989D+00
 Atom S1       Shell     3 SP   3    bf    6 -     9          0.000000000000          0.000000000000          0.313499599593
      0.2615840000D+01 -0.2503731142D+00 -0.1451048955D-01
      0.9221670000D+00  0.6695676310D-01  0.3102627765D+00
      0.3412870000D+00  0.1054506269D+01  0.7544824565D+00
 Atom S1       Shell     4 SP   1    bf   10 -    13          0.000000000000          0.000000000000          0.313499599593
      0.1171670000D+00  0.1000000000D+01  0.1000000000D+01
 Atom S1       Shell     5 D   1     bf   14 -    19          0.000000000000          0.000000000000          0.313499599593
      0.6500000000D+00  0.1000000000D+01
 Atom O2       Shell     6 S   6     bf   20 -    20          0.000000000000          2.420830466786          1.582344233551
      0.5484671660D+04  0.1831074430D-02
      0.8252349460D+03  0.1395017220D-01
      0.1880469580D+03  0.6844507810D-01
      0.5296450000D+02  0.2327143360D+00
      0.1689757040D+02  0.4701928980D+00
      0.5799635340D+01  0.3585208530D+00
 Atom O2       Shell     7 SP   3    bf   21 -    24          0.000000000000          2.420830466786          1.582344233551
      0.1553961625D+02 -0.1107775495D+00  0.7087426823D-01
      0.3599933586D+01 -0.1480262627D+00  0.3397528391D+00
      0.1013761750D+01  0.1130767015D+01  0.7271585773D+00
 Atom O2       Shell     8 SP   1    bf   25 -    28          0.000000000000          2.420830466786          1.582344233551
      0.2700058226D+00  0.1000000000D+01  0.1000000000D+01
 Atom O2       Shell     9 D   1     bf   29 -    34          0.000000000000          2.420830466786          1.582344233551
      0.8000000000D+00  0.1000000000D+01
 Atom O3       Shell    10 S   6     bf   35 -    35          0.000000000000         -2.420830466786          1.582344233551
      0.5484671660D+04  0.1831074430D-02
      0.8252349460D+03  0.1395017220D-01
      0.1880469580D+03  0.6844507810D-01
      0.5296450000D+02  0.2327143360D+00
      0.1689757040D+02  0.4701928980D+00
      0.5799635340D+01  0.3585208530D+00
 Atom O3       Shell    11 SP   3    bf   36 -    39          0.000000000000         -2.420830466786          1.582344233551
      0.1553961625D+02 -0.1107775495D+00  0.7087426823D-01
      0.3599933586D+01 -0.1480262627D+00  0.3397528391D+00
      0.1013761750D+01  0.1130767015D+01  0.7271585773D+00
 Atom O3       Shell    12 SP   1    bf   40 -    43          0.000000000000         -2.420830466786          1.582344233551
      0.2700058226D+00  0.1000000000D+01  0.1000000000D+01
 Atom O3       Shell    13 D   1     bf   44 -    49          0.000000000000         -2.420830466786          1.582344233551
      0.8000000000D+00  0.1000000000D+01
 Atom O4       Shell    14 S   6     bf   50 -    50         -2.382581811024          0.083924155732         -1.632147160690
      0.5484671660D+04  0.1831074430D-02
      0.8252349460D+03  0.1395017220D-01
      0.1880469580D+03  0.6844507810D-01
      0.5296450000D+02  0.2327143360D+00
      0.1689757040D+02  0.4701928980D+00
      0.5799635340D+01  0.3585208530D+00
 Atom O4       Shell    15 SP   3    bf   51 -    54         -2.382581811024          0.083924155732         -1.632147160690
      0.1553961625D+02 -0.1107775495D+00  0.7087426823D-01
      0.3599933586D+01 -0.1480262627D+00  0.3397528391D+00
      0.1013761750D+01  0.1130767015D+01  0.7271585773D+00
 Atom O4       Shell    16 SP   1    bf   55 -    58         -2.382581811024          0.083924155732         -1.632147160690
      0.2700058226D+00  0.1000000000D+01  0.1000000000D+01
 Atom O4       Shell    17 D   1     bf   59 -    64         -2.382581811024          0.083924155732         -1.632147160690
      0.8000000000D+00  0.1000000000D+01
 Atom H5       Shell    18 S   3     bf   65 -    65         -2.783268413291         -1.653396480416         -2.109573379634
      0.1873113696D+02  0.3349460434D-01
      0.2825394365D+01  0.2347269535D+00
      0.6401216923D+00  0.8137573261D+00
 Atom H5       Shell    19 S   1     bf   66 -    66         -2.783268413291         -1.653396480416         -2.109573379634
      0.1612777588D+00  0.1000000000D+01
 Atom O6       Shell    20 S   6     bf   67 -    67          2.382581811024         -0.083924155732         -1.632147160690
      0.5484671660D+04  0.1831074430D-02
      0.8252349460D+03  0.1395017220D-01
      0.1880469580D+03  0.6844507810D-01
      0.5296450000D+02  0.2327143360D+00
      0.1689757040D+02  0.4701928980D+00
      0.5799635340D+01  0.3585208530D+00
 Atom O6       Shell    21 SP   3    bf   68 -    71          2.382581811024         -0.083924155732         -1.632147160690
      0.1553961625D+02 -0.1107775495D+00  0.7087426823D-01
      0.3599933586D+01 -0.1480262627D+00  0.3397528391D+00
      0.1013761750D+01  0.1130767015D+01  0.7271585773D+00
 Atom O6       Shell    22 SP   1    bf   72 -    75          2.382581811024         -0.083924155732         -1.632147160690
      0.2700058226D+00  0.1000000000D+01  0.1000000000D+01
 Atom O6       Shell    23 D   1     bf   76 -    81          2.382581811024         -0.083924155732         -1.632147160690
      0.8000000000D+00  0.1000000000D+01
 Atom H7       Shell    24 S   3     bf   82 -    82          2.783268413291          1.653396480416         -2.109573379634
      0.1873113696D+02  0.3349460434D-01
      0.2825394365D+01  0.2347269535D+00
      0.6401216923D+00  0.8137573261D+00
 Atom H7       Shell    25 S   1     bf   83 -    83          2.783268413291          1.653396480416         -2.109573379634
      0.1612777588D+00  0.1000000000D+01
 There are    43 symmetry adapted basis functions of A   symmetry.
 There are    40 symmetry adapted basis functions of B   symmetry.
 Integral buffers will be    262144 words long.
 Raffenetti 2 integral format.
 Two-electron integral symmetry is turned on.
    83 basis functions,   172 primitive gaussians,    83 cartesian basis functions
    25 alpha electrons       25 beta electrons
       nuclear repulsion energy       283.9344685534 Hartrees.
 NAtoms=    7 NActive=    7 NUniq=    4 SFac= 4.05D+00 NAtFMM=   60 Big=F
 One-electron integrals computed using PRISM.
 NBasis=    83 RedAO= T  NBF=    43    40
 NBsUse=    83 1.00D-06 NBFU=    43    40
 Initial guess read from the checkpoint file:
 h2so4.chk
 Initial guess orbital symmetries:
       Occupied  (A) (B) (A) (B) (A) (A) (B) (A) (B) (A) (B) (A)
                 (B) (A) (B) (A) (B) (A) (B) (A) (B) (A) (A) (B)
                 (B)
       Virtual   (A) (B) (A) (B) (A) (B) (A) (B) (A) (B) (A) (A)
                 (B) (A) (B) (A) (A) (A) (B) (B) (A) (B) (B) (A)
                 (B) (A) (B) (B) (A) (A) (B) (B) (A) (A) (B) (A)
                 (B) (B) (A) (B) (A) (B) (A) (B) (B) (A) (A) (B)
                 (A) (A) (B) (A) (B) (A) (B) (B) (A) (A)
 Warning!  Cutoffs for single-point calculations used.
 Requested convergence on RMS density matrix=1.00D-04 within 128 cycles.
 Requested convergence on MAX density matrix=1.00D-02.
 Requested convergence on             energy=5.00D-05.
 No special actions if energy rises.
 SCF Done:  E(RB+HF-LYP) =  -700.203051940     A.U. after    1 cycles
             Convg  =    0.7694D-05             -V/T =  2.0059
             S**2   =   0.0000

 **********************************************************************

            Population analysis using the SCF density.

 **********************************************************************

 Orbital symmetries:
       Occupied  (A) (B) (A) (B) (A) (A) (B) (A) (B) (A) (B) (A)
                 (B) (A) (B) (A) (B) (A) (B) (A) (B) (A) (A) (B)
                 (B)
       Virtual   (A) (B) (A) (B) (A) (B) (A) (B) (A) (B) (A) (A)
                 (B) (A) (B) (A) (A) (A) (B) (B) (A) (B) (B) (A)
                 (B) (A) (B) (B) (A) (A) (B) (B) (A) (A) (B) (A)
                 (B) (B) (A) (B) (A) (B) (A) (B) (B) (A) (A) (B)
                 (A) (A) (B) (A) (B) (A) (B) (B) (A) (A)
 The electronic state is 1-A.
 Alpha  occ. eigenvalues --  -89.18674 -19.23401 -19.23401 -19.18305 -19.18304
 Alpha  occ. eigenvalues --   -8.20544  -6.17116  -6.17035  -6.16869  -1.19856
 Alpha  occ. eigenvalues --   -1.08144  -1.06179  -1.04894  -0.70196  -0.62544
 Alpha  occ. eigenvalues --   -0.53935  -0.51777  -0.48802  -0.45236  -0.41597
 Alpha  occ. eigenvalues --   -0.38893  -0.38305  -0.34690  -0.34501  -0.33466
 Alpha virt. eigenvalues --    0.00279   0.04569   0.07705   0.07742   0.08494
 Alpha virt. eigenvalues --    0.14134   0.30855   0.32102   0.35972   0.39603
 Alpha virt. eigenvalues --    0.56730   0.58331   0.72346   0.75427   0.77219
 Alpha virt. eigenvalues --    0.78898   0.85755   0.86693   0.88036   0.93283
 Alpha virt. eigenvalues --    0.95743   0.97469   0.99198   1.03306   1.07811
 Alpha virt. eigenvalues --    1.10883   1.14263   1.16652   1.19355   1.33095
 Alpha virt. eigenvalues --    1.35099   1.41033   1.62167   1.66865   1.68029
 Alpha virt. eigenvalues --    1.69984   1.72052   1.74776   1.76907   1.76964
 Alpha virt. eigenvalues --    1.78462   1.80575   1.99262   2.05354   2.08275
 Alpha virt. eigenvalues --    2.12515   2.22290   2.27926   2.30820   2.46818
 Alpha virt. eigenvalues --    2.53308   2.76133   2.78986   3.60430   3.60725
 Alpha virt. eigenvalues --    3.84178   3.85982   3.98930
     Molecular Orbital Coefficients
                           1         2         3         4         5
                        (A)--O    (B)--O    (A)--O    (B)--O    (A)--O
     EIGENVALUES --   -89.18674 -19.23401 -19.23401 -19.18305 -19.18304
   1 1   S  1S          0.99613   0.00000   0.00001   0.00000   0.00002
   2        2S          0.01485   0.00000   0.00001   0.00000  -0.00009
   3        2PX         0.00000   0.00008   0.00000   0.00000   0.00000
   4        2PY         0.00000  -0.00001   0.00000   0.00002   0.00000
   5        2PZ        -0.00004   0.00000   0.00007   0.00000   0.00002
   6        3S         -0.02419   0.00000   0.00006   0.00000   0.00106
   7        3PX         0.00000  -0.00022   0.00000   0.00001   0.00000
   8        3PY         0.00000   0.00002   0.00000   0.00030   0.00000
   9        3PZ         0.00007   0.00000  -0.00023   0.00000   0.00008
  10        4S          0.00161   0.00000  -0.00395   0.00000  -0.00396
  11        4PX         0.00000   0.00101   0.00000  -0.00008   0.00000
  12        4PY         0.00000  -0.00150   0.00000  -0.00293   0.00000
  13        4PZ         0.00007   0.00000   0.00140   0.00000  -0.00077
  14        5XX         0.00855   0.00000   0.00034   0.00000  -0.00027
  15        5YY         0.00863   0.00000  -0.00004   0.00000  -0.00023
  16        5ZZ         0.00858   0.00000   0.00027   0.00000  -0.00030
  17        5XY        -0.00001   0.00000   0.00000   0.00000   0.00000
  18        5XZ         0.00000   0.00031   0.00000   0.00001   0.00000
  19        5YZ         0.00000  -0.00005   0.00000   0.00007   0.00000
  20 2   O  1S          0.00001   0.00000  -0.00006   0.70198   0.70200
  21        2S         -0.00002  -0.00021  -0.00016   0.01820   0.01826
  22        2PX         0.00000   0.00002  -0.00003   0.00001   0.00001
  23        2PY         0.00012   0.00000  -0.00003  -0.00067  -0.00064
  24        2PZ         0.00006   0.00001   0.00002  -0.00031  -0.00040
  25        3S          0.00048   0.00125   0.00113   0.00880   0.00848
  26        3PX         0.00000  -0.00013   0.00009   0.00001   0.00000
  27        3PY        -0.00029  -0.00010  -0.00019  -0.00011  -0.00050
  28        3PZ        -0.00016  -0.00016  -0.00033  -0.00040  -0.00007
  29        4XX         0.00004  -0.00016  -0.00016  -0.00573  -0.00565
  30        4YY        -0.00017  -0.00016  -0.00009  -0.00572  -0.00561
  31        4ZZ        -0.00002  -0.00015  -0.00011  -0.00569  -0.00566
  32        4XY         0.00000   0.00000  -0.00001   0.00000   0.00000
  33        4XZ         0.00000  -0.00008  -0.00003   0.00000   0.00000
  34        4YZ        -0.00013   0.00000   0.00000   0.00000   0.00004
  35 3   O  1S          0.00001   0.00000  -0.00006  -0.70198   0.70200
  36        2S         -0.00002   0.00021  -0.00016  -0.01820   0.01826
  37        2PX         0.00000   0.00002   0.00003   0.00001  -0.00001
  38        2PY        -0.00012   0.00000   0.00003  -0.00067   0.00064
  39        2PZ         0.00006  -0.00001   0.00002   0.00031  -0.00040
  40        3S          0.00048  -0.00125   0.00113  -0.00880   0.00848
  41        3PX         0.00000  -0.00013  -0.00009   0.00001   0.00000
  42        3PY         0.00029  -0.00010   0.00019  -0.00011   0.00050
  43        3PZ        -0.00016   0.00016  -0.00033   0.00040  -0.00007
  44        4XX         0.00004   0.00016  -0.00016   0.00573  -0.00565
  45        4YY        -0.00017   0.00016  -0.00009   0.00572  -0.00561
  46        4ZZ        -0.00002   0.00015  -0.00011   0.00569  -0.00566
  47        4XY         0.00000   0.00000  -0.00001   0.00000   0.00000
  48        4XZ         0.00000  -0.00008   0.00003   0.00000   0.00000
  49        4YZ         0.00013   0.00000   0.00000   0.00000  -0.00004
  50 4   O  1S         -0.00002   0.70200   0.70197  -0.00007  -0.00003
  51        2S         -0.00004   0.01842   0.01828  -0.00006  -0.00016
  52        2PX         0.00000   0.00029   0.00026   0.00001   0.00000
  53        2PY         0.00002  -0.00064  -0.00064  -0.00005   0.00001
  54        2PZ         0.00000   0.00016   0.00015   0.00001  -0.00001
  55        3S          0.00071   0.00791   0.00881   0.00036   0.00102
  56        3PX         0.00023   0.00005   0.00051  -0.00002   0.00015
  57        3PY        -0.00014   0.00030   0.00017   0.00034  -0.00005
  58        3PZ         0.00017   0.00009   0.00028  -0.00006   0.00020
  59        4XX        -0.00015  -0.00564  -0.00575  -0.00006  -0.00010
  60        4YY         0.00000  -0.00573  -0.00573  -0.00008  -0.00017
  61        4ZZ        -0.00012  -0.00568  -0.00573  -0.00007  -0.00013
  62        4XY         0.00002   0.00003   0.00000   0.00003   0.00000
  63        4XZ        -0.00009  -0.00006   0.00001  -0.00001  -0.00003
  64        4YZ         0.00002   0.00002  -0.00002  -0.00004  -0.00001
  65 5   H  1S         -0.00010   0.00035   0.00027   0.00008  -0.00001
  66        2S         -0.00014  -0.00092  -0.00041  -0.00032  -0.00004
  67 6   O  1S         -0.00002  -0.70200   0.70197   0.00007  -0.00003
  68        2S         -0.00004  -0.01842   0.01828   0.00006  -0.00016
  69        2PX         0.00000   0.00029  -0.00026   0.00001   0.00000
  70        2PY        -0.00002  -0.00064   0.00064  -0.00005  -0.00001
  71        2PZ         0.00000  -0.00016   0.00015  -0.00001  -0.00001
  72        3S          0.00071  -0.00791   0.00881  -0.00036   0.00102
  73        3PX        -0.00023   0.00005  -0.00051  -0.00002  -0.00015
  74        3PY         0.00014   0.00030  -0.00017   0.00034   0.00005
  75        3PZ         0.00017  -0.00009   0.00028   0.00006   0.00020
  76        4XX        -0.00015   0.00564  -0.00575   0.00006  -0.00010
  77        4YY         0.00000   0.00573  -0.00573   0.00008  -0.00017
  78        4ZZ        -0.00012   0.00568  -0.00573   0.00007  -0.00013
  79        4XY         0.00002  -0.00003   0.00000  -0.00003   0.00000
  80        4XZ         0.00009  -0.00006  -0.00001  -0.00001   0.00003
  81        4YZ        -0.00002   0.00002   0.00002  -0.00004   0.00001
  82 7   H  1S         -0.00010  -0.00035   0.00027  -0.00008  -0.00001
  83        2S         -0.00014   0.00092  -0.00041   0.00032  -0.00004
                           6         7         8         9        10
                        (A)--O    (B)--O    (A)--O    (B)--O    (A)--O
     EIGENVALUES --    -8.20544  -6.17116  -6.17035  -6.16869  -1.19856
   1 1   S  1S         -0.27996   0.00000  -0.00124   0.00000   0.05172
   2        2S          1.02315   0.00000   0.00484   0.00000  -0.23229
   3        2PX         0.00000   0.98870   0.00000   0.07053   0.00000
   4        2PY         0.00000  -0.07052   0.00000   0.98832   0.00000
   5        2PZ        -0.00422   0.00000   0.99114   0.00000   0.00110
   6        3S          0.07061   0.00000   0.00014   0.00000   0.47821
   7        3PX         0.00000   0.03044   0.00000   0.00224   0.00000
   8        3PY         0.00000  -0.00230   0.00000   0.03244   0.00000
   9        3PZ        -0.00038   0.00000   0.03089   0.00000  -0.00780
  10        4S         -0.00527   0.00000  -0.00176   0.00000  -0.05154
  11        4PX         0.00000  -0.00462   0.00000  -0.00082   0.00000
  12        4PY         0.00000  -0.00030   0.00000  -0.00217   0.00000
  13        4PZ         0.00026   0.00000  -0.00370   0.00000   0.00955
  14        5XX        -0.01452   0.00000  -0.00123   0.00000  -0.02122
  15        5YY        -0.01380   0.00000   0.00245   0.00000   0.00631
  16        5ZZ        -0.01444   0.00000  -0.00057   0.00000  -0.01581
  17        5XY         0.00003   0.00000   0.00002   0.00000   0.00171
  18        5XZ         0.00000  -0.00244   0.00000  -0.00009   0.00000
  19        5YZ         0.00000  -0.00013   0.00000   0.00153   0.00000
  20 2   O  1S         -0.00003   0.00001  -0.00020  -0.00031  -0.08130
  21        2S          0.00080  -0.00014   0.00033   0.00100   0.17328
  22        2PX         0.00000  -0.00001   0.00000  -0.00001   0.00059
  23        2PY        -0.00037   0.00004  -0.00025  -0.00044  -0.07679
  24        2PZ        -0.00015   0.00003  -0.00006  -0.00032  -0.04347
  25        3S         -0.00498   0.00084  -0.00233  -0.00670   0.16281
  26        3PX        -0.00003  -0.00084   0.00001   0.00000   0.00116
  27        3PY         0.00311  -0.00031   0.00260   0.00370  -0.03014
  28        3PZ         0.00156  -0.00025   0.00023   0.00284  -0.01946
  29        4XX         0.00047  -0.00007   0.00013   0.00037  -0.00520
  30        4YY         0.00051  -0.00010  -0.00036   0.00084   0.01105
  31        4ZZ         0.00042  -0.00006   0.00055   0.00017  -0.00083
  32        4XY         0.00000   0.00060   0.00000   0.00003   0.00003
  33        4XZ         0.00001   0.00032   0.00000   0.00003  -0.00027
  34        4YZ        -0.00002   0.00001   0.00030  -0.00006   0.00979
  35 3   O  1S         -0.00003  -0.00001  -0.00020   0.00031  -0.08130
  36        2S          0.00080   0.00014   0.00033  -0.00100   0.17328
  37        2PX         0.00000  -0.00001   0.00000  -0.00001  -0.00059
  38        2PY         0.00037   0.00004   0.00025  -0.00044   0.07679
  39        2PZ        -0.00015  -0.00003  -0.00006   0.00032  -0.04347
  40        3S         -0.00498  -0.00084  -0.00233   0.00670   0.16281
  41        3PX         0.00003  -0.00084  -0.00001   0.00000  -0.00116
  42        3PY        -0.00311  -0.00031  -0.00260   0.00370   0.03014
  43        3PZ         0.00156   0.00025   0.00023  -0.00284  -0.01946
  44        4XX         0.00047   0.00007   0.00013  -0.00037  -0.00520
  45        4YY         0.00051   0.00010  -0.00036  -0.00084   0.01105
  46        4ZZ         0.00042   0.00006   0.00055  -0.00017  -0.00083
  47        4XY         0.00000  -0.00060   0.00000  -0.00003   0.00003
  48        4XZ        -0.00001   0.00032   0.00000   0.00003   0.00027
  49        4YZ         0.00002   0.00001  -0.00030  -0.00006  -0.00979
  50 4   O  1S          0.00012  -0.00004  -0.00007  -0.00010  -0.08653
  51        2S          0.00082  -0.00101  -0.00097  -0.00043   0.18555
  52        2PX        -0.00001  -0.00001  -0.00003   0.00001   0.04629
  53        2PY        -0.00012   0.00008   0.00005   0.00020  -0.03265
  54        2PZ         0.00000   0.00003  -0.00001   0.00004   0.03323
  55        3S         -0.00427   0.00439   0.00444   0.00189   0.19021
  56        3PX        -0.00193   0.00254   0.00277  -0.00011   0.03113
  57        3PY         0.00078  -0.00059  -0.00050  -0.00196  -0.01457
  58        3PZ        -0.00156   0.00238   0.00153  -0.00022   0.02097
  59        4XX         0.00021  -0.00030   0.00046  -0.00042   0.00549
  60        4YY         0.00047  -0.00056  -0.00046  -0.00005   0.00284
  61        4ZZ         0.00039   0.00022  -0.00083  -0.00038   0.00086
  62        4XY        -0.00004   0.00008   0.00001  -0.00062  -0.00072
  63        4XZ        -0.00045   0.00091   0.00052   0.00005   0.01058
  64        4YZ        -0.00005   0.00007   0.00005  -0.00040   0.00035
  65 5   H  1S          0.00041  -0.00043  -0.00044  -0.00057   0.04455
  66        2S          0.00088  -0.00076  -0.00029  -0.00123   0.00505
  67 6   O  1S          0.00012   0.00004  -0.00007   0.00010  -0.08653
  68        2S          0.00082   0.00101  -0.00097   0.00043   0.18555
  69        2PX         0.00001  -0.00001   0.00003   0.00001  -0.04629
  70        2PY         0.00012   0.00008  -0.00005   0.00020   0.03265
  71        2PZ         0.00000  -0.00003  -0.00001  -0.00004   0.03323
  72        3S         -0.00427  -0.00439   0.00444  -0.00189   0.19021
  73        3PX         0.00193   0.00254  -0.00277  -0.00011  -0.03113
  74        3PY        -0.00078  -0.00059   0.00050  -0.00196   0.01457
  75        3PZ        -0.00156  -0.00238   0.00153   0.00022   0.02097
  76        4XX         0.00021   0.00030   0.00046   0.00042   0.00549
  77        4YY         0.00047   0.00056  -0.00046   0.00005   0.00284
  78        4ZZ         0.00039  -0.00022  -0.00083   0.00038   0.00086
  79        4XY        -0.00004  -0.00008   0.00001   0.00062  -0.00072
  80        4XZ         0.00045   0.00091  -0.00052   0.00005  -0.01058
  81        4YZ         0.00005   0.00007  -0.00005  -0.00040  -0.00035
  82 7   H  1S          0.00041   0.00043  -0.00044   0.00057   0.04455
  83        2S          0.00088   0.00076  -0.00029   0.00123   0.00505
                          11        12        13        14        15
                        (B)--O    (A)--O    (B)--O    (A)--O    (B)--O
     EIGENVALUES --    -1.08144  -1.06179  -1.04894  -0.70196  -0.62544
   1 1   S  1S          0.00000  -0.01558   0.00000   0.04340   0.00000
   2        2S          0.00000   0.06955   0.00000  -0.18828   0.00000
   3        2PX         0.07458   0.00000   0.00860   0.00000  -0.15252
   4        2PY         0.01605   0.00000  -0.14411   0.00000   0.03059
   5        2PZ         0.00000   0.09476   0.00000   0.09370   0.00000
   6        3S          0.00000  -0.15679   0.00000   0.48069   0.00000
   7        3PX        -0.16322   0.00000  -0.01940   0.00000   0.39315
   8        3PY        -0.03567   0.00000   0.32399   0.00000  -0.08265
   9        3PZ         0.00000  -0.20867   0.00000  -0.23730   0.00000
  10        4S          0.00000   0.01015   0.00000   0.07032   0.00000
  11        4PX         0.01665   0.00000  -0.00214   0.00000   0.03745
  12        4PY        -0.00298   0.00000  -0.02691   0.00000  -0.02469
  13        4PZ         0.00000   0.01681   0.00000  -0.00930   0.00000
  14        5XX         0.00000   0.05673   0.00000   0.01829   0.00000
  15        5YY         0.00000  -0.06236   0.00000  -0.04931   0.00000
  16        5ZZ         0.00000   0.02667   0.00000   0.00099   0.00000
  17        5XY         0.00000   0.00164   0.00000  -0.01477   0.00000
  18        5XZ         0.05230   0.00000   0.00673   0.00000  -0.04486
  19        5YZ        -0.00476   0.00000   0.07004   0.00000   0.03039
  20 2   O  1S          0.01353   0.09619  -0.14444   0.07095  -0.02006
  21        2S         -0.03070  -0.21396   0.32252  -0.16102   0.04240
  22        2PX        -0.01152  -0.00004  -0.00050  -0.00907   0.08676
  23        2PY         0.00926   0.07486  -0.09639  -0.03867   0.00962
  24        2PZ         0.00663   0.02891  -0.06057  -0.05184   0.03247
  25        3S         -0.02220  -0.19158   0.28091  -0.20576   0.08074
  26        3PX        -0.00591  -0.00063   0.00155  -0.00533   0.04332
  27        3PY         0.00114   0.02350  -0.01984  -0.01883  -0.00275
  28        3PZ         0.00157   0.00850  -0.01715  -0.02138   0.01327
  29        4XX         0.00024   0.00324  -0.00460   0.00063  -0.00143
  30        4YY        -0.00078  -0.00761   0.00617   0.00458  -0.00163
  31        4ZZ        -0.00027   0.00196   0.00110   0.00469  -0.00343
  32        4XY         0.00100   0.00015  -0.00001  -0.00021  -0.00757
  33        4XZ         0.00079   0.00022  -0.00032   0.00040  -0.00405
  34        4YZ        -0.00079  -0.00515   0.00896   0.00533  -0.00114
  35 3   O  1S         -0.01353   0.09619   0.14444   0.07095   0.02006
  36        2S          0.03070  -0.21396  -0.32252  -0.16102  -0.04240
  37        2PX        -0.01152   0.00004  -0.00050   0.00907   0.08676
  38        2PY         0.00926  -0.07486  -0.09639   0.03867   0.00962
  39        2PZ        -0.00663   0.02891   0.06057  -0.05184  -0.03247
  40        3S          0.02220  -0.19158  -0.28091  -0.20576  -0.08074
  41        3PX        -0.00591   0.00063   0.00155   0.00533   0.04332
  42        3PY         0.00114  -0.02350  -0.01984   0.01883  -0.00275
  43        3PZ        -0.00157   0.00850   0.01715  -0.02138  -0.01327
  44        4XX        -0.00024   0.00324   0.00460   0.00063   0.00143
  45        4YY         0.00078  -0.00761  -0.00617   0.00458   0.00163
  46        4ZZ         0.00027   0.00196  -0.00110   0.00469   0.00343
  47        4XY        -0.00100   0.00015   0.00001  -0.00021   0.00757
  48        4XZ         0.00079  -0.00022  -0.00032  -0.00040  -0.00405
  49        4YZ        -0.00079   0.00515   0.00896  -0.00533  -0.00114
  50 4   O  1S         -0.14896  -0.11207  -0.01728   0.04170  -0.00356
  51        2S          0.33460   0.25474   0.03718  -0.09847   0.00673
  52        2PX         0.03227   0.02543   0.00570   0.19000  -0.16495
  53        2PY        -0.07299  -0.05618   0.00916   0.13158  -0.20590
  54        2PZ         0.02631   0.00364   0.00519   0.13651  -0.20845
  55        3S          0.32254   0.23937   0.04390  -0.11582   0.01173
  56        3PX         0.01787   0.01112  -0.00010   0.09474  -0.07841
  57        3PY        -0.03555  -0.02809  -0.00075   0.06691  -0.11127
  58        3PZ         0.01349  -0.00075  -0.00129   0.06530  -0.10675
  59        4XX         0.00224   0.00146  -0.00043   0.01233  -0.00852
  60        4YY         0.01191   0.01030   0.00001  -0.01853   0.02014
  61        4ZZ        -0.00079  -0.00071  -0.00089   0.00432  -0.00989
  62        4XY         0.00150   0.00129   0.00066  -0.00729   0.00198
  63        4XZ         0.00877   0.00434   0.00092   0.00736  -0.00808
  64        4YZ         0.00284   0.00303   0.00095  -0.00658   0.00778
  65 5   H  1S          0.09643   0.07446   0.00281  -0.12956   0.15379
  66        2S         -0.00129  -0.00101  -0.01052  -0.04272   0.06314
  67 6   O  1S          0.14896  -0.11207   0.01728   0.04170   0.00356
  68        2S         -0.33460   0.25474  -0.03718  -0.09847  -0.00673
  69        2PX         0.03227  -0.02543   0.00570  -0.19000  -0.16495
  70        2PY        -0.07299   0.05618   0.00916  -0.13158  -0.20590
  71        2PZ        -0.02631   0.00364  -0.00519   0.13651   0.20845
  72        3S         -0.32254   0.23937  -0.04390  -0.11582  -0.01173
  73        3PX         0.01787  -0.01112  -0.00010  -0.09474  -0.07841
  74        3PY        -0.03555   0.02809  -0.00075  -0.06691  -0.11127
  75        3PZ        -0.01349  -0.00075   0.00129   0.06530   0.10675
  76        4XX        -0.00224   0.00146   0.00043   0.01233   0.00852
  77        4YY        -0.01191   0.01030  -0.00001  -0.01853  -0.02014
  78        4ZZ         0.00079  -0.00071   0.00089   0.00432   0.00989
  79        4XY        -0.00150   0.00129  -0.00066  -0.00729  -0.00198
  80        4XZ         0.00877  -0.00434   0.00092  -0.00736  -0.00808
  81        4YZ         0.00284  -0.00303   0.00095   0.00658   0.00778
  82 7   H  1S         -0.09643   0.07446  -0.00281  -0.12956  -0.15379
  83        2S          0.00129  -0.00101   0.01052  -0.04272  -0.06314
                          16        17        18        19        20
                        (A)--O    (B)--O    (A)--O    (B)--O    (A)--O
     EIGENVALUES --    -0.53935  -0.51777  -0.48802  -0.45236  -0.41597
   1 1   S  1S          0.02867   0.00000  -0.00644   0.00000  -0.00258
   2        2S         -0.12000   0.00000   0.02994   0.00000   0.01169
   3        2PX         0.00000  -0.09541   0.00000   0.05139   0.00000
   4        2PY         0.00000  -0.11850   0.00000  -0.12032   0.00000
   5        2PZ        -0.13307   0.00000  -0.08794   0.00000   0.02652
   6        3S          0.34995   0.00000  -0.06693   0.00000  -0.03118
   7        3PX         0.00000   0.25237   0.00000  -0.13879   0.00000
   8        3PY         0.00000   0.32438   0.00000   0.33474   0.00000
   9        3PZ         0.35332   0.00000   0.23858   0.00000  -0.07346
  10        4S          0.02818   0.00000  -0.02505   0.00000  -0.03215
  11        4PX         0.00000   0.05547   0.00000  -0.05843   0.00000
  12        4PY         0.00000   0.11089   0.00000  -0.08901   0.00000
  13        4PZ         0.05737   0.00000   0.08358   0.00000   0.06760
  14        5XX        -0.01542   0.00000   0.02342   0.00000   0.09634
  15        5YY        -0.00522   0.00000  -0.02245   0.00000  -0.00578
  16        5ZZ        -0.01404   0.00000  -0.00027   0.00000  -0.08354
  17        5XY         0.02580   0.00000  -0.06623   0.00000   0.02100
  18        5XZ         0.00000   0.00165   0.00000  -0.02668   0.00000
  19        5YZ         0.00000  -0.03145   0.00000   0.07154   0.00000
  20 2   O  1S          0.07825   0.05798   0.00936   0.04591  -0.00711
  21        2S         -0.17195  -0.11635  -0.01451  -0.10299   0.01008
  22        2PX         0.02164   0.10149  -0.08037  -0.10658   0.04039
  23        2PY        -0.26083  -0.12155  -0.08226  -0.27403   0.12330
  24        2PZ        -0.01420  -0.15778   0.08192  -0.14889  -0.05484
  25        3S         -0.29679  -0.27851  -0.06160  -0.16016   0.03469
  26        3PX         0.01573   0.05703  -0.06301  -0.06499   0.03368
  27        3PY        -0.12569  -0.03947  -0.03725  -0.13993   0.08035
  28        3PZ         0.00347  -0.07616   0.05019  -0.07935  -0.06124
  29        4XX         0.00127   0.00470   0.00372  -0.00392   0.00247
  30        4YY         0.02245   0.00951   0.01122   0.01040  -0.01251
  31        4ZZ        -0.00267   0.01369  -0.00389   0.00302   0.00253
  32        4XY        -0.00126  -0.00863   0.00410   0.00765  -0.00235
  33        4XZ        -0.00132  -0.00433   0.00536   0.00363  -0.00241
  34        4YZ         0.00427   0.00976  -0.00321   0.01185   0.00332
  35 3   O  1S          0.07825  -0.05798   0.00936  -0.04591  -0.00711
  36        2S         -0.17195   0.11635  -0.01451   0.10299   0.01008
  37        2PX        -0.02164   0.10149   0.08037  -0.10658  -0.04039
  38        2PY         0.26083  -0.12155   0.08226  -0.27403  -0.12330
  39        2PZ        -0.01420   0.15778   0.08192   0.14889  -0.05484
  40        3S         -0.29679   0.27851  -0.06160   0.16016   0.03469
  41        3PX        -0.01573   0.05703   0.06301  -0.06499  -0.03368
  42        3PY         0.12569  -0.03947   0.03725  -0.13993  -0.08035
  43        3PZ         0.00347   0.07616   0.05019   0.07935  -0.06124
  44        4XX         0.00127  -0.00470   0.00372   0.00392   0.00247
  45        4YY         0.02245  -0.00951   0.01122  -0.01040  -0.01251
  46        4ZZ        -0.00267  -0.01369  -0.00389  -0.00302   0.00253
  47        4XY        -0.00126   0.00863   0.00410  -0.00765  -0.00235
  48        4XZ         0.00132  -0.00433  -0.00536   0.00363   0.00241
  49        4YZ        -0.00427   0.00976   0.00321   0.01185  -0.00332
  50 4   O  1S          0.01531  -0.04537  -0.06182   0.03720   0.00235
  51        2S         -0.03990   0.10322   0.13183  -0.08116  -0.00594
  52        2PX        -0.12098  -0.06472  -0.14901  -0.01587  -0.18294
  53        2PY        -0.14688   0.20937   0.30909  -0.20621  -0.06688
  54        2PZ         0.00311  -0.12723   0.03863   0.06121   0.36722
  55        3S         -0.03589   0.17310   0.26887  -0.16886   0.00790
  56        3PX        -0.06552  -0.03822  -0.09093  -0.01200  -0.13815
  57        3PY        -0.09327   0.12481   0.20172  -0.12093  -0.04811
  58        3PZ         0.01394  -0.07750   0.02758   0.03866   0.28029
  59        4XX        -0.01031   0.00264  -0.00661  -0.00343  -0.01515
  60        4YY         0.00942  -0.01127  -0.02458   0.01502   0.00425
  61        4ZZ         0.00032  -0.00150   0.00510   0.00161   0.01235
  62        4XY         0.00155   0.01288   0.01570  -0.00323   0.00564
  63        4XZ         0.00031  -0.00281   0.00064   0.00012   0.00926
  64        4YZ        -0.00250   0.01059   0.00602  -0.00331  -0.01778
  65 5   H  1S          0.07824  -0.05272  -0.11508   0.08943   0.00162
  66        2S          0.03241  -0.02139  -0.06870   0.05176   0.00882
  67 6   O  1S          0.01531   0.04537  -0.06182  -0.03720   0.00235
  68        2S         -0.03990  -0.10322   0.13183   0.08116  -0.00594
  69        2PX         0.12098  -0.06472   0.14901  -0.01587   0.18294
  70        2PY         0.14688   0.20937  -0.30909  -0.20621   0.06688
  71        2PZ         0.00311   0.12723   0.03863  -0.06121   0.36722
  72        3S         -0.03589  -0.17310   0.26887   0.16886   0.00790
  73        3PX         0.06552  -0.03822   0.09093  -0.01200   0.13815
  74        3PY         0.09327   0.12481  -0.20172  -0.12093   0.04811
  75        3PZ         0.01394   0.07750   0.02758  -0.03866   0.28029
  76        4XX        -0.01031  -0.00264  -0.00661   0.00343  -0.01515
  77        4YY         0.00942   0.01127  -0.02458  -0.01502   0.00425
  78        4ZZ         0.00032   0.00150   0.00510  -0.00161   0.01235
  79        4XY         0.00155  -0.01288   0.01570   0.00323   0.00564
  80        4XZ        -0.00031  -0.00281  -0.00064   0.00012  -0.00926
  81        4YZ         0.00250   0.01059  -0.00602  -0.00331   0.01778
  82 7   H  1S          0.07824   0.05272  -0.11508  -0.08943   0.00162
  83        2S          0.03241   0.02139  -0.06870  -0.05176   0.00882
                          21        22        23        24        25
                        (B)--O    (A)--O    (A)--O    (B)--O    (B)--O
     EIGENVALUES --    -0.38893  -0.38305  -0.34690  -0.34501  -0.33466
   1 1   S  1S          0.00000  -0.00431  -0.00130   0.00000   0.00000
   2        2S          0.00000   0.01733   0.00504   0.00000   0.00000
   3        2PX        -0.01116   0.00000   0.00000  -0.03078  -0.00169
   4        2PY        -0.00938   0.00000   0.00000   0.00181   0.01176
   5        2PZ         0.00000  -0.00605  -0.00993   0.00000   0.00000
   6        3S          0.00000  -0.05778  -0.01651   0.00000   0.00000
   7        3PX         0.03232   0.00000   0.00000   0.08745   0.00551
   8        3PY         0.02454   0.00000   0.00000  -0.00440  -0.03123
   9        3PZ         0.00000   0.01543   0.02848   0.00000   0.00000
  10        4S          0.00000   0.01981   0.00339   0.00000   0.00000
  11        4PX         0.17346   0.00000   0.00000   0.06087  -0.03089
  12        4PY        -0.08400   0.00000   0.00000  -0.05973  -0.11302
  13        4PZ         0.00000   0.17384  -0.01960   0.00000   0.00000
  14        5XX         0.00000   0.06036  -0.01383   0.00000   0.00000
  15        5YY         0.00000  -0.15328   0.02031   0.00000   0.00000
  16        5ZZ         0.00000   0.09787  -0.00841   0.00000   0.00000
  17        5XY         0.00000   0.02974   0.11073   0.00000   0.00000
  18        5XZ         0.11650   0.00000   0.00000   0.05133  -0.02508
  19        5YZ         0.03164   0.00000   0.00000   0.03903   0.09478
  20 2   O  1S          0.00214  -0.01015   0.00200   0.00027  -0.00157
  21        2S         -0.01340   0.02856  -0.00506  -0.00485  -0.00354
  22        2PX         0.22239   0.07249   0.43330   0.26976  -0.08983
  23        2PY        -0.07402  -0.00819  -0.01379  -0.09525  -0.26621
  24        2PZ         0.01338   0.38910  -0.04481   0.09044   0.33571
  25        3S          0.03176  -0.00340  -0.00425   0.02481   0.05379
  26        3PX         0.13447   0.05602   0.32185   0.18333  -0.06196
  27        3PY        -0.04881  -0.01143  -0.00626  -0.06502  -0.18676
  28        3PZ         0.00649   0.25391  -0.02967   0.06416   0.23996
  29        4XX        -0.00371   0.00582   0.00003  -0.00110  -0.00237
  30        4YY         0.00023   0.01772  -0.00142   0.00386   0.01507
  31        4ZZ        -0.00595  -0.01331   0.00093  -0.00918  -0.02733
  32        4XY        -0.01405  -0.00456  -0.02628  -0.01759   0.00501
  33        4XZ        -0.00574  -0.00288  -0.01563  -0.00770   0.00308
  34        4YZ         0.00040  -0.01534   0.00155  -0.00412  -0.01531
  35 3   O  1S         -0.00214  -0.01015   0.00200  -0.00027   0.00157
  36        2S          0.01340   0.02856  -0.00506   0.00485   0.00354
  37        2PX         0.22239  -0.07249  -0.43330   0.26976  -0.08983
  38        2PY        -0.07402   0.00819   0.01379  -0.09525  -0.26621
  39        2PZ        -0.01338   0.38910  -0.04481  -0.09044  -0.33571
  40        3S         -0.03176  -0.00340  -0.00425  -0.02481  -0.05379
  41        3PX         0.13447  -0.05602  -0.32185   0.18333  -0.06196
  42        3PY        -0.04881   0.01143   0.00626  -0.06502  -0.18676
  43        3PZ        -0.00649   0.25391  -0.02967  -0.06416  -0.23996
  44        4XX         0.00371   0.00582   0.00003   0.00110   0.00237
  45        4YY        -0.00023   0.01772  -0.00142  -0.00386  -0.01507
  46        4ZZ         0.00595  -0.01331   0.00093   0.00918   0.02733
  47        4XY         0.01405  -0.00456  -0.02628   0.01759  -0.00501
  48        4XZ        -0.00574   0.00288   0.01563  -0.00770   0.00308
  49        4YZ         0.00040   0.01534  -0.00155  -0.00412  -0.01531
  50 4   O  1S          0.00051  -0.00302  -0.01474  -0.00938  -0.01115
  51        2S         -0.00926  -0.00166   0.03290   0.01807   0.02504
  52        2PX         0.37578   0.13135  -0.02736  -0.17786   0.00149
  53        2PY        -0.09087  -0.06963   0.12762  -0.01020   0.12150
  54        2PZ        -0.04391   0.12289  -0.05066   0.32458  -0.11226
  55        3S          0.07149   0.07458   0.05496   0.06992   0.03671
  56        3PX         0.27513   0.11220  -0.02065  -0.12830   0.00150
  57        3PY        -0.05864  -0.06230   0.06786  -0.01182   0.08721
  58        3PZ        -0.01704   0.07537  -0.03723   0.24153  -0.08366
  59        4XX         0.00797   0.00093   0.00157  -0.00877   0.00291
  60        4YY        -0.00244  -0.00525  -0.00698  -0.00328  -0.00735
  61        4ZZ        -0.01192  -0.00380   0.00069   0.00555  -0.00003
  62        4XY        -0.01828  -0.00771   0.00191   0.00546  -0.00111
  63        4XZ         0.00555   0.00214  -0.00098   0.00379  -0.00187
  64        4YZ         0.00069  -0.00737  -0.00278  -0.01397   0.00379
  65 5   H  1S         -0.00332  -0.01511  -0.05497  -0.02430  -0.04049
  66        2S         -0.01524  -0.02400  -0.01692  -0.02517  -0.01498
  67 6   O  1S         -0.00051  -0.00302  -0.01474   0.00938   0.01115
  68        2S          0.00926  -0.00166   0.03290  -0.01807  -0.02504
  69        2PX         0.37578  -0.13135   0.02736  -0.17786   0.00149
  70        2PY        -0.09087   0.06963  -0.12762  -0.01020   0.12150
  71        2PZ         0.04391   0.12289  -0.05066  -0.32458   0.11226
  72        3S         -0.07149   0.07458   0.05496  -0.06992  -0.03671
  73        3PX         0.27513  -0.11220   0.02065  -0.12830   0.00150
  74        3PY        -0.05864   0.06230  -0.06786  -0.01182   0.08721
  75        3PZ         0.01704   0.07537  -0.03723  -0.24153   0.08366
  76        4XX        -0.00797   0.00093   0.00157   0.00877  -0.00291
  77        4YY         0.00244  -0.00525  -0.00698   0.00328   0.00735
  78        4ZZ         0.01192  -0.00380   0.00069  -0.00555   0.00003
  79        4XY         0.01828  -0.00771   0.00191  -0.00546   0.00111
  80        4XZ         0.00555  -0.00214   0.00098   0.00379  -0.00187
  81        4YZ         0.00069   0.00737   0.00278  -0.01397   0.00379
  82 7   H  1S          0.00332  -0.01511  -0.05497   0.02430   0.04049
  83        2S          0.01524  -0.02400  -0.01692   0.02517   0.01498
                          26        27        28        29        30
                        (A)--V    (B)--V    (A)--V    (B)--V    (A)--V
     EIGENVALUES --     0.00279   0.04569   0.07705   0.07742   0.08494
   1 1   S  1S          0.03777   0.00000  -0.04654   0.00000  -0.01341
   2        2S         -0.17244   0.00000   0.18358   0.00000   0.01723
   3        2PX         0.00000   0.14019   0.00000  -0.21366   0.00000
   4        2PY         0.00000  -0.03537   0.00000  -0.04613   0.00000
   5        2PZ         0.07354   0.00000  -0.00489   0.00000  -0.23113
   6        3S          0.43577   0.00000  -0.65194   0.00000  -0.31846
   7        3PX         0.00000  -0.45906   0.00000   0.70212   0.00000
   8        3PY         0.00000   0.11599   0.00000   0.15281   0.00000
   9        3PZ        -0.23290   0.00000   0.02492   0.00000   0.77502
  10        4S          0.94323   0.00000  -0.75991   0.00000   0.65030
  11        4PX         0.00000  -0.26257   0.00000   0.65657   0.00000
  12        4PY         0.00000   0.18686   0.00000   0.20263   0.00000
  13        4PZ        -0.00938   0.00000  -0.19350   0.00000   0.68679
  14        5XX         0.02449   0.00000  -0.06718   0.00000   0.16513
  15        5YY        -0.04094   0.00000   0.08497   0.00000  -0.12552
  16        5ZZ         0.03161   0.00000  -0.01209   0.00000  -0.01820
  17        5XY        -0.01639   0.00000  -0.03500   0.00000  -0.01497
  18        5XZ         0.00000  -0.04338   0.00000   0.13036   0.00000
  19        5YZ         0.00000  -0.05678   0.00000  -0.07164   0.00000
  20 2   O  1S          0.03820   0.00611  -0.03388   0.00912   0.03899
  21        2S         -0.08461  -0.00315   0.07275  -0.01422  -0.06731
  22        2PX        -0.00262   0.19778   0.00433  -0.22188  -0.00046
  23        2PY         0.14594   0.03725  -0.25231   0.04056   0.19819
  24        2PZ         0.14409   0.03481  -0.01607   0.05342  -0.16079
  25        3S         -0.33170  -0.10863   0.33236  -0.12519  -0.46000
  26        3PX        -0.00857   0.18118  -0.00345  -0.25445   0.00061
  27        3PY         0.19226   0.03325  -0.26418   0.03890   0.29475
  28        3PZ         0.15363   0.03824  -0.04043   0.05570  -0.13536
  29        4XX         0.00969   0.00429  -0.00815   0.00282   0.02226
  30        4YY        -0.00785   0.00459  -0.00272   0.00362   0.01328
  31        4ZZ         0.00654   0.00590  -0.00488   0.00601   0.00295
  32        4XY         0.00170   0.00364   0.00198  -0.01467   0.00100
  33        4XZ         0.00105   0.00161   0.00128   0.00554   0.00027
  34        4YZ        -0.01092   0.00276   0.00009   0.00286  -0.01182
  35 3   O  1S          0.03820  -0.00611  -0.03388  -0.00912   0.03899
  36        2S         -0.08461   0.00315   0.07275   0.01422  -0.06731
  37        2PX         0.00262   0.19778  -0.00433  -0.22188   0.00046
  38        2PY        -0.14594   0.03725   0.25231   0.04056  -0.19819
  39        2PZ         0.14409  -0.03481  -0.01607  -0.05342  -0.16079
  40        3S         -0.33170   0.10863   0.33236   0.12519  -0.46000
  41        3PX         0.00857   0.18118   0.00345  -0.25445  -0.00061
  42        3PY        -0.19226   0.03325   0.26418   0.03890  -0.29475
  43        3PZ         0.15363  -0.03824  -0.04043  -0.05570  -0.13536
  44        4XX         0.00969  -0.00429  -0.00815  -0.00282   0.02226
  45        4YY        -0.00785  -0.00459  -0.00272  -0.00362   0.01328
  46        4ZZ         0.00654  -0.00590  -0.00488  -0.00601   0.00295
  47        4XY         0.00170  -0.00364   0.00198   0.01467   0.00100
  48        4XZ        -0.00105   0.00161  -0.00128   0.00554  -0.00027
  49        4YZ         0.01092   0.00276  -0.00009   0.00286   0.01182
  50 4   O  1S          0.07536   0.06642   0.01081  -0.00388  -0.01121
  51        2S         -0.14213  -0.10849   0.01995   0.03267   0.05198
  52        2PX        -0.17487   0.01694   0.17101   0.12268   0.25170
  53        2PY         0.14592   0.17635   0.14023   0.08705   0.03769
  54        2PZ        -0.08303  -0.05978   0.21523   0.22873   0.00268
  55        3S         -0.71289  -0.72987  -0.31274  -0.05379   0.00123
  56        3PX        -0.18832   0.01179   0.21632   0.18586   0.23640
  57        3PY         0.23734   0.28475   0.27014   0.19525   0.08870
  58        3PZ        -0.10590  -0.04172   0.24740   0.30295   0.02004
  59        4XX         0.02011   0.02154   0.01861   0.01245  -0.01816
  60        4YY         0.00819   0.01116   0.01630   0.00978   0.00645
  61        4ZZ         0.01705   0.03372   0.01440  -0.00812   0.02369
  62        4XY         0.01063   0.00931   0.00053   0.00708  -0.00617
  63        4XZ        -0.00433   0.00392  -0.00349  -0.00352  -0.01155
  64        4YZ         0.00538   0.00828  -0.00253  -0.00043   0.00136
  65 5   H  1S          0.08875   0.12641   0.09761   0.08760   0.02659
  66        2S          0.61155   0.86227   0.77620   0.67003   0.26204
  67 6   O  1S          0.07536  -0.06642   0.01081   0.00388  -0.01121
  68        2S         -0.14213   0.10849   0.01995  -0.03267   0.05198
  69        2PX         0.17487   0.01694  -0.17101   0.12268  -0.25170
  70        2PY        -0.14592   0.17635  -0.14023   0.08705  -0.03769
  71        2PZ        -0.08303   0.05978   0.21523  -0.22873   0.00268
  72        3S         -0.71289   0.72987  -0.31274   0.05379   0.00123
  73        3PX         0.18832   0.01179  -0.21632   0.18586  -0.23640
  74        3PY        -0.23734   0.28475  -0.27014   0.19525  -0.08870
  75        3PZ        -0.10590   0.04172   0.24740  -0.30295   0.02004
  76        4XX         0.02011  -0.02154   0.01861  -0.01245  -0.01816
  77        4YY         0.00819  -0.01116   0.01630  -0.00978   0.00645
  78        4ZZ         0.01705  -0.03372   0.01440   0.00812   0.02369
  79        4XY         0.01063  -0.00931   0.00053  -0.00708  -0.00617
  80        4XZ         0.00433   0.00392   0.00349  -0.00352   0.01155
  81        4YZ        -0.00538   0.00828   0.00253  -0.00043  -0.00136
  82 7   H  1S          0.08875  -0.12641   0.09761  -0.08760   0.02659
  83        2S          0.61155  -0.86227   0.77620  -0.67003   0.26204
                          31        32        33        34        35
                        (B)--V    (A)--V    (B)--V    (A)--V    (B)--V
     EIGENVALUES --     0.14134   0.30855   0.32102   0.35972   0.39603
   1 1   S  1S          0.00000  -0.05597   0.00000   0.00574   0.00000
   2        2S          0.00000   0.00773   0.00000   0.08023   0.00000
   3        2PX         0.03185   0.00000   0.22020   0.00000   0.03463
   4        2PY        -0.16559   0.00000  -0.03287   0.00000   0.24528
   5        2PZ         0.00000   0.10475   0.00000   0.20063   0.00000
   6        3S          0.00000  -1.53689   0.00000   0.41899   0.00000
   7        3PX        -0.11523   0.00000  -0.95326   0.00000  -0.17011
   8        3PY         0.56554   0.00000   0.12332   0.00000  -0.99335
   9        3PZ         0.00000  -0.35801   0.00000  -0.90675   0.00000
  10        4S          0.00000   3.35295   0.00000  -1.81838   0.00000
  11        4PX        -0.04660   0.00000   2.02102   0.00000   0.42443
  12        4PY         1.43490   0.00000  -0.20847   0.00000   2.08430
  13        4PZ         0.00000   0.03233   0.00000   2.21075   0.00000
  14        5XX         0.00000  -0.14595   0.00000  -0.04097   0.00000
  15        5YY         0.00000   0.15539   0.00000   0.10492   0.00000
  16        5ZZ         0.00000   0.01622   0.00000  -0.03778   0.00000
  17        5XY         0.00000   0.04552   0.00000  -0.04470   0.00000
  18        5XZ        -0.02157   0.00000  -0.00505   0.00000   0.06627
  19        5YZ        -0.22177   0.00000  -0.04085   0.00000   0.29860
  20 2   O  1S          0.06456   0.03423  -0.00303  -0.00750   0.02583
  21        2S         -0.08292   0.03148  -0.01306   0.03269   0.06335
  22        2PX         0.01857  -0.00842  -0.10713  -0.00472  -0.03381
  23        2PY         0.05624  -0.17844   0.03451  -0.05493  -0.22356
  24        2PZ         0.24327  -0.07430   0.01492  -0.12623  -0.12635
  25        3S         -0.90456  -0.83525   0.10121  -0.00778  -0.86613
  26        3PX         0.02452  -0.00061  -0.24733   0.00445  -0.04735
  27        3PY         0.17470   0.16059   0.00277  -0.03332  -0.00312
  28        3PZ         0.32731   0.11514  -0.00936  -0.27356   0.09164
  29        4XX         0.02896   0.05296  -0.00815   0.00939   0.05662
  30        4YY         0.02521  -0.01746  -0.00435  -0.02712   0.01430
  31        4ZZ         0.03841   0.05031  -0.00367   0.02711   0.01352
  32        4XY         0.00337  -0.00351   0.02590   0.00399  -0.00092
  33        4XZ        -0.00094  -0.00197   0.02752   0.00081   0.00845
  34        4YZ        -0.00277  -0.03554   0.00736   0.01539  -0.05305
  35 3   O  1S         -0.06456   0.03423   0.00303  -0.00750  -0.02583
  36        2S          0.08292   0.03148   0.01306   0.03269  -0.06335
  37        2PX         0.01857   0.00842  -0.10713   0.00472  -0.03381
  38        2PY         0.05624   0.17844   0.03451   0.05493  -0.22356
  39        2PZ        -0.24327  -0.07430  -0.01492  -0.12623   0.12635
  40        3S          0.90456  -0.83525  -0.10121  -0.00778   0.86613
  41        3PX         0.02452   0.00061  -0.24733  -0.00445  -0.04735
  42        3PY         0.17470  -0.16059   0.00277   0.03332  -0.00312
  43        3PZ        -0.32731   0.11514   0.00936  -0.27356  -0.09164
  44        4XX        -0.02896   0.05296   0.00815   0.00939  -0.05662
  45        4YY        -0.02521  -0.01746   0.00435  -0.02712  -0.01430
  46        4ZZ        -0.03841   0.05031   0.00367   0.02711  -0.01352
  47        4XY        -0.00337  -0.00351  -0.02590   0.00399   0.00092
  48        4XZ        -0.00094   0.00197   0.02752  -0.00081   0.00845
  49        4YZ        -0.00277   0.03554   0.00736  -0.01539  -0.05305
  50 4   O  1S          0.01118   0.02039  -0.01355  -0.02835   0.01162
  51        2S         -0.02086  -0.01073  -0.05613  -0.02021  -0.09141
  52        2PX         0.00096  -0.05382  -0.16499   0.05754   0.02592
  53        2PY        -0.19421  -0.09211   0.03079   0.09004   0.00507
  54        2PZ        -0.00316  -0.00115  -0.02480  -0.11125   0.05545
  55        3S         -0.05079  -0.42769   0.56107   0.71814   0.00111
  56        3PX        -0.02748  -0.25916  -0.00391   0.36159  -0.02413
  57        3PY        -0.24679  -0.12551   0.08279   0.12257  -0.14659
  58        3PZ        -0.03066  -0.21694   0.17570   0.09532   0.01636
  59        4XX        -0.00107   0.00932  -0.02138   0.00795  -0.02372
  60        4YY         0.01434   0.02850  -0.04332  -0.04908  -0.00992
  61        4ZZ         0.00060  -0.00967  -0.01108  -0.03016  -0.02354
  62        4XY         0.03188  -0.01025   0.01159   0.01246  -0.02958
  63        4XZ         0.00298  -0.04204   0.04355   0.04436   0.00795
  64        4YZ         0.01428  -0.01075   0.00867   0.01289  -0.01871
  65 5   H  1S          0.07663  -0.06001  -0.00253   0.02882  -0.01846
  66        2S         -0.10671  -0.49159   0.27257   0.58042   0.41371
  67 6   O  1S         -0.01118   0.02039   0.01355  -0.02835  -0.01162
  68        2S          0.02086  -0.01073   0.05613  -0.02021   0.09141
  69        2PX         0.00096   0.05382  -0.16499  -0.05754   0.02592
  70        2PY        -0.19421   0.09211   0.03079  -0.09004   0.00507
  71        2PZ         0.00316  -0.00115   0.02480  -0.11125  -0.05545
  72        3S          0.05079  -0.42769  -0.56107   0.71814  -0.00111
  73        3PX        -0.02748   0.25916  -0.00391  -0.36159  -0.02413
  74        3PY        -0.24679   0.12551   0.08279  -0.12257  -0.14659
  75        3PZ         0.03066  -0.21694  -0.17570   0.09532  -0.01636
  76        4XX         0.00107   0.00932   0.02138   0.00795   0.02372
  77        4YY        -0.01434   0.02850   0.04332  -0.04908   0.00992
  78        4ZZ        -0.00060  -0.00967   0.01108  -0.03016   0.02354
  79        4XY        -0.03188  -0.01025  -0.01159   0.01246   0.02958
  80        4XZ         0.00298   0.04204   0.04355  -0.04436   0.00795
  81        4YZ         0.01428   0.01075   0.00867  -0.01289  -0.01871
  82 7   H  1S         -0.07663  -0.06001   0.00253   0.02882   0.01846
  83        2S          0.10671  -0.49159  -0.27257   0.58042  -0.41371
                          36        37        38        39        40
                        (A)--V    (A)--V    (B)--V    (A)--V    (B)--V
     EIGENVALUES --     0.56730   0.58331   0.72346   0.75427   0.77219
   1 1   S  1S         -0.00042   0.00362   0.00000   0.00227   0.00000
   2        2S          0.02415   0.00893   0.00000  -0.03872   0.00000
   3        2PX         0.00000   0.00000  -0.02721   0.00000  -0.01669
   4        2PY         0.00000   0.00000   0.08410   0.00000  -0.15123
   5        2PZ        -0.00633  -0.01640   0.00000  -0.04310   0.00000
   6        3S          0.06121   0.12740   0.00000  -0.03503   0.00000
   7        3PX         0.00000   0.00000   0.17959   0.00000   0.08581
   8        3PY         0.00000   0.00000  -0.39536   0.00000   0.85984
   9        3PZ         0.00767   0.03472   0.00000   0.26393   0.00000
  10        4S         -0.32784  -0.28262   0.00000   0.16557   0.00000
  11        4PX         0.00000   0.00000   0.18407   0.00000   0.02598
  12        4PY         0.00000   0.00000  -0.14560   0.00000   0.24853
  13        4PZ         0.13758   0.29159   0.00000  -0.07484   0.00000
  14        5XX        -0.04209  -0.52642   0.00000  -0.26992   0.00000
  15        5YY        -0.06242  -0.18070   0.00000   0.21331   0.00000
  16        5ZZ         0.12695   0.72260   0.00000  -0.03725   0.00000
  17        5XY         0.66659  -0.15045   0.00000   0.15585   0.00000
  18        5XZ         0.00000   0.00000  -0.44901   0.00000  -0.15391
  19        5YZ         0.00000   0.00000  -0.11494   0.00000   0.48037
  20 2   O  1S         -0.00292   0.00171  -0.01687   0.00758   0.03645
  21        2S          0.03095   0.00046   0.04537  -0.16475  -0.33999
  22        2PX        -0.30536   0.05346   0.03498  -0.08194   0.01323
  23        2PY         0.01603   0.12078  -0.01658  -0.02415  -0.14768
  24        2PZ        -0.05375  -0.21843   0.03491   0.07113  -0.23585
  25        3S          0.00597  -0.02586   0.17871   0.14880  -0.00998
  26        3PX         0.04961  -0.00570  -0.03067   0.04700  -0.00620
  27        3PY        -0.02354   0.00822  -0.20060   0.17372   0.71676
  28        3PZ        -0.01526   0.02195  -0.15340   0.01897   0.51923
  29        4XX         0.00251  -0.03895   0.00973  -0.05868  -0.09748
  30        4YY         0.02120   0.05446  -0.00549  -0.06034  -0.07262
  31        4ZZ         0.00231  -0.01553   0.00465  -0.03839  -0.12614
  32        4XY        -0.05489   0.01287   0.03585  -0.02547   0.01111
  33        4XZ        -0.06552   0.01206  -0.00493  -0.02021  -0.00472
  34        4YZ        -0.00785  -0.05227  -0.01450   0.00330  -0.00071
  35 3   O  1S         -0.00292   0.00171   0.01687   0.00758  -0.03645
  36        2S          0.03095   0.00046  -0.04537  -0.16475   0.33999
  37        2PX         0.30536  -0.05346   0.03498   0.08194   0.01323
  38        2PY        -0.01603  -0.12078  -0.01658   0.02415  -0.14768
  39        2PZ        -0.05375  -0.21843  -0.03491   0.07113   0.23585
  40        3S          0.00597  -0.02586  -0.17871   0.14880   0.00998
  41        3PX        -0.04961   0.00570  -0.03067  -0.04700  -0.00620
  42        3PY         0.02354  -0.00822  -0.20060  -0.17372   0.71676
  43        3PZ        -0.01526   0.02195   0.15340   0.01897  -0.51923
  44        4XX         0.00251  -0.03895  -0.00973  -0.05868   0.09748
  45        4YY         0.02120   0.05446   0.00549  -0.06034   0.07262
  46        4ZZ         0.00231  -0.01553  -0.00465  -0.03839   0.12614
  47        4XY        -0.05489   0.01287  -0.03585  -0.02547  -0.01111
  48        4XZ         0.06552  -0.01206  -0.00493   0.02021  -0.00472
  49        4YZ         0.00785   0.05227  -0.01450  -0.00330  -0.00071
  50 4   O  1S         -0.01649  -0.00535  -0.00866   0.00465  -0.00841
  51        2S          0.04325   0.02971   0.03024   0.05094   0.11765
  52        2PX        -0.02850  -0.17709  -0.10703  -0.16509  -0.03597
  53        2PY         0.14931  -0.00994   0.30417   0.42004   0.21868
  54        2PZ         0.04137   0.25713  -0.01047  -0.11235  -0.05086
  55        3S          0.07748   0.06241   0.16606  -0.02211  -0.10533
  56        3PX         0.03132   0.17541   0.38408   0.30034   0.10413
  57        3PY        -0.18583   0.03219  -0.03049  -0.23255  -0.27509
  58        3PZ        -0.04177  -0.11170   0.26397   0.26408   0.10759
  59        4XX         0.02998   0.10167  -0.05684  -0.00681   0.02267
  60        4YY        -0.02852  -0.00981   0.10417   0.13869   0.04066
  61        4ZZ        -0.00028  -0.07692  -0.02160  -0.03082   0.03500
  62        4XY        -0.06376   0.01456   0.03476   0.01714  -0.03251
  63        4XZ        -0.01166  -0.02390  -0.01394  -0.00799  -0.01303
  64        4YZ        -0.08861   0.01712   0.03918   0.01752  -0.01187
  65 5   H  1S         -0.33273   0.02732   0.61481   0.54406  -0.02363
  66        2S          0.26552   0.08689  -0.43853  -0.52078  -0.01318
  67 6   O  1S         -0.01649  -0.00535   0.00866   0.00465   0.00841
  68        2S          0.04325   0.02971  -0.03024   0.05094  -0.11765
  69        2PX         0.02850   0.17709  -0.10703   0.16509  -0.03597
  70        2PY        -0.14931   0.00994   0.30417  -0.42004   0.21868
  71        2PZ         0.04137   0.25713   0.01047  -0.11235   0.05086
  72        3S          0.07748   0.06241  -0.16606  -0.02211   0.10533
  73        3PX        -0.03132  -0.17541   0.38408  -0.30034   0.10413
  74        3PY         0.18583  -0.03219  -0.03049   0.23255  -0.27509
  75        3PZ        -0.04177  -0.11170  -0.26397   0.26408  -0.10759
  76        4XX         0.02998   0.10167   0.05684  -0.00681  -0.02267
  77        4YY        -0.02852  -0.00981  -0.10417   0.13869  -0.04066
  78        4ZZ        -0.00028  -0.07692   0.02160  -0.03082  -0.03500
  79        4XY        -0.06376   0.01456  -0.03476   0.01714   0.03251
  80        4XZ         0.01166   0.02390  -0.01394   0.00799  -0.01303
  81        4YZ         0.08861  -0.01712   0.03918  -0.01752  -0.01187
  82 7   H  1S         -0.33273   0.02732  -0.61481   0.54406   0.02363
  83        2S          0.26552   0.08689   0.43853  -0.52078   0.01318
                          41        42        43        44        45
                        (A)--V    (A)--V    (A)--V    (B)--V    (B)--V
     EIGENVALUES --     0.78898   0.85755   0.86693   0.88036   0.93283
   1 1   S  1S          0.01889  -0.00073   0.00880   0.00000   0.00000
   2        2S          0.05140  -0.00534   0.01676   0.00000   0.00000
   3        2PX         0.00000   0.00000   0.00000   0.03442   0.00974
   4        2PY         0.00000   0.00000   0.00000  -0.04033  -0.06928
   5        2PZ        -0.07174   0.00134   0.00557   0.00000   0.00000
   6        3S          0.59839  -0.03274   0.24968   0.00000   0.00000
   7        3PX         0.00000   0.00000   0.00000  -0.07437  -0.14716
   8        3PY         0.00000   0.00000   0.00000   0.24356   0.40029
   9        3PZ         0.40680  -0.01979  -0.03451   0.00000   0.00000
  10        4S          0.11404  -0.08490   0.43260   0.00000   0.00000
  11        4PX         0.00000   0.00000   0.00000  -0.32042  -0.33759
  12        4PY         0.00000   0.00000   0.00000  -0.30620  -0.34664
  13        4PZ         0.16509  -0.19877  -0.12025   0.00000   0.00000
  14        5XX        -0.20996  -0.33279  -0.05070   0.00000   0.00000
  15        5YY         0.58660  -0.20424   0.15596   0.00000   0.00000
  16        5ZZ        -0.03403   0.51922   0.08013   0.00000   0.00000
  17        5XY        -0.07275   0.01775   0.42810   0.00000   0.00000
  18        5XZ         0.00000   0.00000   0.00000   0.77474  -0.25838
  19        5YZ         0.00000   0.00000   0.00000   0.10383   0.24128
  20 2   O  1S          0.03068  -0.00536   0.01096   0.00506   0.01338
  21        2S         -0.28334  -0.07688   0.05012   0.04099   0.13142
  22        2PX        -0.01869  -0.00579   0.25364   0.01669  -0.19265
  23        2PY        -0.34944  -0.10585  -0.03892  -0.02195  -0.01632
  24        2PZ        -0.06167   0.23528  -0.13793   0.02330   0.09013
  25        3S          0.03162   0.22527  -0.24863  -0.05994  -0.29330
  26        3PX         0.03301   0.00506  -0.37494  -0.06474   0.30477
  27        3PY         0.84556   0.08108   0.20492   0.15383   0.27990
  28        3PZ         0.34004  -0.33453   0.25154   0.02149  -0.01131
  29        4XX        -0.10050  -0.03193   0.00341   0.00231   0.02321
  30        4YY        -0.10442   0.01711   0.02277   0.03306   0.08913
  31        4ZZ        -0.06880  -0.05505   0.01567   0.00223   0.01744
  32        4XY         0.01290   0.00042  -0.06739  -0.06585   0.04764
  33        4XZ         0.00566   0.00082  -0.02753   0.02265  -0.03266
  34        4YZ         0.00894  -0.03811   0.01137   0.00451   0.01402
  35 3   O  1S          0.03068  -0.00536   0.01096  -0.00506  -0.01338
  36        2S         -0.28334  -0.07688   0.05012  -0.04099  -0.13142
  37        2PX         0.01869   0.00579  -0.25364   0.01669  -0.19265
  38        2PY         0.34944   0.10585   0.03892  -0.02195  -0.01632
  39        2PZ        -0.06167   0.23528  -0.13793  -0.02330  -0.09013
  40        3S          0.03162   0.22527  -0.24863   0.05994   0.29330
  41        3PX        -0.03301  -0.00506   0.37494  -0.06474   0.30477
  42        3PY        -0.84556  -0.08108  -0.20492   0.15383   0.27990
  43        3PZ         0.34004  -0.33453   0.25154  -0.02149   0.01131
  44        4XX        -0.10050  -0.03193   0.00341  -0.00231  -0.02321
  45        4YY        -0.10442   0.01711   0.02277  -0.03306  -0.08913
  46        4ZZ        -0.06880  -0.05505   0.01567  -0.00223  -0.01744
  47        4XY         0.01290   0.00042  -0.06739   0.06585  -0.04764
  48        4XZ        -0.00566  -0.00082   0.02753   0.02265  -0.03266
  49        4YZ        -0.00894   0.03811  -0.01137   0.00451   0.01402
  50 4   O  1S         -0.00957   0.00413   0.00636   0.02959  -0.01279
  51        2S          0.25906   0.10253  -0.34321  -0.44423  -0.37361
  52        2PX         0.02259   0.29494   0.33901  -0.07369   0.24626
  53        2PY        -0.12567  -0.06922  -0.01862   0.21055  -0.00223
  54        2PZ         0.07670  -0.38043   0.17733  -0.09596   0.46295
  55        3S         -0.39996  -0.25928   0.52936   0.59993   0.78256
  56        3PX         0.05728  -0.39485  -0.44856  -0.18701  -0.26806
  57        3PY         0.09699   0.08841   0.12597  -0.17102   0.00485
  58        3PZ        -0.03812   0.47712  -0.22077  -0.12649  -0.58261
  59        4XX         0.07667   0.09588  -0.10718  -0.09178  -0.15366
  60        4YY         0.04360   0.04621  -0.04844  -0.04192  -0.09991
  61        4ZZ         0.06899  -0.05097  -0.13601  -0.14266  -0.11131
  62        4XY        -0.00416   0.00107  -0.01494   0.01774  -0.01620
  63        4XZ        -0.00218  -0.00087   0.01739   0.06801  -0.01197
  64        4YZ        -0.00804  -0.01612   0.00539   0.01730  -0.01054
  65 5   H  1S         -0.21184  -0.03924   0.33904   0.39003   0.18404
  66        2S          0.33490   0.10416  -0.46546  -0.75953  -0.57406
  67 6   O  1S         -0.00957   0.00413   0.00636  -0.02959   0.01279
  68        2S          0.25906   0.10253  -0.34321   0.44423   0.37361
  69        2PX        -0.02259  -0.29494  -0.33901  -0.07369   0.24626
  70        2PY         0.12567   0.06922   0.01862   0.21055  -0.00223
  71        2PZ         0.07670  -0.38043   0.17733   0.09596  -0.46295
  72        3S         -0.39996  -0.25928   0.52936  -0.59993  -0.78256
  73        3PX        -0.05728   0.39485   0.44856  -0.18701  -0.26806
  74        3PY        -0.09699  -0.08841  -0.12597  -0.17102   0.00485
  75        3PZ        -0.03812   0.47712  -0.22077   0.12649   0.58261
  76        4XX         0.07667   0.09588  -0.10718   0.09178   0.15366
  77        4YY         0.04360   0.04621  -0.04844   0.04192   0.09991
  78        4ZZ         0.06899  -0.05097  -0.13601   0.14266   0.11131
  79        4XY        -0.00416   0.00107  -0.01494  -0.01774   0.01620
  80        4XZ         0.00218   0.00087  -0.01739   0.06801  -0.01197
  81        4YZ         0.00804   0.01612  -0.00539   0.01730  -0.01054
  82 7   H  1S         -0.21184  -0.03924   0.33904  -0.39003  -0.18404
  83        2S          0.33490   0.10416  -0.46546   0.75953   0.57406
                          46        47        48        49        50
                        (A)--V    (B)--V    (B)--V    (A)--V    (B)--V
     EIGENVALUES --     0.95743   0.97469   0.99198   1.03306   1.07811
   1 1   S  1S          0.00127   0.00000   0.00000   0.00924   0.00000
   2        2S          0.00024   0.00000   0.00000  -0.04984   0.00000
   3        2PX         0.00000  -0.00199   0.00749   0.00000  -0.01883
   4        2PY         0.00000  -0.01065   0.03138   0.00000  -0.04236
   5        2PZ        -0.00322   0.00000   0.00000  -0.07236   0.00000
   6        3S          0.00533   0.00000   0.00000   0.14853   0.00000
   7        3PX         0.00000   0.05118  -0.05878   0.00000   0.20654
   8        3PY         0.00000   0.05722  -0.18645   0.00000   0.15923
   9        3PZ         0.02347   0.00000   0.00000   0.33724   0.00000
  10        4S          0.77692   0.00000   0.00000   0.05084   0.00000
  11        4PX         0.00000  -0.14166  -0.23847   0.00000   0.56800
  12        4PY         0.00000  -0.07178   0.02263   0.00000  -0.29716
  13        4PZ        -0.37442   0.00000   0.00000  -0.21138   0.00000
  14        5XX        -0.01414   0.00000   0.00000  -0.53606   0.00000
  15        5YY         0.08015   0.00000   0.00000   0.61381   0.00000
  16        5ZZ         0.04109   0.00000   0.00000  -0.21754   0.00000
  17        5XY        -0.29951   0.00000   0.00000   0.00038   0.00000
  18        5XZ         0.00000   0.09805   0.04377   0.00000  -0.13176
  19        5YZ         0.00000   0.09559  -0.29114   0.00000   0.43458
  20 2   O  1S          0.00916   0.00294  -0.01359   0.02869   0.01450
  21        2S          0.08921  -0.00019  -0.14039   0.17227  -0.01521
  22        2PX        -0.48813   0.29749  -0.02989   0.01894  -0.08127
  23        2PY        -0.00795  -0.00621   0.25962   0.40736   0.21800
  24        2PZ        -0.10704   0.02101  -0.53677  -0.12406  -0.05568
  25        3S         -0.29655  -0.01606   0.37985  -0.58058  -0.05834
  26        3PX         0.65833  -0.35366   0.06614  -0.02198   0.03333
  27        3PY         0.11079   0.07556  -0.54477  -0.18411  -0.01320
  28        3PZ         0.22796  -0.00896   0.58778   0.46686   0.13610
  29        4XX         0.02592  -0.00313  -0.02050   0.02946   0.02197
  30        4YY         0.03359   0.01166  -0.11933   0.03198   0.04713
  31        4ZZ         0.02641  -0.00646   0.00805   0.14993  -0.03923
  32        4XY         0.05277  -0.03066   0.00312   0.00508   0.00511
  33        4XZ         0.04190  -0.01693  -0.01473   0.00364   0.08637
  34        4YZ         0.01395   0.00400   0.02288   0.08353   0.02806
  35 3   O  1S          0.00916  -0.00294   0.01359   0.02869  -0.01450
  36        2S          0.08921   0.00019   0.14039   0.17227   0.01521
  37        2PX         0.48813   0.29749  -0.02989  -0.01894  -0.08127
  38        2PY         0.00795  -0.00621   0.25962  -0.40736   0.21800
  39        2PZ        -0.10704  -0.02101   0.53677  -0.12406   0.05568
  40        3S         -0.29655   0.01606  -0.37985  -0.58058   0.05834
  41        3PX        -0.65833  -0.35366   0.06614   0.02198   0.03333
  42        3PY        -0.11079   0.07556  -0.54477   0.18411  -0.01320
  43        3PZ         0.22796   0.00896  -0.58778   0.46686  -0.13610
  44        4XX         0.02592   0.00313   0.02050   0.02946  -0.02197
  45        4YY         0.03359  -0.01166   0.11933   0.03198  -0.04713
  46        4ZZ         0.02641   0.00646  -0.00805   0.14993   0.03923
  47        4XY         0.05277   0.03066  -0.00312   0.00508  -0.00511
  48        4XZ        -0.04190  -0.01693  -0.01473  -0.00364   0.08637
  49        4YZ        -0.01395   0.00400   0.02288  -0.08353   0.02806
  50 4   O  1S         -0.00069   0.00781   0.00280  -0.02128  -0.01737
  51        2S         -0.34499   0.10411  -0.11569   0.01672  -0.33169
  52        2PX         0.26618  -0.44811   0.03813   0.05455  -0.15445
  53        2PY         0.09058  -0.12266   0.01925  -0.10549  -0.40312
  54        2PZ         0.09986   0.36460   0.15634  -0.21537  -0.23918
  55        3S          0.57531  -0.30776   0.18891   0.02349   0.71486
  56        3PX        -0.46746   0.54842  -0.09357   0.08589   0.39679
  57        3PY        -0.20649   0.19405  -0.05434   0.12015   0.77111
  58        3PZ        -0.19497  -0.49555  -0.26160   0.45241   0.54484
  59        4XX        -0.08961  -0.03068  -0.03648  -0.00288  -0.18388
  60        4YY        -0.08092   0.05773  -0.02432   0.00234   0.00334
  61        4ZZ        -0.11920   0.07748  -0.02511  -0.07073  -0.16096
  62        4XY         0.02508  -0.02652   0.01355  -0.01274  -0.06946
  63        4XZ        -0.00641   0.03390   0.01147  -0.10648  -0.04905
  64        4YZ        -0.01042  -0.00190   0.00277  -0.02549  -0.03728
  65 5   H  1S          0.14153  -0.02694   0.09313  -0.15094   0.16919
  66        2S         -0.64406   0.14137  -0.29912   0.29132   0.26700
[...]
   1. BD ( 1) S 1- O 2       81. BD*( 1) S 1- O 6         4.96    1.08    0.070
   1. BD ( 1) S 1- O 2       82. BD*( 1) O 4- H 5         0.91    1.38    0.032
   2. BD ( 1) S 1- O 3       28. RY*( 3) S 1              0.65    1.84    0.031
   2. BD ( 1) S 1- O 3       78. BD*( 1) S 1- O 2         1.74    1.29    0.044
   2. BD ( 1) S 1- O 3       80. BD*( 1) S 1- O 4         4.96    1.08    0.070
   2. BD ( 1) S 1- O 3       81. BD*( 1) S 1- O 6         3.05    1.08    0.055
   2. BD ( 1) S 1- O 3       83. BD*( 1) O 6- H 7         0.91    1.38    0.032
   3. BD ( 1) S 1- O 4       26. RY*( 1) S 1              0.80    1.71    0.033
   3. BD ( 1) S 1- O 4       27. RY*( 2) S 1              1.11    1.57    0.038
   3. BD ( 1) S 1- O 4       78. BD*( 1) S 1- O 2         3.16    1.13    0.055
   3. BD ( 1) S 1- O 4       79. BD*( 1) S 1- O 3         3.06    1.13    0.054
   3. BD ( 1) S 1- O 4       80. BD*( 1) S 1- O 4         1.66    0.92    0.038
   3. BD ( 1) S 1- O 4       81. BD*( 1) S 1- O 6         4.01    0.92    0.059
   4. BD ( 1) S 1- O 6       26. RY*( 1) S 1              0.80    1.71    0.033
   4. BD ( 1) S 1- O 6       27. RY*( 2) S 1              1.11    1.57    0.038
   4. BD ( 1) S 1- O 6       78. BD*( 1) S 1- O 2         3.06    1.13    0.054
   4. BD ( 1) S 1- O 6       79. BD*( 1) S 1- O 3         3.16    1.13    0.055
   4. BD ( 1) S 1- O 6       80. BD*( 1) S 1- O 4         4.01    0.92    0.059
   4. BD ( 1) S 1- O 6       81. BD*( 1) S 1- O 6         1.66    0.92    0.038
   5. BD ( 1) O 4- H 5       78. BD*( 1) S 1- O 2         2.46    1.08    0.048
   5. BD ( 1) O 4- H 5       79. BD*( 1) S 1- O 3         0.69    1.08    0.025
   6. BD ( 1) O 6- H 7       78. BD*( 1) S 1- O 2         0.69    1.08    0.025
   6. BD ( 1) O 6- H 7       79. BD*( 1) S 1- O 3         2.46    1.08    0.048
   8. CR ( 2) S 1            39. RY*( 4) O 2              0.69   11.13    0.078
   8. CR ( 2) S 1            49. RY*( 4) O 3              0.69   11.13    0.078
   8. CR ( 2) S 1            78. BD*( 1) S 1- O 2         0.71    9.96    0.078
   8. CR ( 2) S 1            79. BD*( 1) S 1- O 3         0.71    9.96    0.078
   8. CR ( 2) S 1            80. BD*( 1) S 1- O 4         2.49    9.75    0.151
   8. CR ( 2) S 1            81. BD*( 1) S 1- O 6         2.49    9.75    0.151
   8. CR ( 2) S 1            82. BD*( 1) O 4- H 5         0.51   10.05    0.064
   8. CR ( 2) S 1            83. BD*( 1) O 6- H 7         0.51   10.05    0.064
  12. CR ( 1) O 2            28. RY*( 3) S 1              1.01   19.82    0.128
  12. CR ( 1) O 2            31. RY*( 6) S 1              0.70   19.53    0.104
  12. CR ( 1) O 2            79. BD*( 1) S 1- O 3         0.55   19.27    0.095
  13. CR ( 1) O 3            28. RY*( 3) S 1              1.01   19.82    0.128
  13. CR ( 1) O 3            31. RY*( 6) S 1              0.70   19.53    0.104
  13. CR ( 1) O 3            78. BD*( 1) S 1- O 2         0.55   19.27    0.095
  16. LP ( 1) O 2            31. RY*( 6) S 1              2.76    1.36    0.055
  16. LP ( 1) O 2            32. RY*( 7) S 1              1.30    1.51    0.040
  16. LP ( 1) O 2            79. BD*( 1) S 1- O 3         2.64    1.10    0.050
  16. LP ( 1) O 2            80. BD*( 1) S 1- O 4         0.50    0.89    0.020
  17. LP ( 2) O 2            26. RY*( 1) S 1              6.66    1.17    0.082
  17. LP ( 2) O 2            28. RY*( 3) S 1              3.73    1.15    0.061
  17. LP ( 2) O 2            29. RY*( 4) S 1              1.21    1.13    0.035
  17. LP ( 2) O 2            30. RY*( 5) S 1              2.58    1.06    0.049
  17. LP ( 2) O 2            31. RY*( 6) S 1              0.57    0.86    0.021
  17. LP ( 2) O 2            79. BD*( 1) S 1- O 3        18.79    0.60    0.096
  17. LP ( 2) O 2            80. BD*( 1) S 1- O 4         2.52    0.39    0.028
  17. LP ( 2) O 2            81. BD*( 1) S 1- O 6        18.53    0.39    0.077
  18. LP ( 3) O 2            26. RY*( 1) S 1              0.88    1.17    0.030
  18. LP ( 3) O 2            27. RY*( 2) S 1              5.20    1.04    0.068
  18. LP ( 3) O 2            29. RY*( 4) S 1              9.05    1.13    0.095
  18. LP ( 3) O 2            44. RY*( 9) O 2              1.03    2.29    0.046
  18. LP ( 3) O 2            79. BD*( 1) S 1- O 3         1.64    0.60    0.028
  18. LP ( 3) O 2            80. BD*( 1) S 1- O 4        26.68    0.39    0.092
  18. LP ( 3) O 2            81. BD*( 1) S 1- O 6        13.58    0.39    0.066
  19. LP ( 1) O 3            31. RY*( 6) S 1              2.76    1.36    0.055
  19. LP ( 1) O 3            32. RY*( 7) S 1              1.30    1.51    0.040
  19. LP ( 1) O 3            78. BD*( 1) S 1- O 2         2.64    1.10    0.050
  19. LP ( 1) O 3            81. BD*( 1) S 1- O 6         0.50    0.89    0.020
  20. LP ( 2) O 3            26. RY*( 1) S 1              6.66    1.17    0.082
  20. LP ( 2) O 3            28. RY*( 3) S 1              3.73    1.15    0.061
  20. LP ( 2) O 3            29. RY*( 4) S 1              1.21    1.13    0.035
  20. LP ( 2) O 3            30. RY*( 5) S 1              2.58    1.06    0.049
  20. LP ( 2) O 3            31. RY*( 6) S 1              0.57    0.86    0.021
  20. LP ( 2) O 3            78. BD*( 1) S 1- O 2        18.79    0.60    0.096
  20. LP ( 2) O 3            80. BD*( 1) S 1- O 4        18.53    0.39    0.077
  20. LP ( 2) O 3            81. BD*( 1) S 1- O 6         2.52    0.39    0.028
  21. LP ( 3) O 3            26. RY*( 1) S 1              0.88    1.17    0.030
  21. LP ( 3) O 3            27. RY*( 2) S 1              5.20    1.04    0.068
  21. LP ( 3) O 3            29. RY*( 4) S 1              9.05    1.13    0.095
  21. LP ( 3) O 3            54. RY*( 9) O 3              1.03    2.29    0.046
  21. LP ( 3) O 3            78. BD*( 1) S 1- O 2         1.64    0.60    0.028
  21. LP ( 3) O 3            80. BD*( 1) S 1- O 4        13.58    0.39    0.066
  21. LP ( 3) O 3            81. BD*( 1) S 1- O 6        26.68    0.39    0.092
  22. LP ( 1) O 4            28. RY*( 3) S 1              0.72    1.54    0.030
  22. LP ( 1) O 4            29. RY*( 4) S 1              0.81    1.52    0.031
  22. LP ( 1) O 4            78. BD*( 1) S 1- O 2         1.15    0.99    0.031
  22. LP ( 1) O 4            79. BD*( 1) S 1- O 3         3.18    0.99    0.052
  23. LP ( 2) O 4            30. RY*( 5) S 1              4.67    1.12    0.065
  23. LP ( 2) O 4            78. BD*( 1) S 1- O 2         1.30    0.66    0.027
  23. LP ( 2) O 4            79. BD*( 1) S 1- O 3         2.01    0.66    0.033
  23. LP ( 2) O 4            81. BD*( 1) S 1- O 6        11.12    0.45    0.067
  24. LP ( 1) O 6            28. RY*( 3) S 1              0.72    1.54    0.030
  24. LP ( 1) O 6            29. RY*( 4) S 1              0.81    1.52    0.031
  24. LP ( 1) O 6            78. BD*( 1) S 1- O 2         3.18    0.99    0.052
  24. LP ( 1) O 6            79. BD*( 1) S 1- O 3         1.15    0.99    0.031
  25. LP ( 2) O 6            30. RY*( 5) S 1              4.67    1.12    0.065
  25. LP ( 2) O 6            78. BD*( 1) S 1- O 2         2.01    0.66    0.033
  25. LP ( 2) O 6            79. BD*( 1) S 1- O 3         1.30    0.66    0.027
  25. LP ( 2) O 6            80. BD*( 1) S 1- O 4        11.12    0.45    0.067


 NATURAL BOND ORBITALS (Summary):

                                                     Principal Delocalizations
           NBO                 Occupancy    Energy   (geminal,vicinal,remote)
 ===============================================================================
 Molecular unit  1  (H2O4S)
   1. BD ( 1) S  1- O  2        1.97829    -1.00963  81(g),80(g),79(g),82(v)
                                                    28(g)
   2. BD ( 1) S  1- O  3        1.97829    -1.00963  80(g),81(g),78(g),83(v)
                                                    28(g)
   3. BD ( 1) S  1- O  4        1.97576    -0.85417  81(g),78(g),79(g),80(g)
                                                    27(g),26(g)
   4. BD ( 1) S  1- O  6        1.97576    -0.85417  80(g),79(g),78(g),81(g)
                                                    27(g),26(g)
   5. BD ( 1) O  4- H  5        1.98690    -0.80205  78(v),79(v)
   6. BD ( 1) O  6- H  7        1.98690    -0.80205  79(v),78(v)
   7. CR ( 1) S  1              2.00000   -87.52140
   8. CR ( 2) S  1              1.99955    -9.68753   80(g),81(g),78(g),79(g)
                                                    39(v),49(v),82(v),83(v)
   9. CR ( 3) S  1              1.99991    -6.16179
  10. CR ( 4) S  1              1.99992    -6.15449
  11. CR ( 5) S  1              1.99992    -6.15986
  12. CR ( 1) O  2              1.99988   -18.99201   28(v),31(v),79(v)
  13. CR ( 1) O  3              1.99988   -18.99201   28(v),31(v),78(v)
  14. CR ( 1) O  4              1.99988   -19.08927   27(v)
  15. CR ( 1) O  6              1.99988   -19.08927   27(v)
  16. LP ( 1) O  2              1.97939    -0.82367   79(v),31(v),32(v),80(v)
  17. LP ( 2) O  2              1.78325    -0.32001   79(v),81(v),26(v),28(v)
                                                    30(v),80(v),29(v),31(v)
  18. LP ( 3) O  2              1.77973    -0.31920   80(v),81(v),29(v),27(v)
                                                    79(v),44(g),26(v)
  19. LP ( 1) O  3              1.97939    -0.82367   78(v),31(v),32(v),81(v)
  20. LP ( 2) O  3              1.78325    -0.32001   78(v),80(v),26(v),28(v)
                                                    30(v),81(v),29(v),31(v)
  21. LP ( 3) O  3              1.77973    -0.31920   81(v),80(v),29(v),27(v)
                                                    78(v),54(g),26(v)
  22. LP ( 1) O  4              1.97632    -0.71024   79(v),78(v),29(v),28(v)
  23. LP ( 2) O  4              1.92959    -0.38065   81(v),30(v),79(v),78(v)
  24. LP ( 1) O  6              1.97632    -0.71024   78(v),79(v),29(v),28(v)
  25. LP ( 2) O  6              1.92959    -0.38065   80(v),30(v),78(v),79(v)
  26. RY*( 1) S  1              0.08053     0.85476
  27. RY*( 2) S  1              0.07685     0.71586
  28. RY*( 3) S  1              0.04819     0.82790
  29. RY*( 4) S  1              0.03525     0.81289
  30. RY*( 5) S  1              0.02202     0.73774
  31. RY*( 6) S  1              0.00787     0.53958
  32. RY*( 7) S  1              0.00295     0.68662
  33. RY*( 8) S  1              0.00085     0.48685
  34. RY*( 9) S  1              0.00040     0.84010
  35. RY*(10) S  1              0.00015     3.04277
  36. RY*( 1) O  2              0.00118     1.73013
  37. RY*( 2) O  2              0.00071     1.12576
  38. RY*( 3) O  2              0.00043     1.08244
  39. RY*( 4) O  2              0.00020     1.43802
  40. RY*( 5) O  2              0.00005     1.90963
  41. RY*( 6) O  2              0.00006     1.88933
  42. RY*( 7) O  2              0.00004     2.20159
  43. RY*( 8) O  2              0.00002     1.82070
  44. RY*( 9) O  2              0.00001     1.96763
  45. RY*(10) O  2              0.00001     3.16205
  46. RY*( 1) O  3              0.00118     1.73013
  47. RY*( 2) O  3              0.00071     1.12576
  48. RY*( 3) O  3              0.00043     1.08244
  49. RY*( 4) O  3              0.00020     1.43802
  50. RY*( 5) O  3              0.00005     1.90963
  51. RY*( 6) O  3              0.00006     1.88933
  52. RY*( 7) O  3              0.00004     2.20159
  53. RY*( 8) O  3              0.00002     1.82070
  54. RY*( 9) O  3              0.00001     1.96763
  55. RY*(10) O  3              0.00001     3.16205
  56. RY*( 1) O  4              0.00207     1.63111
  57. RY*( 2) O  4              0.00098     1.23973
  58. RY*( 3) O  4              0.00052     1.02562
  59. RY*( 4) O  4              0.00014     1.63266
  60. RY*( 5) O  4              0.00010     1.77157
  61. RY*( 6) O  4              0.00007     1.14260
  62. RY*( 7) O  4              0.00003     1.70740
  63. RY*( 8) O  4              0.00004     1.96706
  64. RY*( 9) O  4              0.00001     2.21764
  65. RY*(10) O  4              0.00001     3.57609
  66. RY*( 1) H  5              0.00065     0.62293
  67. RY*( 1) O  6              0.00207     1.63111
  68. RY*( 2) O  6              0.00098     1.23973
  69. RY*( 3) O  6              0.00052     1.02562
  70. RY*( 4) O  6              0.00014     1.63266
  71. RY*( 5) O  6              0.00010     1.77157
  72. RY*( 6) O  6              0.00007     1.14260
  73. RY*( 7) O  6              0.00003     1.70740
  74. RY*( 8) O  6              0.00004     1.96706
  75. RY*( 9) O  6              0.00001     2.21764
  76. RY*(10) O  6              0.00001     3.57609
  77. RY*( 1) H  7              0.00065     0.62293
  78. BD*( 1) S  1- O  2        0.15433     0.27685  79(g),28(g),26(g),39(g)
                                                    31(g),81(g),27(g),30(g)
  79. BD*( 1) S  1- O  3        0.15433     0.27685  78(g),28(g),26(g),49(g)
                                                    31(g),80(g),27(g),30(g)
  80. BD*( 1) S  1- O  4        0.30481     0.06605  81(g),27(g),26(g),79(g)
                                                    78(g),33(g),64(g),82(g)
                                                    32(g),63(g)
  81. BD*( 1) S  1- O  6        0.30481     0.06605  80(g),27(g),26(g),78(g)
                                                    79(g),33(g),75(g),83(g)
                                                    32(g),74(g)
  82. BD*( 1) O  4- H  5        0.00737     0.36692
  83. BD*( 1) O  6- H  7        0.00737     0.36692
          -------------------------------
                 Total Lewis   48.77726  ( 97.5545%)
           Valence non-Lewis    0.93302  (  1.8660%)
           Rydberg non-Lewis    0.28972  (  0.5794%)
          -------------------------------
               Total unit  1   50.00000  (100.0000%)
              Charge unit  1    0.00000


 NATURAL RESONANCE THEORY ANALYSIS:

 Maximum reference structures :    20
 Maximum resonance structures :  1054
 Memory requirements :    6227435 words of   6235429 available

   0 candidate reference structure(s) calculated by SR LEWIS
 Candidate reference structure taken from NBO search
 Total of   1 candidate reference structures.
 Initial loops searched   30 bonding pattern(s); all but  1 were discarded
 Reference   1:  rho*=1.22274, f(w)=0.78402 converged after 328 iterations

                                                fractional accuracy f(w)
                  non-Lewis             -------------------------------------
  Ref     Wgt      density      d(0)      all NBOs     val+core     valence
 ----------------------------------------------------------------------------
   1    1.00000    1.22274    0.07408     0.78402      0.89632      0.89632


 TOPO matrix for the leading resonance structure:

     Atom  1   2   3   4   5   6   7
     ---- --- --- --- --- --- --- ---
   1.  S   0   1   1   1   0   1   0
   2.  O   1   3   0   0   0   0   0
   3.  O   1   0   3   0   0   0   0
   4.  O   1   0   0   2   1   0   0
   5.  H   0   0   0   1   0   0   0
   6.  O   1   0   0   0   0   2   1
   7.  H   0   0   0   0   0   1   0

         Resonance
    RS   Weight(%)                  Added(Removed)
 ---------------------------------------------------------------------------
    1*     50.63                                                            
    2 (2)  16.18    S  1- O  2, ( S  1- O  6), ( O  2),  O  6               
    3 (2)  16.18    S  1- O  3, ( S  1- O  4), ( O  3),  O  4               
    4 (3)   4.70    S  1- O  2, ( S  1- O  3), ( O  2),  O  3               
    5 (3)   4.70   ( S  1- O  2),  S  1- O  3,  O  2, ( O  3)               
    6 (2)   3.16   ( S  1- O  3),  S  1- O  4,  O  3, ( O  4)               
    7 (2)   3.16   ( S  1- O  2),  S  1- O  6,  O  2, ( O  6)               
    8       0.29   ( S  1- O  2), ( S  1- O  3),  S  1,  O  3               
    9       0.29   ( S  1- O  2), ( S  1- O  3),  S  1,  O  2               
   10       0.18   ( S  1- O  2), ( S  1- O  4),  S  1,  O  2               
   11       0.18   ( S  1- O  3), ( S  1- O  4),  S  1,  O  3               
   12       0.18   ( S  1- O  3), ( S  1- O  6),  S  1,  O  3               
   13       0.18   ( S  1- O  2), ( S  1- O  6),  S  1,  O  2               
   14-27    0.01
 ---------------------------------------------------------------------------
          100.00   * Total *                [* = reference structure]


 Natural Bond Order:  (total/covalent/ionic)                                   

     Atom       1      2      3      4      5      6      7
     ----   ------ ------ ------ ------ ------ ------ ------
   1.  S  t 0.0130 1.1208 1.1208 0.8663 0.0000 0.8663 0.0000
          c   ---  0.6266 0.6266 0.4968 0.0000 0.4968 0.0000              
          i   ---  0.4942 0.4942 0.3694 0.0000 0.3694 0.0000              

   2.  O  t 1.1208 2.8763 0.0000 0.0000 0.0000 0.0000 0.0000
          c 0.6266   ---  0.0000 0.0000 0.0000 0.0000 0.0000              
          i 0.4942   ---  0.0000 0.0000 0.0000 0.0000 0.0000              

   3.  O  t 1.1208 0.0000 2.8763 0.0000 0.0000 0.0000 0.0000
          c 0.6266 0.0000   ---  0.0000 0.0000 0.0000 0.0000              
          i 0.4942 0.0000   ---  0.0000 0.0000 0.0000 0.0000              

   4.  O  t 0.8663 0.0000 0.0000 2.1302 1.0000 0.0000 0.0000
          c 0.4968 0.0000 0.0000   ---  0.4734 0.0000 0.0000              
          i 0.3694 0.0000 0.0000   ---  0.5266 0.0000 0.0000              

   5.  H  t 0.0000 0.0000 0.0000 1.0000 0.0000 0.0000 0.0000
          c 0.0000 0.0000 0.0000 0.4734   ---  0.0000 0.0000              
          i 0.0000 0.0000 0.0000 0.5266   ---  0.0000 0.0000              

   6.  O  t 0.8663 0.0000 0.0000 0.0000 0.0000 2.1302 1.0000
          c 0.4968 0.0000 0.0000 0.0000 0.0000   ---  0.4734              
          i 0.3694 0.0000 0.0000 0.0000 0.0000   ---  0.5266              

   7.  H  t 0.0000 0.0000 0.0000 0.0000 0.0000 1.0000 0.0000
          c 0.0000 0.0000 0.0000 0.0000 0.0000 0.4734   ---               
          i 0.0000 0.0000 0.0000 0.0000 0.0000 0.5266   ---               


 Natural Atomic Valencies:                                                     

                      Co-    Electro-
     Atom  Valency  Valency  Valency
     ----  -------  -------  -------
   1.  S    3.9741   2.2468   1.7272
   2.  O    1.1208   0.6266   0.4942
   3.  O    1.1208   0.6266   0.4942
   4.  O    1.8663   0.9703   0.8960
   5.  H    1.0000   0.4734   0.5266
   6.  O    1.8663   0.9703   0.8960
   7.  H    1.0000   0.4734   0.5266


 $NRTSTR
   STR        ! Wgt = 50.63%
     LONE 2 3 3 3 4 2 6 2 END
     BOND S 1 2 S 1 3 S 1 4 S 1 6 S 4 5 S 6 7 END
   END
 $END

 Test job not archived.
 1\1\GINC-SUN\SP\RB3LYP\6-31G(d)\H2O4S1\XAVIER\11-Apr-2009\0\\# B3LYP/6
 -31G* POP=(FULL,NBOREAD) GFPRINT GUESS=READ SYMM=(LOOSE) GEOM=CHECK IO
 P(2/17=2,2/18=1)\\InChI=1/H2O4S/c1-5(2,3)4/h(H2,1,2,3,4)\\0,1\S,0,0.,0
 .,0.1658968429\O,0,-0.0052813617,1.2810374214,0.8373405041\O,0,0.00528
 13617,-1.2810374214,0.8373405041\O,0,-1.2609803682,0.0392124558,-0.863
 695078\H,0,-1.4692225892,-0.8810043662,-1.1163381517\O,0,1.2609803682,
 -0.0392124558,-0.863695078\H,0,1.4692225892,0.8810043662,-1.1163381517
 \\Version=x86-Linux-G03RevB.05\State=1-A\HF=-700.2030519\RMSD=7.694e-0
 6\Dipole=0.,0.,-1.1923141\PG=C02 [C2(S1),X(H2O4)]\\@


 A MATHEMATICIAN IS A MACHINE FOR TURNING COFFEE INTO THEOREMS.
     -- QUOTED BY PAUL ERDOS
 Job cpu time:  0 days  0 hours  0 minutes  8.4 seconds.
 File lengths (MBytes):  RWF=     15 Int=      0 D2E=      0 Chk=      7 Scr=      1
 Normal termination of Gaussian 03 at Sat Apr 11 14:55:31 2009.
