 Entering Gaussian System, Link 0=g03
 Input=no2.nbo.com
 Output=no2.nbo.log
 Initial command:
 /gaussian/g03/l1.exe /scratch/Gau-8245.inp -scrdir=/scratch/
 Entering Link 1 = /gaussian/g03/l1.exe PID=      8246.
  
 Copyright (c) 1988,1990,1992,1993,1995,1998,2003, Gaussian, Inc.
                  All Rights Reserved.
  
 This is the Gaussian(R) 03 program.  It is based on the
 the Gaussian(R) 98 system (copyright 1998, Gaussian, Inc.),
 the Gaussian(R) 94 system (copyright 1995, Gaussian, Inc.),
 the Gaussian 92(TM) system (copyright 1992, Gaussian, Inc.),
 the Gaussian 90(TM) system (copyright 1990, Gaussian, Inc.),
 the Gaussian 88(TM) system (copyright 1988, Gaussian, Inc.),
 the Gaussian 86(TM) system (copyright 1986, Carnegie Mellon
 University), and the Gaussian 82(TM) system (copyright 1983,
 Carnegie Mellon University). Gaussian is a federally registered
 trademark of Gaussian, Inc.
  
 This software contains proprietary and confidential information,
 including trade secrets, belonging to Gaussian, Inc.
  
 This software is provided under written license and may be
 used, copied, transmitted, or stored only in accord with that
 written license.
  
 The following legend is applicable only to US Government
 contracts under DFARS:
  
                    RESTRICTED RIGHTS LEGEND
  
 Use, duplication or disclosure by the US Government is subject
 to restrictions as set forth in subparagraph (c)(1)(ii) of the
 Rights in Technical Data and Computer Software clause at DFARS
 252.227-7013.
  
 Gaussian, Inc.
 Carnegie Office Park, Building 6, Pittsburgh, PA 15106 USA
  
 The following legend is applicable only to US Government
 contracts under FAR:
  
                    RESTRICTED RIGHTS LEGEND
  
 Use, reproduction and disclosure by the US Government is subject
 to restrictions as set forth in subparagraph (c) of the
 Commercial Computer Software - Restricted Rights clause at FAR
 52.227-19.
  
 Gaussian, Inc.
 Carnegie Office Park, Building 6, Pittsburgh, PA 15106 USA
  
  
 ---------------------------------------------------------------
 Warning -- This program may not be used in any manner that
 competes with the business of Gaussian, Inc. or will provide
 assistance to any competitor of Gaussian, Inc.  The licensee
 of this program is prohibited from giving any competitor of
 Gaussian, Inc. access to this program.  By using this program,
 the user acknowledges that Gaussian, Inc. is engaged in the
 business of creating and licensing software in the field of
 computational chemistry and represents and warrants to the
 licensee that it is not a competitor of Gaussian, Inc. and that
 it will not use this program in any manner prohibited above.
 ---------------------------------------------------------------
  

 Cite this work as:
 Gaussian 03, Revision B.05,
 M. J. Frisch, G. W. Trucks, H. B. Schlegel, G. E. Scuseria, 
 M. A. Robb, J. R. Cheeseman, J. A. Montgomery, Jr., T. Vreven, 
 K. N. Kudin, J. C. Burant, J. M. Millam, S. S. Iyengar, J. Tomasi, 
 V. Barone, B. Mennucci, M. Cossi, G. Scalmani, N. Rega, 
 G. A. Petersson, H. Nakatsuji, M. Hada, M. Ehara, K. Toyota, 
 R. Fukuda, J. Hasegawa, M. Ishida, T. Nakajima, Y. Honda, O. Kitao, 
 H. Nakai, M. Klene, X. Li, J. E. Knox, H. P. Hratchian, J. B. Cross, 
 C. Adamo, J. Jaramillo, R. Gomperts, R. E. Stratmann, O. Yazyev, 
 A. J. Austin, R. Cammi, C. Pomelli, J. W. Ochterski, P. Y. Ayala, 
 K. Morokuma, G. A. Voth, P. Salvador, J. J. Dannenberg, 
 V. G. Zakrzewski, S. Dapprich, A. D. Daniels, M. C. Strain, 
 O. Farkas, D. K. Malick, A. D. Rabuck, K. Raghavachari, 
 J. B. Foresman, J. V. Ortiz, Q. Cui, A. G. Baboul, S. Clifford, 
 J. Cioslowski, B. B. Stefanov, G. Liu, A. Liashenko, P. Piskorz, 
 I. Komaromi, R. L. Martin, D. J. Fox, T. Keith, M. A. Al-Laham, 
 C. Y. Peng, A. Nanayakkara, M. Challacombe, P. M. W. Gill, 
 B. Johnson, W. Chen, M. W. Wong, C. Gonzalez, and J. A. Pople, 
 Gaussian, Inc., Pittsburgh PA, 2003.
 
 **********************************************
 Gaussian 03:  x86-Linux-G03RevB.05  8-Nov-2003
                  11-Apr-2009 
 **********************************************
 %chk=no2.chk
 ---------------------------------------------------------------
 # b3lyp/6-31g* pop=(full,nboread) gfprint guess=read geom=check
 ---------------------------------------------------------------
 1/29=2,38=1/1;
 2/40=1/2;
 3/5=1,6=6,7=1,11=2,16=1,24=100,25=1,30=1,74=-5/1,2,3;
 4/5=1/1;
 5/5=2,32=1,38=6/2;
 6/7=3,28=1,40=1/1,7;
 99/5=1,9=1/99;
 ------------------
 InChI=1/NO2/c2-1-3
 ------------------
 No Z-matrix found on checkpoint file.
 Cartesian coordinates read from the checkpoint file:
 no2.chk
 Charge =  0 Multiplicity = 2
  O                                                 0.000000000000      1.106708629605     -0.143637301193
  N                                                 0.000000000000      0.000000000000      0.328313831297
  O                                                 0.000000000000     -1.106708629605     -0.143637301193
 Recover connectivity data from disk.
                          Input orientation:                          
 ---------------------------------------------------------------------
 Center     Atomic     Atomic              Coordinates (Angstroms)
 Number     Number      Type              X           Y           Z
 ---------------------------------------------------------------------
    1          8             0        0.000000    1.106709   -0.143637
    2          7             0        0.000000    0.000000    0.328314
    3          8             0        0.000000   -1.106709   -0.143637
 ---------------------------------------------------------------------
                    Distance matrix (angstroms):
                    1          2          3
     1  O    0.000000
     2  N    1.203138   0.000000
     3  O    2.213417   1.203138   0.000000
 Stoichiometry    NO2(2)
 Framework group  C2V[C2(N),SGV(O2)]
 Deg. of freedom     2
 Full point group                 C2V     NOp   4
 Largest Abelian subgroup         C2V     NOp   4
 Largest concise Abelian subgroup C2      NOp   2
                         Standard orientation:                         
 ---------------------------------------------------------------------
 Center     Atomic     Atomic              Coordinates (Angstroms)
 Number     Number      Type              X           Y           Z
 ---------------------------------------------------------------------
    1          8             0        0.000000    1.106709   -0.143637
    2          7             0        0.000000    0.000000    0.328314
    3          8             0        0.000000   -1.106709   -0.143637
 ---------------------------------------------------------------------
 Rotational constants (GHZ):    232.9585479     12.8984844     12.2217866
 Standard basis: 6-31G(d) (6D, 7F)
 AO basis set:
 Atom O1       Shell     1 S   6     bf    1 -     1          0.000000000000          2.091376220000         -0.271435161870
      0.5484671660D+04  0.1831074430D-02
      0.8252349460D+03  0.1395017220D-01
      0.1880469580D+03  0.6844507810D-01
      0.5296450000D+02  0.2327143360D+00
      0.1689757040D+02  0.4701928980D+00
      0.5799635340D+01  0.3585208530D+00
 Atom O1       Shell     2 SP   3    bf    2 -     5          0.000000000000          2.091376220000         -0.271435161870
      0.1553961625D+02 -0.1107775495D+00  0.7087426823D-01
      0.3599933586D+01 -0.1480262627D+00  0.3397528391D+00
      0.1013761750D+01  0.1130767015D+01  0.7271585773D+00
 Atom O1       Shell     3 SP   1    bf    6 -     9          0.000000000000          2.091376220000         -0.271435161870
      0.2700058226D+00  0.1000000000D+01  0.1000000000D+01
 Atom O1       Shell     4 D   1     bf   10 -    15          0.000000000000          2.091376220000         -0.271435161870
      0.8000000000D+00  0.1000000000D+01
 Atom N2       Shell     5 S   6     bf   16 -    16          0.000000000000          0.000000000000          0.620423227130
      0.4173511460D+04  0.1834772160D-02
      0.6274579110D+03  0.1399462700D-01
      0.1429020930D+03  0.6858655181D-01
      0.4023432930D+02  0.2322408730D+00
      0.1282021290D+02  0.4690699481D+00
      0.4390437010D+01  0.3604551991D+00
 Atom N2       Shell     6 SP   3    bf   17 -    20          0.000000000000          0.000000000000          0.620423227130
      0.1162636186D+02 -0.1149611817D+00  0.6757974388D-01
      0.2716279807D+01 -0.1691174786D+00  0.3239072959D+00
      0.7722183966D+00  0.1145851947D+01  0.7408951398D+00
 Atom N2       Shell     7 SP   1    bf   21 -    24          0.000000000000          0.000000000000          0.620423227130
      0.2120314975D+00  0.1000000000D+01  0.1000000000D+01
 Atom N2       Shell     8 D   1     bf   25 -    30          0.000000000000          0.000000000000          0.620423227130
      0.8000000000D+00  0.1000000000D+01
 Atom O3       Shell     9 S   6     bf   31 -    31          0.000000000000         -2.091376220000         -0.271435161870
      0.5484671660D+04  0.1831074430D-02
      0.8252349460D+03  0.1395017220D-01
      0.1880469580D+03  0.6844507810D-01
      0.5296450000D+02  0.2327143360D+00
      0.1689757040D+02  0.4701928980D+00
      0.5799635340D+01  0.3585208530D+00
 Atom O3       Shell    10 SP   3    bf   32 -    35          0.000000000000         -2.091376220000         -0.271435161870
      0.1553961625D+02 -0.1107775495D+00  0.7087426823D-01
      0.3599933586D+01 -0.1480262627D+00  0.3397528391D+00
      0.1013761750D+01  0.1130767015D+01  0.7271585773D+00
 Atom O3       Shell    11 SP   1    bf   36 -    39          0.000000000000         -2.091376220000         -0.271435161870
      0.2700058226D+00  0.1000000000D+01  0.1000000000D+01
 Atom O3       Shell    12 D   1     bf   40 -    45          0.000000000000         -2.091376220000         -0.271435161870
      0.8000000000D+00  0.1000000000D+01
 There are    19 symmetry adapted basis functions of A1  symmetry.
 There are     5 symmetry adapted basis functions of A2  symmetry.
 There are     7 symmetry adapted basis functions of B1  symmetry.
 There are    14 symmetry adapted basis functions of B2  symmetry.
 Integral buffers will be    262144 words long.
 Raffenetti 2 integral format.
 Two-electron integral symmetry is turned on.
    45 basis functions,    84 primitive gaussians,    45 cartesian basis functions
    12 alpha electrons       11 beta electrons
       nuclear repulsion energy        64.5619706957 Hartrees.
 NAtoms=    3 NActive=    3 NUniq=    2 SFac= 2.76D+00 NAtFMM=   60 Big=F
 One-electron integrals computed using PRISM.
 NBasis=    45 RedAO= T  NBF=    19     5     7    14
 NBsUse=    45 1.00D-06 NBFU=    19     5     7    14
 Initial guess read from the checkpoint file:
 no2.chk
 Initial guess orbital symmetries:
 Alpha Orbitals:
       Occupied  (B2) (A1) (A1) (A1) (B2) (A1) (A1) (B2) (B1) (B2)
                 (A2) (A1)
       Virtual   (B1) (A1) (B2) (A1) (A1) (B2) (B1) (A1) (B2) (A2)
                 (A1) (B1) (B2) (A1) (A2) (B2) (B1) (A1) (B2) (A2)
                 (A1) (B1) (B2) (A1) (B1) (B2) (A1) (A2) (B2) (A1)
                 (A1) (B2) (A1)
 Beta  Orbitals:
       Occupied  (B2) (A1) (A1) (A1) (B2) (A1) (B1) (B2) (A1) (A2)
                 (B2)
       Virtual   (A1) (B1) (A1) (B2) (A1) (B2) (B1) (A1) (A1) (B2)
                 (A2) (A1) (B1) (B2) (A1) (A2) (B2) (B1) (A1) (B2)
                 (A2) (A1) (B2) (B1) (A1) (B1) (B2) (A1) (A2) (B2)
                 (A1) (A1) (B2) (A1)
 <S**2> of initial guess= 0.7533
 Warning!  Cutoffs for single-point calculations used.
 Requested convergence on RMS density matrix=1.00D-04 within 128 cycles.
 Requested convergence on MAX density matrix=1.00D-02.
 Requested convergence on             energy=5.00D-05.
 No special actions if energy rises.
 Keep R1 and R2 integrals in memory in canonical form, NReq=     1597892.
 SCF Done:  E(UB+HF-LYP) =  -205.072192847     A.U. after    1 cycles
             Convg  =    0.6626D-06             -V/T =  2.0086
             S**2   =   0.7533
 Annihilation of the first spin contaminant:
 S**2 before annihilation     0.7533,   after     0.7500

 **********************************************************************

            Population analysis using the SCF density.

 **********************************************************************

 Orbital symmetries:
 Alpha Orbitals:
       Occupied  (B2) (A1) (A1) (A1) (B2) (A1) (A1) (B2) (B1) (B2)
                 (A2) (A1)
       Virtual   (B1) (A1) (B2) (A1) (A1) (B2) (B1) (A1) (B2) (A2)
                 (A1) (B1) (B2) (A1) (A2) (B2) (B1) (A1) (B2) (A2)
                 (A1) (B1) (B2) (A1) (B1) (B2) (A1) (A2) (B2) (A1)
                 (A1) (B2) (A1)
 Beta  Orbitals:
       Occupied  (B2) (A1) (A1) (A1) (B2) (A1) (B1) (B2) (A1) (A2)
                 (B2)
       Virtual   (A1) (B1) (A1) (B2) (A1) (B2) (B1) (A1) (A1) (B2)
                 (A2) (A1) (B1) (B2) (A1) (A2) (B2) (B1) (A1) (B2)
                 (A2) (A1) (B2) (B1) (A1) (B1) (B2) (A1) (A2) (B2)
                 (A1) (A1) (B2) (A1)
 The electronic state is 2-A1.
 Alpha  occ. eigenvalues --  -19.26564 -19.26563 -14.58716  -1.28184  -1.13634
 Alpha  occ. eigenvalues --   -0.67825  -0.57494  -0.57202  -0.56498  -0.38150
 Alpha  occ. eigenvalues --   -0.37743  -0.28776
 Alpha virt. eigenvalues --   -0.09029   0.21037   0.36949   0.58382   0.59071
 Alpha virt. eigenvalues --    0.59287   0.61180   0.77978   0.82018   0.87943
 Alpha virt. eigenvalues --    0.88908   0.93806   0.95245   1.27312   1.37164
 Alpha virt. eigenvalues --    1.38998   1.39938   1.46789   1.71167   1.73082
 Alpha virt. eigenvalues --    1.81274   1.83226   1.83322   2.19679   2.32464
 Alpha virt. eigenvalues --    2.64127   2.69437   2.70379   2.77149   2.85839
 Alpha virt. eigenvalues --    3.40623   3.62599   3.70464
  Beta  occ. eigenvalues --  -19.25673 -19.25671 -14.57653  -1.26315  -1.11482
  Beta  occ. eigenvalues --   -0.64488  -0.55405  -0.54824  -0.52978  -0.36983
  Beta  occ. eigenvalues --   -0.34101
  Beta virt. eigenvalues --   -0.14316  -0.07381   0.22363   0.39522   0.59691
  Beta virt. eigenvalues --    0.59884   0.61970   0.62073   0.78562   0.83806
  Beta virt. eigenvalues --    0.88374   0.91475   0.94467   0.96908   1.28884
  Beta virt. eigenvalues --    1.37681   1.40282   1.42015   1.48850   1.72946
  Beta virt. eigenvalues --    1.74230   1.83395   1.84259   1.85516   2.21393
  Beta virt. eigenvalues --    2.33482   2.67004   2.71450   2.71471   2.78125
  Beta virt. eigenvalues --    2.87524   3.42426   3.63849   3.72433
     Alpha Molecular Orbital Coefficients
                           1         2         3         4         5
                        (B2)--O   (A1)--O   (A1)--O   (A1)--O   (B2)--O
     EIGENVALUES --   -19.26564 -19.26563 -14.58716  -1.28184  -1.13634
   1 1   O  1S          0.70200   0.70203   0.00000  -0.11436  -0.14453
   2        2S          0.01850   0.01867   0.00046   0.26078   0.32687
   3        2PX         0.00000   0.00000   0.00000   0.00000   0.00000
   4        2PY        -0.00094  -0.00102  -0.00011  -0.12851  -0.11168
   5        2PZ         0.00034   0.00048   0.00005   0.04787   0.06480
   6        3S          0.00915   0.00848  -0.00140   0.18974   0.30298
   7        3PX         0.00000   0.00000   0.00000   0.00000   0.00000
   8        3PY        -0.00096  -0.00109   0.00059  -0.04690  -0.04768
   9        3PZ         0.00061   0.00040  -0.00022   0.01454   0.03009
  10        4XX        -0.00568  -0.00561   0.00028  -0.00507  -0.00773
  11        4YY        -0.00528  -0.00523  -0.00028   0.01916   0.00321
  12        4ZZ        -0.00559  -0.00534   0.00020  -0.00281   0.00020
  13        4XY         0.00000   0.00000   0.00000   0.00000   0.00000
  14        4XZ         0.00000   0.00000   0.00000   0.00000   0.00000
  15        4YZ        -0.00009  -0.00037   0.00020  -0.00992  -0.01122
  16 2   N  1S          0.00000   0.00014   0.99280  -0.15568   0.00000
  17        2S          0.00000   0.00083   0.03481   0.35084   0.00000
  18        2PX         0.00000   0.00000   0.00000   0.00000   0.00000
  19        2PY         0.00015   0.00000   0.00000   0.00000   0.32247
  20        2PZ         0.00000  -0.00002  -0.00120  -0.10685   0.00000
  21        3S          0.00000  -0.00491   0.00447   0.12948   0.00000
  22        3PX         0.00000   0.00000   0.00000   0.00000   0.00000
  23        3PY        -0.00330   0.00000   0.00000   0.00000  -0.00522
  24        3PZ         0.00000   0.00120  -0.00008  -0.00118   0.00000
  25        4XX         0.00000   0.00038  -0.00827  -0.01617   0.00000
  26        4YY         0.00000  -0.00121  -0.00759   0.02041   0.00000
  27        4ZZ         0.00000   0.00018  -0.00791  -0.00646   0.00000
  28        4XY         0.00000   0.00000   0.00000   0.00000   0.00000
  29        4XZ         0.00000   0.00000   0.00000   0.00000   0.00000
  30        4YZ         0.00064   0.00000   0.00000   0.00000  -0.03107
  31 3   O  1S         -0.70200   0.70203   0.00000  -0.11436   0.14453
  32        2S         -0.01850   0.01867   0.00046   0.26078  -0.32687
  33        2PX         0.00000   0.00000   0.00000   0.00000   0.00000
  34        2PY        -0.00094   0.00102   0.00011   0.12851  -0.11168
  35        2PZ        -0.00034   0.00048   0.00005   0.04787  -0.06480
  36        3S         -0.00915   0.00848  -0.00140   0.18974  -0.30298
  37        3PX         0.00000   0.00000   0.00000   0.00000   0.00000
  38        3PY        -0.00096   0.00109  -0.00059   0.04690  -0.04768
  39        3PZ        -0.00061   0.00040  -0.00022   0.01454  -0.03009
  40        4XX         0.00568  -0.00561   0.00028  -0.00507   0.00773
  41        4YY         0.00528  -0.00523  -0.00028   0.01916  -0.00321
  42        4ZZ         0.00559  -0.00534   0.00020  -0.00281  -0.00020
  43        4XY         0.00000   0.00000   0.00000   0.00000   0.00000
  44        4XZ         0.00000   0.00000   0.00000   0.00000   0.00000
  45        4YZ        -0.00009   0.00037  -0.00020   0.00992  -0.01122
                           6         7         8         9        10
                        (A1)--O   (A1)--O   (B2)--O   (B1)--O   (B2)--O
     EIGENVALUES --    -0.67825  -0.57494  -0.57202  -0.56498  -0.38150
   1 1   O  1S         -0.11464  -0.03464   0.07994   0.00000  -0.00268
   2        2S          0.25520   0.07316  -0.17056   0.00000   0.00770
   3        2PX         0.00000   0.00000   0.00000   0.31333   0.00000
   4        2PY         0.18211   0.24150  -0.29363   0.00000   0.29188
   5        2PZ        -0.13999   0.20996   0.22760   0.00000   0.40251
   6        3S          0.40081   0.13869  -0.30767   0.00000  -0.02346
   7        3PX         0.00000   0.00000   0.00000   0.16658   0.00000
   8        3PY         0.06309   0.11862  -0.13580   0.00000   0.20089
   9        3PZ        -0.06242   0.11113   0.11305   0.00000   0.24958
  10        4XX        -0.00160   0.00092  -0.00134   0.00000   0.00168
  11        4YY        -0.02021  -0.02607   0.01818   0.00000  -0.01703
  12        4ZZ        -0.00664   0.01325   0.00561   0.00000   0.01327
  13        4XY         0.00000   0.00000   0.00000  -0.02795   0.00000
  14        4XZ         0.00000   0.00000   0.00000   0.01103   0.00000
  15        4YZ         0.01521  -0.01169  -0.01580   0.00000  -0.00946
  16 2   N  1S          0.13750  -0.01611   0.00000   0.00000   0.00000
  17        2S         -0.34631   0.02592   0.00000   0.00000   0.00000
  18        2PX         0.00000   0.00000   0.00000   0.46947   0.00000
  19        2PY         0.00000   0.00000   0.36033   0.00000  -0.05339
  20        2PZ        -0.12246   0.46579   0.00000   0.00000   0.00000
  21        3S         -0.38776   0.09436   0.00000   0.00000   0.00000
  22        3PX         0.00000   0.00000   0.00000   0.22532   0.00000
  23        3PY         0.00000   0.00000   0.08581   0.00000   0.06722
  24        3PZ        -0.03911   0.20364   0.00000   0.00000   0.00000
  25        4XX         0.00158   0.00350   0.00000   0.00000   0.00000
  26        4YY         0.01520   0.01782   0.00000   0.00000   0.00000
  27        4ZZ         0.00710  -0.02571   0.00000   0.00000   0.00000
  28        4XY         0.00000   0.00000   0.00000   0.00000   0.00000
  29        4XZ         0.00000   0.00000   0.00000  -0.01987   0.00000
  30        4YZ         0.00000   0.00000  -0.00509   0.00000   0.04135
  31 3   O  1S         -0.11464  -0.03464  -0.07994   0.00000   0.00268
  32        2S          0.25520   0.07316   0.17056   0.00000  -0.00770
  33        2PX         0.00000   0.00000   0.00000   0.31333   0.00000
  34        2PY        -0.18211  -0.24150  -0.29363   0.00000   0.29188
  35        2PZ        -0.13999   0.20996  -0.22760   0.00000  -0.40251
  36        3S          0.40081   0.13869   0.30767   0.00000   0.02346
  37        3PX         0.00000   0.00000   0.00000   0.16658   0.00000
  38        3PY        -0.06309  -0.11862  -0.13580   0.00000   0.20089
  39        3PZ        -0.06242   0.11113  -0.11305   0.00000  -0.24958
  40        4XX        -0.00160   0.00092   0.00134   0.00000  -0.00168
  41        4YY        -0.02021  -0.02607  -0.01818   0.00000   0.01703
  42        4ZZ        -0.00664   0.01325  -0.00561   0.00000  -0.01327
  43        4XY         0.00000   0.00000   0.00000   0.02795   0.00000
  44        4XZ         0.00000   0.00000   0.00000   0.01103   0.00000
  45        4YZ        -0.01521   0.01169  -0.01580   0.00000  -0.00946
                          11        12        13        14        15
                        (A2)--O   (A1)--O   (B1)--V   (A1)--V   (B2)--V
     EIGENVALUES --    -0.37743  -0.28776  -0.09029   0.21037   0.36949
   1 1   O  1S          0.00000   0.01441   0.00000   0.07476   0.08317
   2        2S          0.00000  -0.05399   0.00000  -0.19899  -0.19849
   3        2PX         0.48190   0.00000  -0.39034   0.00000   0.00000
   4        2PY         0.00000   0.04791   0.00000   0.39270   0.14946
   5        2PZ         0.00000  -0.42252   0.00000   0.00404  -0.21825
   6        3S          0.00000  -0.07443   0.00000  -0.89053  -1.64395
   7        3PX         0.32559   0.00000  -0.35513   0.00000   0.00000
   8        3PY         0.00000   0.03787   0.00000   0.74623   0.83700
   9        3PZ         0.00000  -0.31759   0.00000  -0.04507  -0.60133
  10        4XX         0.00000  -0.00188   0.00000   0.00662  -0.00481
  11        4YY         0.00000  -0.00685   0.00000   0.00700  -0.02448
  12        4ZZ         0.00000  -0.00063   0.00000  -0.01956   0.01614
  13        4XY        -0.01987   0.00000  -0.00930   0.00000   0.00000
  14        4XZ         0.00875   0.00000   0.00656   0.00000   0.00000
  15        4YZ         0.00000   0.00372   0.00000   0.01131  -0.00251
  16 2   N  1S          0.00000  -0.07053   0.00000  -0.12516   0.00000
  17        2S          0.00000   0.13502   0.00000   0.23744   0.00000
  18        2PX         0.00000   0.00000   0.57204   0.00000   0.00000
  19        2PY         0.00000   0.00000   0.00000   0.00000   0.56169
  20        2PZ         0.00000   0.40941   0.00000  -0.43183   0.00000
  21        3S          0.00000   0.54090   0.00000   2.01895   0.00000
  22        3PX         0.00000   0.00000   0.46862   0.00000   0.00000
  23        3PY         0.00000   0.00000   0.00000   0.00000   2.45404
  24        3PZ         0.00000   0.21101   0.00000  -0.83840   0.00000
  25        4XX         0.00000   0.00368   0.00000   0.02265   0.00000
  26        4YY         0.00000  -0.05754   0.00000  -0.07316   0.00000
  27        4ZZ         0.00000   0.01744   0.00000  -0.00787   0.00000
  28        4XY         0.05074   0.00000   0.00000   0.00000   0.00000
  29        4XZ         0.00000   0.00000   0.01245   0.00000   0.00000
  30        4YZ         0.00000   0.00000   0.00000   0.00000   0.01952
  31 3   O  1S          0.00000   0.01441   0.00000   0.07476  -0.08317
  32        2S          0.00000  -0.05399   0.00000  -0.19899   0.19849
  33        2PX        -0.48190   0.00000  -0.39034   0.00000   0.00000
  34        2PY         0.00000  -0.04791   0.00000  -0.39270   0.14946
  35        2PZ         0.00000  -0.42252   0.00000   0.00404   0.21825
  36        3S          0.00000  -0.07443   0.00000  -0.89053   1.64395
  37        3PX        -0.32559   0.00000  -0.35513   0.00000   0.00000
  38        3PY         0.00000  -0.03787   0.00000  -0.74623   0.83700
  39        3PZ         0.00000  -0.31759   0.00000  -0.04507   0.60133
  40        4XX         0.00000  -0.00188   0.00000   0.00662   0.00481
  41        4YY         0.00000  -0.00685   0.00000   0.00700   0.02448
  42        4ZZ         0.00000  -0.00063   0.00000  -0.01956  -0.01614
  43        4XY        -0.01987   0.00000   0.00930   0.00000   0.00000
  44        4XZ        -0.00875   0.00000   0.00656   0.00000   0.00000
  45        4YZ         0.00000  -0.00372   0.00000  -0.01131  -0.00251
                          16        17        18        19        20
                        (A1)--V   (A1)--V   (B2)--V   (B1)--V   (A1)--V
     EIGENVALUES --     0.58382   0.59071   0.59287   0.61180   0.77978
   1 1   O  1S         -0.01005   0.00831  -0.00817   0.00000   0.01584
   2        2S         -0.31201  -0.14316  -0.08412   0.00000  -0.16735
   3        2PX         0.00000   0.00000   0.00000  -0.22654   0.00000
   4        2PY        -0.12484  -0.09622  -0.29075   0.00000  -0.51114
   5        2PZ         0.07839   0.24296   0.01678   0.00000  -0.04122
   6        3S          0.30098  -0.58763  -0.90786   0.00000  -0.19943
   7        3PX         0.00000   0.00000   0.00000  -0.05739   0.00000
   8        3PY         0.03023   0.57303   0.36571   0.00000   1.08514
   9        3PZ        -0.10913  -0.11224  -0.24609   0.00000  -0.21324
  10        4XX        -0.07317   0.00348   0.00963   0.00000  -0.06314
  11        4YY        -0.15121  -0.19851  -0.16309   0.00000  -0.12288
  12        4ZZ        -0.11169  -0.01403  -0.03295   0.00000  -0.07622
  13        4XY         0.00000   0.00000   0.00000   0.06097   0.00000
  14        4XZ         0.00000   0.00000   0.00000  -0.02145   0.00000
  15        4YZ         0.07421   0.04144   0.11053   0.00000   0.01279
  16 2   N  1S          0.01493   0.00296   0.00000   0.00000   0.04100
  17        2S         -1.07887  -0.23400   0.00000   0.00000   0.34499
  18        2PX         0.00000   0.00000   0.00000  -0.85142   0.00000
  19        2PY         0.00000   0.00000  -0.78937   0.00000   0.00000
  20        2PZ        -0.29781   0.71371   0.00000   0.00000  -0.20535
  21        3S          1.60364   1.60612   0.00000   0.00000   0.88816
  22        3PX         0.00000   0.00000   0.00000   1.19571   0.00000
  23        3PY         0.00000   0.00000   2.13483   0.00000   0.00000
  24        3PZ         0.34502  -1.53376   0.00000   0.00000  -0.19303
  25        4XX        -0.19102  -0.03927   0.00000   0.00000  -0.02791
  26        4YY        -0.15996   0.17745   0.00000   0.00000   0.34538
  27        4ZZ        -0.18832  -0.07891   0.00000   0.00000   0.07068
  28        4XY         0.00000   0.00000   0.00000   0.00000   0.00000
  29        4XZ         0.00000   0.00000   0.00000   0.04276   0.00000
  30        4YZ         0.00000   0.00000  -0.12939   0.00000   0.00000
  31 3   O  1S         -0.01005   0.00831   0.00817   0.00000   0.01584
  32        2S         -0.31201  -0.14316   0.08412   0.00000  -0.16735
  33        2PX         0.00000   0.00000   0.00000  -0.22654   0.00000
  34        2PY         0.12484   0.09622  -0.29075   0.00000   0.51114
  35        2PZ         0.07839   0.24296  -0.01678   0.00000  -0.04122
  36        3S          0.30098  -0.58763   0.90786   0.00000  -0.19943
  37        3PX         0.00000   0.00000   0.00000  -0.05739   0.00000
  38        3PY        -0.03023  -0.57303   0.36571   0.00000  -1.08514
  39        3PZ        -0.10913  -0.11224   0.24609   0.00000  -0.21324
  40        4XX        -0.07317   0.00348  -0.00963   0.00000  -0.06314
  41        4YY        -0.15121  -0.19851   0.16309   0.00000  -0.12288
  42        4ZZ        -0.11169  -0.01403   0.03295   0.00000  -0.07622
  43        4XY         0.00000   0.00000   0.00000  -0.06097   0.00000
  44        4XZ         0.00000   0.00000   0.00000  -0.02145   0.00000
  45        4YZ        -0.07421  -0.04144   0.11053   0.00000  -0.01279
                          21        22        23        24        25
                        (B2)--V   (A2)--V   (A1)--V   (B1)--V   (B2)--V
     EIGENVALUES --     0.82018   0.87943   0.88908   0.93806   0.95245
   1 1   O  1S         -0.00458   0.00000  -0.00338   0.00000   0.00476
   2        2S         -0.38301   0.00000  -0.01510   0.00000   0.01707
   3        2PX         0.00000  -0.65333   0.00000  -0.61201   0.00000
   4        2PY        -0.35519   0.00000   0.14969   0.00000   0.33911
   5        2PZ         0.41254   0.00000   0.55557   0.00000   0.47032
   6        3S          0.80952   0.00000   0.39738   0.00000  -0.52223
   7        3PX         0.00000   0.81472   0.00000   1.01995   0.00000
   8        3PY         0.51392   0.00000  -0.30814   0.00000  -0.43419
   9        3PZ        -0.41561   0.00000  -0.92410   0.00000  -0.80551
  10        4XX        -0.13655   0.00000  -0.07125   0.00000   0.04452
  11        4YY        -0.12809   0.00000   0.00223   0.00000  -0.07112
  12        4ZZ        -0.15860   0.00000   0.01226   0.00000   0.07979
  13        4XY         0.00000   0.02989   0.00000   0.01606   0.00000
  14        4XZ         0.00000   0.00387   0.00000  -0.04894   0.00000
  15        4YZ        -0.00306   0.00000  -0.01250   0.00000  -0.04757
  16 2   N  1S          0.00000   0.00000   0.02349   0.00000   0.00000
  17        2S          0.00000   0.00000   0.26381   0.00000   0.00000
  18        2PX         0.00000   0.00000   0.00000   0.27990   0.00000
  19        2PY         0.17412   0.00000   0.00000   0.00000  -0.15813
  20        2PZ         0.00000   0.00000  -0.25236   0.00000   0.00000
  21        3S          0.00000   0.00000  -0.68951   0.00000   0.00000
  22        3PX         0.00000   0.00000   0.00000  -1.01464   0.00000
  23        3PY        -0.40188   0.00000   0.00000   0.00000   0.97751
  24        3PZ         0.00000   0.00000   1.08647   0.00000   0.00000
  25        4XX         0.00000   0.00000  -0.05111   0.00000   0.00000
  26        4YY         0.00000   0.00000   0.17666   0.00000   0.00000
  27        4ZZ         0.00000   0.00000   0.03574   0.00000   0.00000
  28        4XY         0.00000  -0.08716   0.00000   0.00000   0.00000
  29        4XZ         0.00000   0.00000   0.00000  -0.04044   0.00000
  30        4YZ        -0.13956   0.00000   0.00000   0.00000   0.15854
  31 3   O  1S          0.00458   0.00000  -0.00338   0.00000  -0.00476
  32        2S          0.38301   0.00000  -0.01510   0.00000  -0.01707
  33        2PX         0.00000   0.65333   0.00000  -0.61201   0.00000
  34        2PY        -0.35519   0.00000  -0.14969   0.00000   0.33911
  35        2PZ        -0.41254   0.00000   0.55557   0.00000  -0.47032
  36        3S         -0.80952   0.00000   0.39738   0.00000   0.52223
  37        3PX         0.00000  -0.81472   0.00000   1.01995   0.00000
  38        3PY         0.51392   0.00000   0.30814   0.00000  -0.43419
  39        3PZ         0.41561   0.00000  -0.92410   0.00000   0.80551
  40        4XX         0.13655   0.00000  -0.07125   0.00000  -0.04452
  41        4YY         0.12809   0.00000   0.00223   0.00000   0.07112
  42        4ZZ         0.15860   0.00000   0.01226   0.00000  -0.07979
  43        4XY         0.00000   0.02989   0.00000  -0.01606   0.00000
  44        4XZ         0.00000  -0.00387   0.00000  -0.04894   0.00000
  45        4YZ        -0.00306   0.00000   0.01250   0.00000  -0.04757
                          26        27        28        29        30
                        (A1)--V   (A2)--V   (B2)--V   (B1)--V   (A1)--V
     EIGENVALUES --     1.27312   1.37164   1.38998   1.39938   1.46789
   1 1   O  1S          0.06337   0.00000  -0.06485   0.00000   0.03559
   2        2S          0.95259   0.00000  -1.19322   0.00000   0.70034
   3        2PX         0.00000  -0.13956   0.00000   0.01689   0.00000
   4        2PY        -0.12251   0.00000   0.25222   0.00000  -0.12095
   5        2PZ         0.04071   0.00000  -0.15890   0.00000   0.08992
   6        3S         -3.40613   0.00000   4.27866   0.00000  -2.41730
   7        3PX         0.00000  -0.05817   0.00000   0.13429   0.00000
   8        3PY         1.35911   0.00000  -1.40494   0.00000   1.07389
   9        3PZ        -0.40107   0.00000   0.99530   0.00000  -0.17414
  10        4XX         0.46825   0.00000  -0.10677   0.00000   0.00007
  11        4YY         0.17707   0.00000  -0.35201   0.00000   0.37194
  12        4ZZ         0.11652   0.00000  -0.41696   0.00000   0.08831
  13        4XY         0.00000  -0.31643   0.00000   0.30816   0.00000
  14        4XZ         0.00000   0.26361   0.00000   0.24687   0.00000
  15        4YZ        -0.12622   0.00000   0.08951   0.00000   0.27436
  16 2   N  1S         -0.01059   0.00000   0.00000   0.00000   0.00278
  17        2S         -0.60321   0.00000   0.00000   0.00000  -0.45072
  18        2PX         0.00000   0.00000   0.00000   0.16363   0.00000
  19        2PY         0.00000   0.00000   0.18252   0.00000   0.00000
  20        2PZ        -0.07992   0.00000   0.00000   0.00000   0.18824
  21        3S          4.65416   0.00000   0.00000   0.00000   3.33488
  22        3PX         0.00000   0.00000   0.00000  -0.17393   0.00000
  23        3PY         0.00000   0.00000  -3.52616   0.00000   0.00000
  24        3PZ        -1.22866   0.00000   0.00000   0.00000  -1.06947
  25        4XX         0.22911   0.00000   0.00000   0.00000  -0.41568
  26        4YY         0.13605   0.00000   0.00000   0.00000  -0.04817
  27        4ZZ        -0.45515   0.00000   0.00000   0.00000   0.48819
  28        4XY         0.00000   0.58063   0.00000   0.00000   0.00000
  29        4XZ         0.00000   0.00000   0.00000   0.70482   0.00000
  30        4YZ         0.00000   0.00000   0.09195   0.00000   0.00000
  31 3   O  1S          0.06337   0.00000   0.06485   0.00000   0.03559
  32        2S          0.95259   0.00000   1.19322   0.00000   0.70034
  33        2PX         0.00000   0.13956   0.00000   0.01689   0.00000
  34        2PY         0.12251   0.00000   0.25222   0.00000   0.12095
  35        2PZ         0.04071   0.00000   0.15890   0.00000   0.08992
  36        3S         -3.40613   0.00000  -4.27866   0.00000  -2.41730
  37        3PX         0.00000   0.05817   0.00000   0.13429   0.00000
  38        3PY        -1.35911   0.00000  -1.40494   0.00000  -1.07389
  39        3PZ        -0.40107   0.00000  -0.99530   0.00000  -0.17414
  40        4XX         0.46825   0.00000   0.10677   0.00000   0.00007
  41        4YY         0.17707   0.00000   0.35201   0.00000   0.37194
  42        4ZZ         0.11652   0.00000   0.41696   0.00000   0.08831
  43        4XY         0.00000  -0.31643   0.00000  -0.30816   0.00000
  44        4XZ         0.00000  -0.26361   0.00000   0.24687   0.00000
  45        4YZ         0.12622   0.00000   0.08951   0.00000  -0.27436
                          31        32        33        34        35
                        (B2)--V   (A2)--V   (A1)--V   (B1)--V   (B2)--V
     EIGENVALUES --     1.71167   1.73082   1.81274   1.83226   1.83322
   1 1   O  1S          0.02042   0.00000   0.02039   0.00000   0.02647
   2        2S          0.29311   0.00000   0.25824   0.00000   0.05958
   3        2PX         0.00000   0.03950   0.00000  -0.08883   0.00000
   4        2PY         0.12974   0.00000   0.06007   0.00000   0.29168
   5        2PZ         0.04582   0.00000  -0.13799   0.00000   0.08996
   6        3S         -1.66862   0.00000  -1.42056   0.00000  -1.34618
   7        3PX         0.00000  -0.04644   0.00000   0.15836   0.00000
   8        3PY         0.44060   0.00000   0.62255   0.00000   0.20479
   9        3PZ        -0.43410   0.00000   0.03713   0.00000  -0.49918
  10        4XX         0.53228   0.00000  -0.49821   0.00000  -0.25717
  11        4YY         0.12132   0.00000  -0.00735   0.00000   0.39368
  12        4ZZ        -0.52369   0.00000   0.61155   0.00000  -0.07077
  13        4XY         0.00000   0.41583   0.00000  -0.13067   0.00000
  14        4XZ         0.00000   0.57329   0.00000   0.67452   0.00000
  15        4YZ        -0.14381   0.00000  -0.03250   0.00000   0.48034
  16 2   N  1S          0.00000   0.00000  -0.04337   0.00000   0.00000
  17        2S          0.00000   0.00000  -0.40670   0.00000   0.00000
  18        2PX         0.00000   0.00000   0.00000  -0.15351   0.00000
  19        2PY        -0.01651   0.00000   0.00000   0.00000   0.10763
  20        2PZ         0.00000   0.00000  -0.08262   0.00000   0.00000
  21        3S          0.00000   0.00000   2.40246   0.00000   0.00000
  22        3PX         0.00000   0.00000   0.00000  -0.21331   0.00000
  23        3PY         1.81922   0.00000   0.00000   0.00000   1.76711
  24        3PZ         0.00000   0.00000  -0.92534   0.00000   0.00000
  25        4XX         0.00000   0.00000  -0.10188   0.00000   0.00000
  26        4YY         0.00000   0.00000   0.26858   0.00000   0.00000
  27        4ZZ         0.00000   0.00000  -0.34397   0.00000   0.00000
  28        4XY         0.00000  -0.00876   0.00000   0.00000   0.00000
  29        4XZ         0.00000   0.00000   0.00000  -0.31936   0.00000
  30        4YZ        -0.35528   0.00000   0.00000   0.00000  -0.41669
  31 3   O  1S         -0.02042   0.00000   0.02039   0.00000  -0.02647
  32        2S         -0.29311   0.00000   0.25824   0.00000  -0.05958
  33        2PX         0.00000  -0.03950   0.00000  -0.08883   0.00000
  34        2PY         0.12974   0.00000  -0.06007   0.00000   0.29168
  35        2PZ        -0.04582   0.00000  -0.13799   0.00000  -0.08996
  36        3S          1.66862   0.00000  -1.42056   0.00000   1.34618
  37        3PX         0.00000   0.04644   0.00000   0.15836   0.00000
  38        3PY         0.44060   0.00000  -0.62255   0.00000   0.20479
  39        3PZ         0.43410   0.00000   0.03713   0.00000   0.49918
  40        4XX        -0.53228   0.00000  -0.49821   0.00000   0.25717
  41        4YY        -0.12132   0.00000  -0.00735   0.00000  -0.39368
  42        4ZZ         0.52369   0.00000   0.61155   0.00000   0.07077
  43        4XY         0.00000   0.41583   0.00000   0.13067   0.00000
  44        4XZ         0.00000  -0.57329   0.00000   0.67452   0.00000
  45        4YZ        -0.14381   0.00000   0.03250   0.00000   0.48034
                          36        37        38        39        40
                        (A1)--V   (B1)--V   (B2)--V   (A1)--V   (A2)--V
     EIGENVALUES --     2.19679   2.32464   2.64127   2.69437   2.70379
   1 1   O  1S          0.00378   0.00000   0.01523   0.05112   0.00000
   2        2S         -0.02940   0.00000   0.35492   0.60739   0.00000
   3        2PX         0.00000  -0.06530   0.00000   0.00000  -0.06769
   4        2PY         0.22463   0.00000  -0.35535  -0.02465   0.00000
   5        2PZ        -0.17097   0.00000   0.10491   0.01418   0.00000
   6        3S         -0.83290   0.00000  -0.36278  -2.40115   0.00000
   7        3PX         0.00000   0.42545   0.00000   0.00000  -0.28561
   8        3PY         0.33818   0.00000   0.06541   1.41958   0.00000
   9        3PZ         0.20518   0.00000  -0.27859  -0.11654   0.00000
  10        4XX         0.11713   0.00000   0.20246   0.45665   0.00000
  11        4YY        -0.10929   0.00000   0.50859  -0.83191   0.00000
  12        4ZZ        -0.13747   0.00000  -0.35794   0.60931   0.00000
  13        4XY         0.00000  -0.73762   0.00000   0.00000   0.64595
  14        4XZ         0.00000   0.03324   0.00000   0.00000  -0.40345
  15        4YZ        -0.43747   0.00000   0.34898   0.04949   0.00000
  16 2   N  1S         -0.09416   0.00000   0.00000   0.10039   0.00000
  17        2S         -0.44340   0.00000   0.00000   0.13763   0.00000
  18        2PX         0.00000  -0.18663   0.00000   0.00000   0.00000
  19        2PY         0.00000   0.00000  -0.06871   0.00000   0.00000
  20        2PZ         0.00139   0.00000   0.00000  -0.49836   0.00000
  21        3S          2.02386   0.00000   0.00000   2.79303   0.00000
  22        3PX         0.00000  -0.62397   0.00000   0.00000   0.00000
  23        3PY         0.00000   0.00000  -0.02474   0.00000   0.00000
  24        3PZ        -0.94077   0.00000   0.00000  -1.34455   0.00000
  25        4XX        -1.08537   0.00000   0.00000   0.08108   0.00000
  26        4YY         0.37246   0.00000   0.00000   0.19081   0.00000
  27        4ZZ         0.18405   0.00000   0.00000   0.97732   0.00000
  28        4XY         0.00000   0.00000   0.00000   0.00000   1.16186
  29        4XZ         0.00000   0.75678   0.00000   0.00000   0.00000
  30        4YZ         0.00000   0.00000   1.22266   0.00000   0.00000
  31 3   O  1S          0.00378   0.00000  -0.01523   0.05112   0.00000
  32        2S         -0.02940   0.00000  -0.35492   0.60739   0.00000
  33        2PX         0.00000  -0.06530   0.00000   0.00000   0.06769
  34        2PY        -0.22463   0.00000  -0.35535   0.02465   0.00000
  35        2PZ        -0.17097   0.00000  -0.10491   0.01418   0.00000
  36        3S         -0.83290   0.00000   0.36278  -2.40115   0.00000
  37        3PX         0.00000   0.42545   0.00000   0.00000   0.28561
  38        3PY        -0.33818   0.00000   0.06541  -1.41958   0.00000
  39        3PZ         0.20518   0.00000   0.27859  -0.11654   0.00000
  40        4XX         0.11713   0.00000  -0.20246   0.45665   0.00000
  41        4YY        -0.10929   0.00000  -0.50859  -0.83191   0.00000
  42        4ZZ        -0.13747   0.00000   0.35794   0.60931   0.00000
  43        4XY         0.00000   0.73762   0.00000   0.00000   0.64595
  44        4XZ         0.00000   0.03324   0.00000   0.00000   0.40345
  45        4YZ         0.43747   0.00000   0.34898  -0.04949   0.00000
                          41        42        43        44        45
                        (B2)--V   (A1)--V   (A1)--V   (B2)--V   (A1)--V
     EIGENVALUES --     2.77149   2.85839   3.40623   3.62599   3.70464
   1 1   O  1S         -0.00483  -0.01364  -0.24902  -0.37467   0.25458
   2        2S         -0.66167   0.34580   0.16108  -0.20886   0.23780
   3        2PX         0.00000   0.00000   0.00000   0.00000   0.00000
   4        2PY        -0.07586   0.23253  -0.22312   0.13917  -0.37039
   5        2PZ        -0.00532  -0.16598   0.13454  -0.08287   0.17642
   6        3S          2.30549  -1.56916   2.84382   4.74131  -3.00907
   7        3PX         0.00000   0.00000   0.00000   0.00000   0.00000
   8        3PY        -1.22562   0.95427  -0.95101  -1.14723   0.63551
   9        3PZ         0.66626  -0.45648   0.40949   0.71947   0.03009
  10        4XX        -0.40350   0.20042  -0.92509  -1.38132   0.79005
  11        4YY         0.84097  -0.54304  -0.48226  -0.99887   0.90853
  12        4ZZ        -0.16003  -0.18140  -0.70301  -1.22060   1.04573
  13        4XY         0.00000   0.00000   0.00000   0.00000   0.00000
  14        4XZ         0.00000   0.00000   0.00000   0.00000   0.00000
  15        4YZ        -0.57362   0.72468  -0.44614  -0.18336  -0.26845
  16 2   N  1S          0.00000  -0.15763  -0.21366   0.00000  -0.32951
  17        2S          0.00000   1.08571   0.75559   0.00000   0.60351
  18        2PX         0.00000   0.00000   0.00000   0.00000   0.00000
  19        2PY        -1.18098   0.00000   0.00000  -0.02031   0.00000
  20        2PZ         0.00000  -0.34640   0.16026   0.00000   0.20563
  21        3S          0.00000   3.12198  -2.05903   0.00000   3.72109
  22        3PX         0.00000   0.00000   0.00000   0.00000   0.00000
  23        3PY        -1.92240   0.00000   0.00000  -2.56578   0.00000
  24        3PZ         0.00000  -0.53797   0.62676   0.00000  -0.90536
  25        4XX         0.00000  -0.91499  -0.40272   0.00000  -1.00951
  26        4YY         0.00000   0.85445  -1.61060   0.00000  -1.78203
  27        4ZZ         0.00000  -0.95020  -0.44029   0.00000  -0.82518
  28        4XY         0.00000   0.00000   0.00000   0.00000   0.00000
  29        4XZ         0.00000   0.00000   0.00000   0.00000   0.00000
  30        4YZ         0.50935   0.00000   0.00000   0.08690   0.00000
  31 3   O  1S          0.00483  -0.01364  -0.24902   0.37467   0.25458
  32        2S          0.66167   0.34580   0.16108   0.20886   0.23780
  33        2PX         0.00000   0.00000   0.00000   0.00000   0.00000
  34        2PY        -0.07586  -0.23253   0.22312   0.13917   0.37039
  35        2PZ         0.00532  -0.16598   0.13454   0.08287   0.17642
  36        3S         -2.30549  -1.56916   2.84382  -4.74131  -3.00907
  37        3PX         0.00000   0.00000   0.00000   0.00000   0.00000
  38        3PY        -1.22562  -0.95427   0.95101  -1.14723  -0.63551
  39        3PZ        -0.66626  -0.45648   0.40949  -0.71947   0.03009
  40        4XX         0.40350   0.20042  -0.92509   1.38132   0.79005
  41        4YY        -0.84097  -0.54304  -0.48226   0.99887   0.90853
  42        4ZZ         0.16003  -0.18140  -0.70301   1.22060   1.04573
  43        4XY         0.00000   0.00000   0.00000   0.00000   0.00000
  44        4XZ         0.00000   0.00000   0.00000   0.00000   0.00000
  45        4YZ        -0.57362  -0.72468   0.44614  -0.18336   0.26845
     Beta Molecular Orbital Coefficients.
                           1         2         3         4         5
                        (B2)--O   (A1)--O   (A1)--O   (A1)--O   (B2)--O
     EIGENVALUES --   -19.25673 -19.25671 -14.57653  -1.26315  -1.11482
   1 1   O  1S          0.70212   0.70214  -0.00001  -0.11349  -0.14348
   2        2S          0.01824   0.01836   0.00039   0.25474   0.32070
   3        2PX         0.00000   0.00000   0.00000   0.00000   0.00000
   4        2PY        -0.00095  -0.00101  -0.00003  -0.12983  -0.11368
   5        2PZ         0.00030   0.00042   0.00000   0.03893   0.05391
   6        3S          0.00849   0.00807  -0.00134   0.19101   0.30224
   7        3PX         0.00000   0.00000   0.00000   0.00000   0.00000
   8        3PY        -0.00084  -0.00102   0.00062  -0.04832  -0.04884
   9        3PZ         0.00052   0.00037  -0.00031   0.01393   0.02833
  10        4XX        -0.00541  -0.00538   0.00026  -0.00372  -0.00547
  11        4YY        -0.00502  -0.00501  -0.00035   0.02067   0.00564
  12        4ZZ        -0.00550  -0.00528   0.00016  -0.00621  -0.00349
  13        4XY         0.00000   0.00000   0.00000   0.00000   0.00000
  14        4XZ         0.00000   0.00000   0.00000   0.00000   0.00000
  15        4YZ        -0.00005  -0.00032   0.00029  -0.00860  -0.01068
  16 2   N  1S          0.00000   0.00013   0.99298  -0.15502   0.00000
  17        2S          0.00000   0.00081   0.03408   0.34558   0.00000
  18        2PX         0.00000   0.00000   0.00000   0.00000   0.00000
  19        2PY         0.00014   0.00000   0.00000   0.00000   0.32773
  20        2PZ         0.00000   0.00002  -0.00159  -0.11952   0.00000
  21        3S          0.00000  -0.00461   0.00427   0.13148   0.00000
  22        3PX         0.00000   0.00000   0.00000   0.00000   0.00000
  23        3PY        -0.00292   0.00000   0.00000   0.00000   0.00102
  24        3PZ         0.00000   0.00117   0.00004  -0.00502   0.00000
  25        4XX         0.00000   0.00035  -0.00790  -0.01530   0.00000
  26        4YY         0.00000  -0.00114  -0.00695   0.02526   0.00000
  27        4ZZ         0.00000   0.00015  -0.00789  -0.00977   0.00000
  28        4XY         0.00000   0.00000   0.00000   0.00000   0.00000
  29        4XZ         0.00000   0.00000   0.00000   0.00000   0.00000
  30        4YZ         0.00068   0.00000   0.00000   0.00000  -0.03227
  31 3   O  1S         -0.70212   0.70214  -0.00001  -0.11349   0.14348
  32        2S         -0.01824   0.01836   0.00039   0.25474  -0.32070
  33        2PX         0.00000   0.00000   0.00000   0.00000   0.00000
  34        2PY        -0.00095   0.00101   0.00003   0.12983  -0.11368
  35        2PZ        -0.00030   0.00042   0.00000   0.03893  -0.05391
  36        3S         -0.00849   0.00807  -0.00134   0.19101  -0.30224
  37        3PX         0.00000   0.00000   0.00000   0.00000   0.00000
  38        3PY        -0.00084   0.00102  -0.00062   0.04832  -0.04884
  39        3PZ        -0.00052   0.00037  -0.00031   0.01393  -0.02833
  40        4XX         0.00541  -0.00538   0.00026  -0.00372   0.00547
  41        4YY         0.00502  -0.00501  -0.00035   0.02067  -0.00564
  42        4ZZ         0.00550  -0.00528   0.00016  -0.00621   0.00349
  43        4XY         0.00000   0.00000   0.00000   0.00000   0.00000
  44        4XZ         0.00000   0.00000   0.00000   0.00000   0.00000
  45        4YZ        -0.00005   0.00032  -0.00029   0.00860  -0.01068
                           6         7         8         9        10
                        (A1)--O   (B1)--O   (B2)--O   (A1)--O   (A2)--O
     EIGENVALUES --    -0.64488  -0.55405  -0.54824  -0.52978  -0.36983
   1 1   O  1S         -0.11848   0.00000   0.08064  -0.01323   0.00000
   2        2S          0.26205   0.00000  -0.17089   0.02036   0.00000
   3        2PX         0.00000   0.31574   0.00000   0.00000   0.47919
   4        2PY         0.22662   0.00000  -0.31465   0.20027   0.00000
   5        2PZ        -0.10347   0.00000   0.18135   0.24645   0.00000
   6        3S          0.41898   0.00000  -0.31723   0.06484   0.00000
   7        3PX         0.00000   0.17229   0.00000   0.00000   0.32877
   8        3PY         0.08992   0.00000  -0.15144   0.10556   0.00000
   9        3PZ        -0.04892   0.00000   0.09230   0.14276   0.00000
  10        4XX         0.00132   0.00000  -0.00260   0.00051   0.00000
  11        4YY        -0.02242   0.00000   0.01794  -0.02290   0.00000
  12        4ZZ        -0.00889   0.00000   0.00946   0.01343   0.00000
  13        4XY         0.00000  -0.02835   0.00000   0.00000  -0.02015
  14        4XZ         0.00000   0.01089   0.00000   0.00000   0.00820
  15        4YZ         0.01367   0.00000  -0.01591  -0.01600   0.00000
  16 2   N  1S          0.12884   0.00000   0.00000  -0.04355   0.00000
  17        2S         -0.32410   0.00000   0.00000   0.08781   0.00000
  18        2PX         0.00000   0.45857   0.00000   0.00000   0.00000
  19        2PY         0.00000   0.00000   0.37000   0.00000   0.00000
  20        2PZ        -0.00638   0.00000   0.00000   0.43185   0.00000
  21        3S         -0.34805   0.00000   0.00000   0.16506   0.00000
  22        3PX         0.00000   0.22280   0.00000   0.00000   0.00000
  23        3PY         0.00000   0.00000   0.09148   0.00000   0.00000
  24        3PZ         0.00158   0.00000   0.00000   0.20811   0.00000
  25        4XX        -0.00013   0.00000   0.00000   0.00591   0.00000
  26        4YY         0.01201   0.00000   0.00000   0.02827   0.00000
  27        4ZZ         0.00905   0.00000   0.00000  -0.04052   0.00000
  28        4XY         0.00000   0.00000   0.00000   0.00000   0.05094
  29        4XZ         0.00000  -0.02646   0.00000   0.00000   0.00000
  30        4YZ         0.00000   0.00000  -0.01081   0.00000   0.00000
  31 3   O  1S         -0.11848   0.00000  -0.08064  -0.01323   0.00000
  32        2S          0.26205   0.00000   0.17089   0.02036   0.00000
  33        2PX         0.00000   0.31574   0.00000   0.00000  -0.47919
  34        2PY        -0.22662   0.00000  -0.31465  -0.20027   0.00000
  35        2PZ        -0.10347   0.00000  -0.18135   0.24645   0.00000
  36        3S          0.41898   0.00000   0.31723   0.06484   0.00000
  37        3PX         0.00000   0.17229   0.00000   0.00000  -0.32877
  38        3PY        -0.08992   0.00000  -0.15144  -0.10556   0.00000
  39        3PZ        -0.04892   0.00000  -0.09230   0.14276   0.00000
  40        4XX         0.00132   0.00000   0.00260   0.00051   0.00000
  41        4YY        -0.02242   0.00000  -0.01794  -0.02290   0.00000
  42        4ZZ        -0.00889   0.00000  -0.00946   0.01343   0.00000
  43        4XY         0.00000   0.02835   0.00000   0.00000  -0.02015
  44        4XZ         0.00000   0.01089   0.00000   0.00000  -0.00820
  45        4YZ        -0.01367   0.00000  -0.01591   0.01600   0.00000
                          11        12        13        14        15
                        (B2)--O   (A1)--V   (B1)--V   (A1)--V   (B2)--V
     EIGENVALUES --    -0.34101  -0.14316  -0.07381   0.22363   0.39522
   1 1   O  1S          0.00532   0.01744   0.00000   0.07585   0.08304
   2        2S         -0.01061  -0.06578   0.00000  -0.19818  -0.20383
   3        2PX         0.00000   0.00000  -0.38594   0.00000   0.00000
   4        2PY         0.26949   0.05245   0.00000   0.38813   0.12843
   5        2PZ         0.40301  -0.39262   0.00000   0.00957  -0.21641
   6        3S         -0.08279  -0.08940   0.00000  -0.91504  -1.68953
   7        3PX         0.00000   0.00000  -0.35665   0.00000   0.00000
   8        3PY         0.20417   0.04748   0.00000   0.75970   0.86413
   9        3PZ         0.26065  -0.33748   0.00000  -0.04997  -0.64689
  10        4XX         0.00222  -0.00476   0.00000   0.00525  -0.00929
  11        4YY        -0.01486  -0.01232   0.00000   0.00497  -0.03479
  12        4ZZ         0.01528  -0.00104   0.00000  -0.01726   0.01525
  13        4XY         0.00000   0.00000  -0.01047   0.00000   0.00000
  14        4XZ         0.00000   0.00000   0.00767   0.00000   0.00000
  15        4YZ        -0.01328   0.00264   0.00000   0.01110   0.00063
  16 2   N  1S          0.00000  -0.07561   0.00000  -0.12414   0.00000
  17        2S          0.00000   0.11983   0.00000   0.23545   0.00000
  18        2PX         0.00000   0.00000   0.57430   0.00000   0.00000
  19        2PY         0.00695   0.00000   0.00000   0.00000   0.52960
  20        2PZ         0.00000   0.41505   0.00000  -0.42246   0.00000
  21        3S          0.00000   0.62956   0.00000   2.05118   0.00000
  22        3PX         0.00000   0.00000   0.47809   0.00000   0.00000
  23        3PY         0.12337   0.00000   0.00000   0.00000   2.55643
  24        3PZ         0.00000   0.24822   0.00000  -0.87610   0.00000
  25        4XX         0.00000   0.00467   0.00000   0.02113   0.00000
  26        4YY         0.00000  -0.05097   0.00000  -0.07243   0.00000
  27        4ZZ         0.00000  -0.00094   0.00000  -0.00598   0.00000
  28        4XY         0.00000   0.00000   0.00000   0.00000   0.00000
  29        4XZ         0.00000   0.00000   0.00258   0.00000   0.00000
  30        4YZ         0.04219   0.00000   0.00000   0.00000   0.00400
  31 3   O  1S         -0.00532   0.01744   0.00000   0.07585  -0.08304
  32        2S          0.01061  -0.06578   0.00000  -0.19818   0.20383
  33        2PX         0.00000   0.00000  -0.38594   0.00000   0.00000
  34        2PY         0.26949  -0.05245   0.00000  -0.38813   0.12843
  35        2PZ        -0.40301  -0.39262   0.00000   0.00957   0.21641
  36        3S          0.08279  -0.08940   0.00000  -0.91504   1.68953
  37        3PX         0.00000   0.00000  -0.35665   0.00000   0.00000
  38        3PY         0.20417  -0.04748   0.00000  -0.75970   0.86413
  39        3PZ        -0.26065  -0.33748   0.00000  -0.04997   0.64689
  40        4XX        -0.00222  -0.00476   0.00000   0.00525   0.00929
  41        4YY         0.01486  -0.01232   0.00000   0.00497   0.03479
  42        4ZZ        -0.01528  -0.00104   0.00000  -0.01726  -0.01525
  43        4XY         0.00000   0.00000   0.01047   0.00000   0.00000
  44        4XZ         0.00000   0.00000   0.00767   0.00000   0.00000
  45        4YZ        -0.01328  -0.00264   0.00000  -0.01110   0.00063
                          16        17        18        19        20
                        (A1)--V   (B2)--V   (B1)--V   (A1)--V   (A1)--V
     EIGENVALUES --     0.59691   0.59884   0.61970   0.62073   0.78562
   1 1   O  1S         -0.00493  -0.01144   0.00000  -0.01309   0.01579
   2        2S         -0.33910  -0.07247   0.00000  -0.06566  -0.16936
   3        2PX         0.00000   0.00000  -0.23026   0.00000   0.00000
   4        2PY        -0.16098  -0.28916   0.00000   0.02013  -0.51545
   5        2PZ         0.19345   0.01602   0.00000  -0.15924  -0.04896
   6        3S         -0.06645  -0.84599   0.00000   0.69217  -0.19581
   7        3PX         0.00000   0.00000  -0.05102   0.00000   0.00000
   8        3PY         0.33651   0.32155   0.00000  -0.48466   1.08359
   9        3PZ        -0.11179  -0.20612   0.00000   0.05492  -0.20339
  10        4XX        -0.05875   0.01208   0.00000  -0.04875  -0.06514
  11        4YY        -0.23810  -0.16040   0.00000   0.08505  -0.12320
  12        4ZZ        -0.10136  -0.03347   0.00000  -0.05521  -0.07712
  13        4XY         0.00000   0.00000   0.06152   0.00000   0.00000
  14        4XZ         0.00000   0.00000  -0.02070   0.00000   0.00000
  15        4YZ         0.08356   0.11040   0.00000   0.00811   0.01649
  16 2   N  1S          0.01499   0.00000   0.00000   0.00417   0.04106
  17        2S         -1.03533   0.00000   0.00000  -0.41003   0.32971
  18        2PX         0.00000   0.00000  -0.85239   0.00000   0.00000
  19        2PY         0.00000  -0.81075   0.00000   0.00000   0.00000
  20        2PZ         0.15702   0.00000   0.00000  -0.76941  -0.21916
  21        3S          2.19672   0.00000   0.00000  -0.48460   0.90471
  22        3PX         0.00000   0.00000   1.18736   0.00000   0.00000
  23        3PY         0.00000   2.03483   0.00000   0.00000   0.00000
  24        3PZ        -0.60357   0.00000   0.00000   1.45011  -0.18464
  25        4XX        -0.18475   0.00000   0.00000  -0.08064  -0.03130
  26        4YY        -0.04197   0.00000   0.00000  -0.26603   0.33751
  27        4ZZ        -0.19730   0.00000   0.00000  -0.03673   0.06934
  28        4XY         0.00000   0.00000   0.00000   0.00000   0.00000
  29        4XZ         0.00000   0.00000   0.04548   0.00000   0.00000
  30        4YZ         0.00000  -0.12486   0.00000   0.00000   0.00000
  31 3   O  1S         -0.00493   0.01144   0.00000  -0.01309   0.01579
  32        2S         -0.33910   0.07247   0.00000  -0.06566  -0.16936
  33        2PX         0.00000   0.00000  -0.23026   0.00000   0.00000
  34        2PY         0.16098  -0.28916   0.00000  -0.02013   0.51545
  35        2PZ         0.19345  -0.01602   0.00000  -0.15924  -0.04896
  36        3S         -0.06645   0.84599   0.00000   0.69217  -0.19581
  37        3PX         0.00000   0.00000  -0.05102   0.00000   0.00000
  38        3PY        -0.33651   0.32155   0.00000   0.48466  -1.08359
  39        3PZ        -0.11179   0.20612   0.00000   0.05492  -0.20339
  40        4XX        -0.05875  -0.01208   0.00000  -0.04875  -0.06514
  41        4YY        -0.23810   0.16040   0.00000   0.08505  -0.12320
  42        4ZZ        -0.10136   0.03347   0.00000  -0.05521  -0.07712
  43        4XY         0.00000   0.00000  -0.06152   0.00000   0.00000
  44        4XZ         0.00000   0.00000  -0.02070   0.00000   0.00000
  45        4YZ        -0.08356   0.11040   0.00000  -0.00811  -0.01649
                          21        22        23        24        25
                        (B2)--V   (A2)--V   (A1)--V   (B1)--V   (B2)--V
     EIGENVALUES --     0.83806   0.88374   0.91475   0.94467   0.96908
   1 1   O  1S         -0.00754   0.00000  -0.00521   0.00000   0.00185
   2        2S         -0.38873   0.00000  -0.03684   0.00000  -0.03086
   3        2PX         0.00000  -0.65525   0.00000   0.61241   0.00000
   4        2PY        -0.39002   0.00000   0.14083   0.00000   0.31234
   5        2PZ         0.38487   0.00000   0.56812   0.00000   0.50831
   6        3S          0.90797   0.00000   0.44241   0.00000  -0.36977
   7        3PX         0.00000   0.81351   0.00000  -1.02062   0.00000
   8        3PY         0.52325   0.00000  -0.30920   0.00000  -0.42178
   9        3PZ        -0.32490   0.00000  -0.91883   0.00000  -0.80942
  10        4XX        -0.14138   0.00000  -0.07729   0.00000   0.03341
  11        4YY        -0.12897   0.00000  -0.00846   0.00000  -0.08787
  12        4ZZ        -0.16746   0.00000   0.00472   0.00000   0.05780
  13        4XY         0.00000   0.02999   0.00000  -0.01698   0.00000
  14        4XZ         0.00000   0.00596   0.00000   0.04575   0.00000
  15        4YZ         0.00410   0.00000  -0.00846   0.00000  -0.04763
  16 2   N  1S          0.00000   0.00000   0.02519   0.00000   0.00000
  17        2S          0.00000   0.00000   0.23711   0.00000   0.00000
  18        2PX         0.00000   0.00000   0.00000  -0.28500   0.00000
  19        2PY         0.16222   0.00000   0.00000   0.00000  -0.15090
  20        2PZ         0.00000   0.00000  -0.26563   0.00000   0.00000
  21        3S          0.00000   0.00000  -0.68028   0.00000   0.00000
  22        3PX         0.00000   0.00000   0.00000   1.02268   0.00000
  23        3PY        -0.53217   0.00000   0.00000   0.00000   0.86719
  24        3PZ         0.00000   0.00000   1.09660   0.00000   0.00000
  25        4XX         0.00000   0.00000  -0.06163   0.00000   0.00000
  26        4YY         0.00000   0.00000   0.18413   0.00000   0.00000
  27        4ZZ         0.00000   0.00000   0.02480   0.00000   0.00000
  28        4XY         0.00000  -0.08775   0.00000   0.00000   0.00000
  29        4XZ         0.00000   0.00000   0.00000   0.03625   0.00000
  30        4YZ        -0.15034   0.00000   0.00000   0.00000   0.14516
  31 3   O  1S          0.00754   0.00000  -0.00521   0.00000  -0.00185
  32        2S          0.38873   0.00000  -0.03684   0.00000   0.03086
  33        2PX         0.00000   0.65525   0.00000   0.61241   0.00000
  34        2PY        -0.39002   0.00000  -0.14083   0.00000   0.31234
  35        2PZ        -0.38487   0.00000   0.56812   0.00000  -0.50831
  36        3S         -0.90797   0.00000   0.44241   0.00000   0.36977
  37        3PX         0.00000  -0.81351   0.00000  -1.02062   0.00000
  38        3PY         0.52325   0.00000   0.30920   0.00000  -0.42178
  39        3PZ         0.32490   0.00000  -0.91883   0.00000   0.80942
  40        4XX         0.14138   0.00000  -0.07729   0.00000  -0.03341
  41        4YY         0.12897   0.00000  -0.00846   0.00000   0.08787
  42        4ZZ         0.16746   0.00000   0.00472   0.00000  -0.05780
  43        4XY         0.00000   0.02999   0.00000   0.01698   0.00000
  44        4XZ         0.00000  -0.00596   0.00000   0.04575   0.00000
  45        4YZ         0.00410   0.00000   0.00846   0.00000  -0.04763
                          26        27        28        29        30
                        (A1)--V   (A2)--V   (B2)--V   (B1)--V   (A1)--V
     EIGENVALUES --     1.28884   1.37681   1.40282   1.42015   1.48850
   1 1   O  1S          0.06490   0.00000  -0.06458   0.00000   0.03409
   2        2S          0.97707   0.00000  -1.19802   0.00000   0.66890
   3        2PX         0.00000  -0.13957   0.00000   0.01975   0.00000
   4        2PY        -0.13015   0.00000   0.24915   0.00000  -0.11105
   5        2PZ         0.05172   0.00000  -0.17539   0.00000   0.08822
   6        3S         -3.48976   0.00000   4.30222   0.00000  -2.32320
   7        3PX         0.00000  -0.05891   0.00000   0.12303   0.00000
   8        3PY         1.39667   0.00000  -1.40452   0.00000   1.03025
   9        3PZ        -0.41298   0.00000   1.01636   0.00000  -0.16412
  10        4XX         0.47492   0.00000  -0.11115   0.00000  -0.03649
  11        4YY         0.18933   0.00000  -0.35695   0.00000   0.37103
  12        4ZZ         0.11784   0.00000  -0.41292   0.00000   0.10288
  13        4XY         0.00000  -0.32158   0.00000   0.31473   0.00000
  14        4XZ         0.00000   0.25530   0.00000   0.25697   0.00000
  15        4YZ        -0.11477   0.00000   0.08445   0.00000   0.28019
  16 2   N  1S         -0.00920   0.00000   0.00000   0.00000  -0.00051
  17        2S         -0.62552   0.00000   0.00000   0.00000  -0.43300
  18        2PX         0.00000   0.00000   0.00000   0.17214   0.00000
  19        2PY         0.00000   0.00000   0.18759   0.00000   0.00000
  20        2PZ        -0.09206   0.00000   0.00000   0.00000   0.20470
  21        3S          4.77841   0.00000   0.00000   0.00000   3.21763
  22        3PX         0.00000   0.00000   0.00000  -0.16141   0.00000
  23        3PY         0.00000   0.00000  -3.55889   0.00000   0.00000
  24        3PZ        -1.24851   0.00000   0.00000   0.00000  -1.03715
  25        4XX         0.20683   0.00000   0.00000   0.00000  -0.42545
  26        4YY         0.12721   0.00000   0.00000   0.00000  -0.03890
  27        4ZZ        -0.43427   0.00000   0.00000   0.00000   0.48399
  28        4XY         0.00000   0.58184   0.00000   0.00000   0.00000
  29        4XZ         0.00000   0.00000   0.00000   0.69057   0.00000
  30        4YZ         0.00000   0.00000   0.09300   0.00000   0.00000
  31 3   O  1S          0.06490   0.00000   0.06458   0.00000   0.03409
  32        2S          0.97707   0.00000   1.19802   0.00000   0.66890
  33        2PX         0.00000   0.13957   0.00000   0.01975   0.00000
  34        2PY         0.13015   0.00000   0.24915   0.00000   0.11105
  35        2PZ         0.05172   0.00000   0.17539   0.00000   0.08822
  36        3S         -3.48976   0.00000  -4.30222   0.00000  -2.32320
  37        3PX         0.00000   0.05891   0.00000   0.12303   0.00000
  38        3PY        -1.39667   0.00000  -1.40452   0.00000  -1.03025
  39        3PZ        -0.41298   0.00000  -1.01636   0.00000  -0.16412
  40        4XX         0.47492   0.00000   0.11115   0.00000  -0.03649
  41        4YY         0.18933   0.00000   0.35695   0.00000   0.37103
  42        4ZZ         0.11784   0.00000   0.41292   0.00000   0.10288
  43        4XY         0.00000  -0.32158   0.00000  -0.31473   0.00000
  44        4XZ         0.00000  -0.25530   0.00000   0.25697   0.00000
  45        4YZ         0.11477   0.00000   0.08445   0.00000  -0.28019
                          31        32        33        34        35
                        (B2)--V   (A2)--V   (A1)--V   (B2)--V   (B1)--V
     EIGENVALUES --     1.72946   1.74230   1.83395   1.84259   1.85516
   1 1   O  1S          0.02094   0.00000   0.01790   0.02590   0.00000
   2        2S          0.28394   0.00000   0.24407   0.04909   0.00000
   3        2PX         0.00000   0.03923   0.00000   0.00000  -0.08758
   4        2PY         0.12422   0.00000   0.06480   0.29578   0.00000
   5        2PZ         0.04279   0.00000  -0.14359   0.09200   0.00000
   6        3S         -1.63258   0.00000  -1.35629  -1.31771   0.00000
   7        3PX         0.00000  -0.05083   0.00000   0.00000   0.16106
   8        3PY         0.43901   0.00000   0.59105   0.19302   0.00000
   9        3PZ        -0.42019   0.00000   0.04433  -0.49294   0.00000
  10        4XX         0.53947   0.00000  -0.49509  -0.25218   0.00000
  11        4YY         0.10806   0.00000  -0.01742   0.39387   0.00000
  12        4ZZ        -0.52253   0.00000   0.60459  -0.08576   0.00000
  13        4XY         0.00000   0.41564   0.00000   0.00000  -0.14486
  14        4XZ         0.00000   0.57416   0.00000   0.00000   0.67122
  15        4YZ        -0.14864   0.00000  -0.04906   0.47583   0.00000
  16 2   N  1S          0.00000   0.00000  -0.04279   0.00000   0.00000
  17        2S          0.00000   0.00000  -0.41076   0.00000   0.00000
  18        2PX         0.00000   0.00000   0.00000   0.00000  -0.16260
  19        2PY        -0.00841   0.00000   0.00000   0.10209   0.00000
  20        2PZ         0.00000   0.00000  -0.09705   0.00000   0.00000
  21        3S          0.00000   0.00000   2.32494   0.00000   0.00000
  22        3PX         0.00000   0.00000   0.00000   0.00000  -0.21993
  23        3PY         1.77261   0.00000   0.00000   1.75259   0.00000
  24        3PZ         0.00000   0.00000  -0.89862   0.00000   0.00000
  25        4XX         0.00000   0.00000  -0.09596   0.00000   0.00000
  26        4YY         0.00000   0.00000   0.27120   0.00000   0.00000
  27        4ZZ         0.00000   0.00000  -0.36496   0.00000   0.00000
  28        4XY         0.00000   0.00728   0.00000   0.00000   0.00000
  29        4XZ         0.00000   0.00000   0.00000   0.00000  -0.31962
  30        4YZ        -0.35315   0.00000   0.00000  -0.42119   0.00000
  31 3   O  1S         -0.02094   0.00000   0.01790  -0.02590   0.00000
  32        2S         -0.28394   0.00000   0.24407  -0.04909   0.00000
  33        2PX         0.00000  -0.03923   0.00000   0.00000  -0.08758
  34        2PY         0.12422   0.00000  -0.06480   0.29578   0.00000
  35        2PZ        -0.04279   0.00000  -0.14359  -0.09200   0.00000
  36        3S          1.63258   0.00000  -1.35629   1.31771   0.00000
  37        3PX         0.00000   0.05083   0.00000   0.00000   0.16106
  38        3PY         0.43901   0.00000  -0.59105   0.19302   0.00000
  39        3PZ         0.42019   0.00000   0.04433   0.49294   0.00000
  40        4XX        -0.53947   0.00000  -0.49509   0.25218   0.00000
  41        4YY        -0.10806   0.00000  -0.01742  -0.39387   0.00000
  42        4ZZ         0.52253   0.00000   0.60459   0.08576   0.00000
  43        4XY         0.00000   0.41564   0.00000   0.00000   0.14486
  44        4XZ         0.00000  -0.57416   0.00000   0.00000   0.67122
  45        4YZ        -0.14864   0.00000   0.04906   0.47583   0.00000
                          36        37        38        39        40
                        (A1)--V   (B1)--V   (B2)--V   (A1)--V   (A2)--V
     EIGENVALUES --     2.21393   2.33482   2.67004   2.71450   2.71471
   1 1   O  1S          0.00415   0.00000   0.01694   0.05052   0.00000
   2        2S         -0.02902   0.00000   0.33787   0.62424   0.00000
   3        2PX         0.00000  -0.06390   0.00000   0.00000  -0.06856
   4        2PY         0.22381   0.00000  -0.35426  -0.01427   0.00000
   5        2PZ        -0.17359   0.00000   0.10476   0.00856   0.00000
   6        3S         -0.83423   0.00000  -0.33234  -2.47045   0.00000
   7        3PX         0.00000   0.42349   0.00000   0.00000  -0.28454
   8        3PY         0.34023   0.00000   0.04367   1.45875   0.00000
   9        3PZ         0.20316   0.00000  -0.26831  -0.13715   0.00000
  10        4XX         0.12417   0.00000   0.19991   0.46237   0.00000
  11        4YY        -0.10936   0.00000   0.52652  -0.84941   0.00000
  12        4ZZ        -0.14322   0.00000  -0.35908   0.60512   0.00000
  13        4XY         0.00000  -0.73207   0.00000   0.00000   0.64351
  14        4XZ         0.00000   0.02767   0.00000   0.00000  -0.40753
  15        4YZ        -0.43279   0.00000   0.33908   0.08147   0.00000
  16 2   N  1S         -0.09429   0.00000   0.00000   0.09370   0.00000
  17        2S         -0.43249   0.00000   0.00000   0.18037   0.00000
  18        2PX         0.00000  -0.17919   0.00000   0.00000   0.00000
  19        2PY         0.00000   0.00000  -0.08511   0.00000   0.00000
  20        2PZ        -0.00106   0.00000   0.00000  -0.51030   0.00000
  21        3S          2.01905   0.00000   0.00000   2.92514   0.00000
  22        3PX         0.00000  -0.62159   0.00000   0.00000   0.00000
  23        3PY         0.00000   0.00000  -0.04985   0.00000   0.00000
  24        3PZ        -0.93481   0.00000   0.00000  -1.36303   0.00000
  25        4XX        -1.08961   0.00000   0.00000   0.04055   0.00000
  26        4YY         0.37349   0.00000   0.00000   0.22641   0.00000
  27        4ZZ         0.18567   0.00000   0.00000   0.94330   0.00000
  28        4XY         0.00000   0.00000   0.00000   0.00000   1.16122
  29        4XZ         0.00000   0.76965   0.00000   0.00000   0.00000
  30        4YZ         0.00000   0.00000   1.23172   0.00000   0.00000
  31 3   O  1S          0.00415   0.00000  -0.01694   0.05052   0.00000
  32        2S         -0.02902   0.00000  -0.33787   0.62424   0.00000
  33        2PX         0.00000  -0.06390   0.00000   0.00000   0.06856
  34        2PY        -0.22381   0.00000  -0.35426   0.01427   0.00000
  35        2PZ        -0.17359   0.00000  -0.10476   0.00856   0.00000
  36        3S         -0.83423   0.00000   0.33234  -2.47045   0.00000
  37        3PX         0.00000   0.42349   0.00000   0.00000   0.28454
  38        3PY        -0.34023   0.00000   0.04367  -1.45875   0.00000
  39        3PZ         0.20316   0.00000   0.26831  -0.13715   0.00000
  40        4XX         0.12417   0.00000  -0.19991   0.46237   0.00000
  41        4YY        -0.10936   0.00000  -0.52652  -0.84941   0.00000
  42        4ZZ        -0.14322   0.00000   0.35908   0.60512   0.00000
  43        4XY         0.00000   0.73207   0.00000   0.00000   0.64351
  44        4XZ         0.00000   0.02767   0.00000   0.00000   0.40753
  45        4YZ         0.43279   0.00000   0.33908  -0.08147   0.00000
                          41        42        43        44        45
                        (B2)--V   (A1)--V   (A1)--V   (B2)--V   (A1)--V
     EIGENVALUES --     2.78125   2.87524   3.42426   3.63849   3.72433
   1 1   O  1S         -0.00510  -0.01621  -0.25403  -0.37457   0.24929
   2        2S         -0.66707   0.32001   0.15892  -0.20413   0.23829
   3        2PX         0.00000   0.00000   0.00000   0.00000   0.00000
   4        2PY        -0.07079   0.23176  -0.21649   0.13785  -0.37480
   5        2PZ        -0.00781  -0.16784   0.13401  -0.08222   0.18022
   6        3S          2.30807  -1.45648   2.90024   4.73219  -2.94080
   7        3PX         0.00000   0.00000   0.00000   0.00000   0.00000
   8        3PY        -1.22339   0.88937  -0.96319  -1.14474   0.61159
   9        3PZ         0.67012  -0.44660   0.40921   0.71733   0.03952
  10        4XX        -0.40437   0.17850  -0.93979  -1.37902   0.76942
  11        4YY         0.82990  -0.50984  -0.49891  -0.99724   0.89927
  12        4ZZ        -0.15679  -0.20561  -0.72217  -1.22160   1.03203
  13        4XY         0.00000   0.00000   0.00000   0.00000   0.00000
  14        4XZ         0.00000   0.00000   0.00000   0.00000   0.00000
  15        4YZ        -0.58291   0.72159  -0.44320  -0.18279  -0.27806
  16 2   N  1S          0.00000  -0.16222  -0.20666   0.00000  -0.33366
  17        2S          0.00000   1.08357   0.74392   0.00000   0.62130
  18        2PX         0.00000   0.00000   0.00000   0.00000   0.00000
  19        2PY        -1.17943   0.00000   0.00000  -0.01972   0.00000
  20        2PZ         0.00000  -0.32713   0.16267   0.00000   0.21421
  21        3S          0.00000   2.98911  -2.13854   0.00000   3.66070
  22        3PX         0.00000   0.00000   0.00000   0.00000   0.00000
  23        3PY        -1.91780   0.00000   0.00000  -2.56120   0.00000
  24        3PZ         0.00000  -0.47996   0.64021   0.00000  -0.89094
  25        4XX         0.00000  -0.91478  -0.38019   0.00000  -1.01568
  26        4YY         0.00000   0.83425  -1.57605   0.00000  -1.81477
  27        4ZZ         0.00000  -0.99369  -0.41651   0.00000  -0.83116
  28        4XY         0.00000   0.00000   0.00000   0.00000   0.00000
  29        4XZ         0.00000   0.00000   0.00000   0.00000   0.00000
  30        4YZ         0.48617   0.00000   0.00000   0.09033   0.00000
  31 3   O  1S          0.00510  -0.01621  -0.25403   0.37457   0.24929
  32        2S          0.66707   0.32001   0.15892   0.20413   0.23829
  33        2PX         0.00000   0.00000   0.00000   0.00000   0.00000
  34        2PY        -0.07079  -0.23176   0.21649   0.13785   0.37480
  35        2PZ         0.00781  -0.16784   0.13401   0.08222   0.18022
  36        3S         -2.30807  -1.45648   2.90024  -4.73219  -2.94080
  37        3PX         0.00000   0.00000   0.00000   0.00000   0.00000
  38        3PY        -1.22339  -0.88937   0.96319  -1.14474  -0.61159
  39        3PZ        -0.67012  -0.44660   0.40921  -0.71733   0.03952
  40        4XX         0.40437   0.17850  -0.93979   1.37902   0.76942
  41        4YY        -0.82990  -0.50984  -0.49891   0.99724   0.89927
  42        4ZZ         0.15679  -0.20561  -0.72217   1.22160   1.03203
  43        4XY         0.00000   0.00000   0.00000   0.00000   0.00000
  44        4XZ         0.00000   0.00000   0.00000   0.00000   0.00000
  45        4YZ        -0.58291  -0.72159   0.44320  -0.18279   0.27806
     ALPHA DENSITY MATRIX.
                           1         2         3         4         5
   1 1   O  1S          1.04056
   2        2S         -0.09719   0.27808
   3        2PX         0.00000   0.00000   0.33040
   4        2PY        -0.02335   0.04383   0.00000   0.29418
   5        2PZ         0.00554   0.00040   0.00000   0.04223   0.46251
   6        3S         -0.12947   0.31759   0.00000   0.12817  -0.04629
   7        3PX         0.00000   0.00000   0.20909   0.00000   0.00000
   8        3PY        -0.01138   0.01959   0.00000   0.15181   0.04469
   9        3PZ         0.00179   0.00563   0.00000   0.03468   0.29510
  10        4XX        -0.00621  -0.00406   0.00000   0.00225   0.00084
  11        4YY        -0.00541  -0.00408   0.00000  -0.02342  -0.00134
  12        4ZZ        -0.00668  -0.00242   0.00000   0.00454   0.01047
  13        4XY         0.00000   0.00000  -0.01833   0.00000   0.00000
  14        4XZ         0.00000   0.00000   0.00768   0.00000   0.00000
  15        4YZ        -0.00009  -0.00081   0.00000   0.00453  -0.01476
  16 2   N  1S          0.00167  -0.00242   0.00000   0.03767  -0.00023
  17        2S          0.00121  -0.00225   0.00000  -0.09543   0.01367
  18        2PX         0.00000   0.00000   0.14710   0.00000   0.00000
  19        2PY        -0.01755   0.04354   0.00000  -0.15740   0.08142
  20        2PZ         0.01600  -0.04714   0.00000   0.12354  -0.06316
  21        3S          0.03072  -0.08758   0.00000  -0.03855  -0.14825
  22        3PX         0.00000   0.00000   0.07060   0.00000   0.00000
  23        3PY         0.00512  -0.01589   0.00000  -0.00499   0.04625
  24        3PZ         0.00145  -0.00676   0.00000   0.05232  -0.04098
  25        4XX         0.00187  -0.00375   0.00000   0.00339  -0.00181
  26        4YY        -0.00637   0.01359   0.00000   0.00169   0.02690
  27        4ZZ         0.00119  -0.00270   0.00000  -0.00325  -0.01407
[...]
  39.  O 3 (pz)   0.0275 -0.3326  0.0643  0.0000  0.0000  0.2555  0.2306  0.1196
  40.  O 3 (d1)   0.0298 -0.0273 -0.2785  0.0000  0.0000 -0.3515 -0.0594 -0.4978
  41.  O 3 (d4)  -0.0731 -0.1466 -0.2058  0.0000  0.0000 -0.0609 -0.1683 -0.5006
  42.  O 3 (d6)  -0.0686 -0.1786 -0.3708  0.0000  0.0000 -0.2269 -0.0657 -0.3964
  43.  O 3 (d2)   0.0000  0.0000  0.0000  0.1379  0.0097  0.0000  0.0000  0.0000
  44.  O 3 (d3)   0.0000  0.0000  0.0000 -0.0103  0.0042  0.0000  0.0000  0.0000
  45.  O 3 (d5)  -0.1507 -0.2146 -0.0900  0.0000  0.0000  0.1746  0.1243  0.3321

          AO        33      34      35      36      37      38      39      40
      ---------- ------- ------- ------- ------- ------- ------- ------- -------
   1.  O 1 (s)    0.0000  0.0496  0.0238 -0.0203  0.0000  0.0000 -0.0157 -0.0027
   2.  O 1 (s)    0.0000  0.0243 -0.0028 -0.0530  0.0000  0.0000 -0.0506  0.0361
   3.  O 1 (px)   0.0209  0.0000  0.0000  0.0000 -0.0074 -0.0150  0.0000  0.0000
   4.  O 1 (py)   0.0000  0.0117  0.0166 -0.0129  0.0000  0.0000  0.0335 -0.0597
   5.  O 1 (pz)   0.0000  0.0246  0.0025  0.0519  0.0000  0.0000 -0.0382  0.0249
   6.  O 1 (s)    0.0000 -1.2923 -0.6172  0.4529  0.0000  0.0000  0.4425 -0.0305
   7.  O 1 (px)   0.1223  0.0000  0.0000  0.0000  0.1519  0.0521  0.0000  0.0000
   8.  O 1 (py)   0.0000  0.1868  0.0971 -0.2451  0.0000  0.0000 -0.0832 -0.1850
   9.  O 1 (pz)   0.0000 -0.4530 -0.2240  0.0774  0.0000  0.0000 -0.0165 -0.1806
  10.  O 1 (d1)   0.0000  0.1204  0.0536 -0.1050  0.0000  0.0000 -0.0235 -0.0057
  11.  O 1 (d4)   0.0000  0.1570  0.0668  0.0344  0.0000  0.0000 -0.0633  0.0764
  12.  O 1 (d6)   0.0000  0.0669  0.0377 -0.0218  0.0000  0.0000 -0.0615 -0.0243
  13.  O 1 (d2)  -0.0166  0.0000  0.0000  0.0000 -0.0088  0.0147  0.0000  0.0000
  14.  O 1 (d3)   0.0145  0.0000  0.0000  0.0000 -0.0113 -0.0097  0.0000  0.0000
  15.  O 1 (d5)   0.0000  0.0288  0.0143 -0.0784  0.0000  0.0000  0.0779 -0.0196
  16.  N 2 (s)    0.0000 -0.0274  0.0146 -0.0217  0.0000  0.0000  0.0424 -0.0562
  17.  N 2 (s)    0.0000  0.0433  0.1343 -0.1103  0.0000  0.0000  0.3176 -0.2549
  18.  N 2 (px)   0.0388  0.0000  0.0000  0.0000 -0.1223 -0.0512  0.0000  0.0000
  19.  N 2 (py)   0.0000  0.1038 -0.0026  0.2343  0.0000  0.0000 -0.3796  0.5147
  20.  N 2 (pz)   0.0000  0.0351 -0.0053  0.1587  0.0000  0.0000 -0.0917  0.3076
  21.  N 2 (s)    0.0000 -1.8307 -0.3998  0.3577  0.0000  0.0000  0.0811 -2.1767
  22.  N 2 (px)  -0.4437  0.0000  0.0000  0.0000 -0.5161 -0.1601  0.0000  0.0000
  23.  N 2 (py)   0.0000  2.6314  1.0675 -0.3632  0.0000  0.0000 -0.5349  1.3911
  24.  N 2 (pz)   0.0000  0.2930  0.0867  0.0577  0.0000  0.0000  0.3266  0.7979
  25.  N 2 (d1)   0.0000 -0.0793  0.0306  0.0519  0.0000  0.0000  0.0606 -0.0429
  26.  N 2 (d4)   0.0000 -0.2034 -0.0586 -0.4624  0.0000  0.0000  0.4346 -0.4371
  27.  N 2 (d6)   0.0000 -0.0969  0.0089 -0.0510  0.0000  0.0000 -0.0878 -0.2681
  28.  N 2 (d2)  -0.0507  0.0000  0.0000  0.0000  0.2224  0.1278  0.0000  0.0000
  29.  N 2 (d3)  -0.0157  0.0000  0.0000  0.0000  0.1330 -0.0103  0.0000  0.0000
  30.  N 2 (d5)   0.0000 -0.0483 -0.0522 -0.1914  0.0000  0.0000 -0.0244 -0.1929
  31.  O 3 (s)    0.0000 -0.0962 -0.0136  0.4357  0.0000  0.0000  0.0480 -0.1590
  32.  O 3 (s)    0.0000 -0.8868 -0.9761 -0.2147  0.0000  0.0000 -0.0139 -0.6456
  33.  O 3 (px)  -0.8390  0.0000  0.0000  0.0000 -0.3364 -0.0483  0.0000  0.0000
  34.  O 3 (py)   0.0000 -0.1281  0.7402  0.2260  0.0000  0.0000 -0.1335 -0.0514
  35.  O 3 (pz)   0.0000 -0.7231  0.0513  0.1579  0.0000  0.0000  0.1404 -0.0445
  36.  O 3 (s)    0.0000  4.1189  2.3746 -3.2491  0.0000  0.0000 -0.7339  3.9367
  37.  O 3 (px)   1.1693  0.0000  0.0000  0.0000  0.6534  0.1450  0.0000  0.0000
  38.  O 3 (py)   0.0000  1.6793 -0.4792 -0.1734  0.0000  0.0000 -0.3240  1.8727
  39.  O 3 (pz)   0.0000  1.8015  0.2392 -0.1842  0.0000  0.0000 -0.6246  0.7534
  40.  O 3 (d1)   0.0000 -0.1478 -0.2870  1.3944  0.0000  0.0000  0.1613 -1.4193
  41.  O 3 (d4)   0.0000 -0.3615 -0.2164  1.7414  0.0000  0.0000 -0.0472  0.8083
  42.  O 3 (d6)   0.0000 -0.2192 -0.2520  1.4691  0.0000  0.0000  0.0343 -0.5148
  43.  O 3 (d2)  -0.3301  0.0000  0.0000  0.0000  1.0784  0.0398  0.0000  0.0000
  44.  O 3 (d3)  -0.0394  0.0000  0.0000  0.0000  0.0541  1.0281  0.0000  0.0000
  45.  O 3 (d5)   0.0000  0.0747  0.0442  0.1335  0.0000  0.0000 -1.2257  0.2637

          AO        41      42      43      44      45
      ---------- ------- ------- ------- ------- -------
   1.  O 1 (s)   -0.0283 -0.0709 -0.0078  0.0000  0.0027
   2.  O 1 (s)   -0.0732  0.5185 -0.0532  0.0000  0.0529
   3.  O 1 (px)   0.0000  0.0000  0.0000 -0.0767  0.0000
   4.  O 1 (py)   0.0048 -0.5864 -0.0103  0.0000 -0.0394
   5.  O 1 (pz)  -0.0025  0.4014 -0.0306  0.0000 -0.0599
   6.  O 1 (s)    0.6537 -0.2352  0.1984  0.0000 -0.1827
   7.  O 1 (px)   0.0000  0.0000  0.0000 -0.0299  0.0000
   8.  O 1 (py)  -0.3068 -0.2214 -0.0358  0.0000  0.0635
   9.  O 1 (pz)  -0.0232  0.1633  0.0799  0.0000 -0.0277
  10.  O 1 (d1)  -0.0706  0.0571 -0.0252  0.0000  0.0247
  11.  O 1 (d4)  -0.0356  0.0976 -0.0379  0.0000  0.0056
  12.  O 1 (d6)  -0.0864  0.0659 -0.0088  0.0000  0.0338
  13.  O 1 (d2)   0.0000  0.0000  0.0000 -0.0081  0.0000
  14.  O 1 (d3)   0.0000  0.0000  0.0000  0.0080  0.0000
  15.  O 1 (d5)   0.0042 -0.0294 -0.0118  0.0000  0.0064
  16.  N 2 (s)   -0.0161  0.0987  0.0978  0.0000  0.0049
  17.  N 2 (s)   -0.0398 -0.5992 -0.5861  0.0000 -0.1688
  18.  N 2 (px)   0.0000  0.0000  0.0000  0.7028  0.0000
  19.  N 2 (py)   0.1621 -0.6712  0.6747  0.0000  0.0813
  20.  N 2 (pz)   0.1722  0.1302  0.0861  0.0000  0.7178
  21.  N 2 (s)   -1.2169 -0.0736 -0.0973  0.0000  0.4154
  22.  N 2 (px)   0.0000  0.0000  0.0000  0.3471  0.0000
  23.  N 2 (py)   0.1529  0.0515 -0.0543  0.0000 -0.0393
  24.  N 2 (pz)   0.6455 -0.0393 -0.0540  0.0000  0.2462
  25.  N 2 (d1)  -0.0582 -0.0362 -0.0359  0.0000 -0.0071
  26.  N 2 (d4)  -0.0577 -0.0615 -0.0632  0.0000  0.0322
  27.  N 2 (d6)  -0.1558 -0.0216 -0.0181  0.0000 -0.0596
  28.  N 2 (d2)   0.0000  0.0000  0.0000 -0.0585  0.0000
  29.  N 2 (d3)   0.0000  0.0000  0.0000 -0.0370  0.0000
  30.  N 2 (d5)  -0.1818  0.0102 -0.0156  0.0000 -0.0547
  31.  O 3 (s)   -0.0540 -0.0078 -0.0702  0.0000 -0.0192
  32.  O 3 (s)   -0.2700 -0.0484  0.5105  0.0000  0.1979
  33.  O 3 (px)   0.0000  0.0000  0.0000 -0.4956  0.0000
  34.  O 3 (py)  -0.0384  0.0157  0.5754  0.0000  0.3150
  35.  O 3 (pz)   0.0735 -0.0336  0.4189  0.0000 -0.3762
  36.  O 3 (s)    1.4460  0.1859 -0.2237  0.0000 -0.2010
  37.  O 3 (px)   0.0000  0.0000  0.0000 -0.3152  0.0000
  38.  O 3 (py)   0.7854  0.0339  0.2211  0.0000  0.0775
  39.  O 3 (pz)   0.0065  0.0769  0.1742  0.0000 -0.2718
  40.  O 3 (d1)   0.3181 -0.0237  0.0550  0.0000  0.0364
  41.  O 3 (d4)   0.5209 -0.0354  0.0962  0.0000  0.0702
  42.  O 3 (d6)  -1.2392 -0.0076  0.0638  0.0000  0.0152
  43.  O 3 (d2)   0.0000  0.0000  0.0000 -0.0445  0.0000
  44.  O 3 (d3)   0.0000  0.0000  0.0000 -0.0168  0.0000
  45.  O 3 (d5)   0.0448  0.0112  0.0306  0.0000 -0.0265


 SECOND ORDER PERTURBATION THEORY ANALYSIS OF FOCK MATRIX IN NBO BASIS

     Threshold for printing:   0.25 kcal/mol
                                                          E(2)  E(j)-E(i) F(i,j)
      Donor NBO (i)              Acceptor NBO (j)       kcal/mol   a.u.    a.u. 
 ===============================================================================

 within unit  1
   1. BD ( 1) O 1- N 2       34. RY*( 3) O 3              0.26    2.25    0.030
   1. BD ( 1) O 1- N 2       45. BD*( 3) N 2- O 3         0.31    1.05    0.026
   2. BD ( 1) N 2- O 3       14. RY*( 3) O 1              0.29    2.23    0.032
   2. BD ( 1) N 2- O 3       22. RY*( 1) N 2              0.35    1.97    0.033
   2. BD ( 1) N 2- O 3       42. BD*( 1) O 1- N 2         0.47    1.50    0.034
   2. BD ( 1) N 2- O 3       45. BD*( 3) N 2- O 3         0.62    1.04    0.037
   3. BD ( 2) N 2- O 3       13. RY*( 2) O 1              0.59    1.47    0.037
   3. BD ( 2) N 2- O 3       44. BD*( 2) N 2- O 3         2.32    0.36    0.042
   4. BD ( 3) N 2- O 3       12. RY*( 1) O 1              1.19    1.75    0.058
   4. BD ( 3) N 2- O 3       42. BD*( 1) O 1- N 2         1.27    0.94    0.044
   4. BD ( 3) N 2- O 3       43. BD*( 1) N 2- O 3         0.56    0.92    0.029
   4. BD ( 3) N 2- O 3       45. BD*( 3) N 2- O 3         0.96    0.47    0.031
   5. CR ( 1) O 1            22. RY*( 1) N 2              1.15   19.92    0.192
   5. CR ( 1) O 1            43. BD*( 1) N 2- O 3         1.11   19.44    0.187
   5. CR ( 1) O 1            45. BD*( 3) N 2- O 3         0.81   18.99    0.181
   6. CR ( 1) N 2            45. BD*( 3) N 2- O 3         0.84   14.38    0.160
   7. CR ( 1) O 3            22. RY*( 1) N 2              1.46   19.92    0.216
   7. CR ( 1) O 3            42. BD*( 1) O 1- N 2         0.95   19.45    0.173
   8. LP ( 1) O 1            22. RY*( 1) N 2              2.16    1.70    0.077
   8. LP ( 1) O 1            24. RY*( 3) N 2              0.26    3.01    0.035
   8. LP ( 1) O 1            25. RY*( 4) N 2              0.90    2.53    0.060
   8. LP ( 1) O 1            43. BD*( 1) N 2- O 3         4.93    1.21    0.098
   8. LP ( 1) O 1            45. BD*( 3) N 2- O 3         1.04    0.76    0.041
   9. LP ( 2) O 1            13. RY*( 2) O 1              0.64    1.31    0.042
   9. LP ( 2) O 1            17. RY*( 6) O 1              0.35    2.25    0.041
   9. LP ( 2) O 1            23. RY*( 2) N 2              2.00    2.41    0.101
   9. LP ( 2) O 1            29. RY*( 8) N 2              0.47    0.98    0.031
   9. LP ( 2) O 1            44. BD*( 2) N 2- O 3        76.59    0.20    0.156
  10. LP ( 3) O 1            12. RY*( 1) O 1              0.79    1.56    0.051
  10. LP ( 3) O 1            22. RY*( 1) N 2              1.10    1.22    0.053
  10. LP ( 3) O 1            24. RY*( 3) N 2              1.28    2.53    0.083
  10. LP ( 3) O 1            31. RY*(10) N 2              0.28    2.28    0.037
  10. LP ( 3) O 1            42. BD*( 1) O 1- N 2         3.51    0.75    0.074
  10. LP ( 3) O 1            45. BD*( 3) N 2- O 3        73.89    0.28    0.183
  11. LP ( 1) O 3            22. RY*( 1) N 2              2.48    1.70    0.082
  11. LP ( 1) O 3            25. RY*( 4) N 2              0.87    2.53    0.060
  11. LP ( 1) O 3            42. BD*( 1) O 1- N 2         4.55    1.22    0.094
  11. LP ( 1) O 3            45. BD*( 3) N 2- O 3         0.54    0.76    0.029


 NATURAL BOND ORBITALS (Summary):

                                                     Principal Delocalizations
           NBO                 Occupancy    Energy   (geminal,vicinal,remote)
 ===============================================================================
 Molecular unit  1  (NO2)
   1. BD ( 1) O  1- N  2        0.99537    -1.12721  45(g),34(v)
   2. BD ( 1) N  2- O  3        0.99689    -1.11029  45(g),42(g),22(g),14(v)
   3. BD ( 2) N  2- O  3        0.99936    -0.49169  44(g),13(v)
   4. BD ( 3) N  2- O  3        0.99603    -0.54495  42(g),45(g),12(v),43(g)
   5. CR ( 1) O  1              0.99992   -19.05861   22(v),43(v),45(v)
   6. CR ( 1) N  2              0.99983   -14.45775   45(g)
   7. CR ( 1) O  3              0.99992   -19.05860   22(v),42(v)
   8. LP ( 1) O  1              0.98980    -0.83296   43(v),22(v),45(v),25(v)
                                                    24(v)
   9. LP ( 2) O  1              0.74774    -0.33433   44(v),23(v),13(g),29(v)
                                                    17(g)
  10. LP ( 3) O  1              0.74484    -0.35479   45(v),42(g),24(v),22(v)
                                                    12(g),31(v)
  11. LP ( 1) O  3              0.98980    -0.83292   42(v),22(v),25(v),45(g)
  12. RY*( 1) O  1              0.00108     1.20025
  13. RY*( 2) O  1              0.00064     0.97450
  14. RY*( 3) O  1              0.00011     1.12461
  15. RY*( 4) O  1              0.00000     3.33764
  16. RY*( 5) O  1              0.00001     0.98178
  17. RY*( 6) O  1              0.00000     1.91776
  18. RY*( 7) O  1              0.00000     1.79697
  19. RY*( 8) O  1              0.00000     2.08566
  20. RY*( 9) O  1              0.00000     2.39538
  21. RY*(10) O  1              0.00001     1.96103
  22. RY*( 1) N  2              0.00891     0.86293
  23. RY*( 2) N  2              0.00394     2.07423
  24. RY*( 3) N  2              0.00181     2.17608
  25. RY*( 4) N  2              0.00107     1.70083
  26. RY*( 5) N  2              0.00001     2.26716
  27. RY*( 6) N  2              0.00001     0.94905
  28. RY*( 7) N  2              0.00000     1.76432
  29. RY*( 8) N  2              0.00000     0.64077
  30. RY*( 9) N  2              0.00001     2.52361
  31. RY*(10) N  2              0.00000     1.92790
  32. RY*( 1) O  3              0.00121     1.20368
  33. RY*( 2) O  3              0.00072     0.97348
  34. RY*( 3) O  3              0.00011     1.12134
  35. RY*( 4) O  3              0.00001     0.91022
  36. RY*( 5) O  3              0.00000     3.32962
  37. RY*( 6) O  3              0.00000     1.91758
  38. RY*( 7) O  3              0.00000     1.79715
  39. RY*( 8) O  3              0.00001     2.15543
  40. RY*( 9) O  3              0.00000     2.38919
  41. RY*(10) O  3              0.00000     1.97522
  42. BD*( 1) O  1- N  2        0.01055     0.39204
  43. BD*( 1) N  2- O  3        0.01393     0.37659
  44. BD*( 2) N  2- O  3        0.24760    -0.13637  23(g),33(g),29(g),13(v)
                                                    37(g)
  45. BD*( 3) N  2- O  3        0.24874    -0.07316  43(g),42(g),32(g),22(g)
                                                    24(g),12(v),25(g),31(g)
          -------------------------------
                 Total Lewis   10.45949  ( 95.0862%)
           Valence non-Lewis    0.52082  (  4.7347%)
           Rydberg non-Lewis    0.01969  (  0.1790%)
          -------------------------------
               Total unit  1   11.00000  (100.0000%)
              Charge unit  1    0.50000


 NATURAL RESONANCE THEORY ANALYSIS, beta spin:

 Maximum reference structures :    20
 Maximum resonance structures :  1241
 Memory requirements :    6231736 words of   6237717 available

   9 candidate reference structure(s) calculated by SR LEWIS
   0 candidate reference structure(s) added by hyperbond search (SR HBRES)
 Total of   9 candidate reference structures.
 Initial loops searched   33 bonding pattern(s); all but  8 were discarded
 Reference   1:  rho*=0.54049, f(w)=0.96008 converged after 159 iterations
 Reference   2:  rho*=0.78737, ionic; deleted
 Reference   3:  rho*=0.54049, f(w)=0.96008 converged after 159 iterations
 Reference   4:  rho*=0.54049, f(w)=0.96008 converged after 159 iterations
 Reference   5:  rho*=0.78737, ionic; deleted
 Reference   6:  rho*=0.78624, f(w)=0.95088 converged after 241 iterations
 Warning:  Reference structure has lower weight than  3 of the secondaries
 Reference   7:  rho*=0.54049, f(w)=0.96008 converged after 159 iterations
 Reference   8:  rho*=0.78624, f(w)=0.95088 converged after 241 iterations
 Warning:  Reference structure has lower weight than  3 of the secondaries
 Multi-ref( 6):  D(W)=0.05449, F(W)=0.36311 converged after 216 iterations
 Multi-ref( 4):  D(W)=0.05868, F(W)=0.31414 converged after 188 iterations

                                                fractional accuracy f(w)
                  non-Lewis             -------------------------------------
  Ref     Wgt      density      d(0)      all NBOs     val+core     valence
 ----------------------------------------------------------------------------
   1    0.00000    0.54049    0.07487     0.96008      0.96556      0.96556
   3    0.50001    0.54049    0.07487     0.96008      0.96556      0.96556
   4    0.49999    0.54049    0.07487     0.96008      0.96556      0.96556
   7    0.00000    0.54049    0.07487     0.96008      0.96556      0.96556


 TOPO matrix for the leading resonance structure:

     Atom  1   2   3
     ---- --- --- ---
   1.  O   2   2   0
   2.  N   2   0   2
   3.  O   0   2   2

         Resonance
    RS   Weight(%)                  Added(Removed)
 ---------------------------------------------------------------------------
    1*(3)  55.39                                                            
    2*     21.79   ( O  1- N  2),  N  2- O  3,  O  1, ( O  3)               
    3*     21.79    O  1- N  2, ( N  2- O  3), ( O  1),  O  3               
    4       0.52   ( O  1- N  2), ( O  1- N  2),  N  2- O  3,  N  2- O  3,  
                   O  1,  O  1, ( O  3), ( O  3)                           
    5       0.52    O  1- N  2,  O  1- N  2, ( N  2- O  3), ( N  2- O  3),  
                  ( O  1), ( O  1),  O  3,  O  3                           
    6-8     0.00
 ---------------------------------------------------------------------------
          100.00   * Total *                [* = reference structure]


 Natural Bond Order:  (total/covalent/ionic)                                   

     Atom       1      2      3
     ----   ------ ------ ------
   1.  O  t 1.0000 1.0000 0.0000
          c   ---  0.7591 0.0000                                          
          i   ---  0.2409 0.0000                                          

   2.  N  t 1.0000 0.0000 1.0000
          c 0.7591   ---  0.7591                                          
          i 0.2409   ---  0.2409                                          

   3.  O  t 0.0000 1.0000 1.0000
          c 0.0000 0.7591   ---                                           
          i 0.0000 0.2409   ---                                           


 Natural Atomic Valencies:                                                     

                      Co-    Electro-
     Atom  Valency  Valency  Valency
     ----  -------  -------  -------
   1.  O    1.0000   0.7591   0.2409
   2.  N    2.0000   1.5182   0.4818
   3.  O    1.0000   0.7591   0.2409


 Natural Bond Order (total):                                                   

     Atom    1       2       3
     ---- ------  ------  ------
   1.  O  2.2190  1.7190  0.0620
   2.  N  1.7190  0.5620  1.7190
   3.  O  0.0620  1.7190  2.2190


 Natural Atomic Valencies (total):                                             

                      Co-    Electro-
     Atom  Valency  Valency  Valency
     ----  -------  -------  -------
   1.  O    1.7810   1.3581   0.4229
   2.  N    3.4380   2.6066   0.8314
   3.  O    1.7810   1.3581   0.4229

 $NRTSTRB
   STR        ! Wgt = 55.39%
     LONE 1 2 3 2 END
     BOND D 1 2 D 2 3 END
   END
   STR        ! Wgt = 21.79%
     LONE 1 3 3 1 END
     BOND S 1 2 T 2 3 END
   END
   STR        ! Wgt = 21.79%
     LONE 1 1 3 3 END
     BOND T 1 2 S 2 3 END
   END
 $END
 1\1\GINC-SUN\SP\UB3LYP\6-31G(d)\N1O2(2)\XAVIER\11-Apr-2009\0\\# B3LYP/
 6-31G* POP=(FULL,NBOREAD) GFPRINT GUESS=READ GEOM=CHECK\\InChI=1/NO2/c
 2-1-3\\0,2\O,0.,1.1067086296,-0.1436373012\N,0.,0.,0.3283138313\O,0.,-
 1.1067086296,-0.1436373012\\Version=x86-Linux-G03RevB.05\State=2-A1\HF
 =-205.0721928\S2=0.753298\S2-1=0.\S2A=0.750007\RMSD=6.626e-07\Dipole=0
 .,0.,0.1266197\PG=C02V [C2(N1),SGV(O2)]\\@


 THE 2ND LAW OF THERMODYNAMICS HAS THE SAME
 DEGREE OF TRUTH AS THE STATEMENT THAT IF YOU THROW
 A TUMBLERFULL OF WATER INTO THE SEA, YOU CANNOT GET
 THE SAME TUMBLERFULL OF WATER OUT AGAIN.
          - J.C. MAXWELL, LETTER TO LORD RAYLEIGH, DECEMBER 6,1870
 Job cpu time:  0 days  0 hours  0 minutes  5.9 seconds.
 File lengths (MBytes):  RWF=      7 Int=      0 D2E=      0 Chk=      4 Scr=      1
 Normal termination of Gaussian 03 at Sat Apr 11 15:27:45 2009.
