 Entering Gaussian System, Link 0=g09
 Input=freq-hr-fine-m-species-1627-radical-1.gau
 Output=freq-hr-fine-m-species-1627-radical-1.log
 Initial command:
 /opt/g09/l1.exe "/scratch/pb556/g09_runs_freq//Gau-23196.inp" -scrdir="/scratch/pb556/g09_runs_freq//"
 Entering Link 1 = /opt/g09/l1.exe PID=     23205.
  
 Copyright (c) 1988,1990,1992,1993,1995,1998,2003,2009,2013,
            Gaussian, Inc.  All Rights Reserved.
  
 This is part of the Gaussian(R) 09 program.  It is based on
 the Gaussian(R) 03 system (copyright 2003, Gaussian, Inc.),
 the Gaussian(R) 98 system (copyright 1998, Gaussian, Inc.),
 the Gaussian(R) 94 system (copyright 1995, Gaussian, Inc.),
 the Gaussian 92(TM) system (copyright 1992, Gaussian, Inc.),
 the Gaussian 90(TM) system (copyright 1990, Gaussian, Inc.),
 the Gaussian 88(TM) system (copyright 1988, Gaussian, Inc.),
 the Gaussian 86(TM) system (copyright 1986, Carnegie Mellon
 University), and the Gaussian 82(TM) system (copyright 1983,
 Carnegie Mellon University). Gaussian is a federally registered
 trademark of Gaussian, Inc.
  
 This software contains proprietary and confidential information,
 including trade secrets, belonging to Gaussian, Inc.
  
 This software is provided under written license and may be
 used, copied, transmitted, or stored only in accord with that
 written license.
  
 The following legend is applicable only to US Government
 contracts under FAR:
  
                    RESTRICTED RIGHTS LEGEND
  
 Use, reproduction and disclosure by the US Government is
 subject to restrictions as set forth in subparagraphs (a)
 and (c) of the Commercial Computer Software - Restricted
 Rights clause in FAR 52.227-19.
  
 Gaussian, Inc.
 340 Quinnipiac St., Bldg. 40, Wallingford CT 06492
  
  
 ---------------------------------------------------------------
 Warning -- This program may not be used in any manner that
 competes with the business of Gaussian, Inc. or will provide
 assistance to any competitor of Gaussian, Inc.  The licensee
 of this program is prohibited from giving any competitor of
 Gaussian, Inc. access to this program.  By using this program,
 the user acknowledges that Gaussian, Inc. is engaged in the
 business of creating and licensing software in the field of
 computational chemistry and represents and warrants to the
 licensee that it is not a competitor of Gaussian, Inc. and that
 it will not use this program in any manner prohibited above.
 ---------------------------------------------------------------
  

 Cite this work as:
 Gaussian 09, Revision D.01,
 M. J. Frisch, G. W. Trucks, H. B. Schlegel, G. E. Scuseria, 
 M. A. Robb, J. R. Cheeseman, G. Scalmani, V. Barone, B. Mennucci, 
 G. A. Petersson, H. Nakatsuji, M. Caricato, X. Li, H. P. Hratchian, 
 A. F. Izmaylov, J. Bloino, G. Zheng, J. L. Sonnenberg, M. Hada, 
 M. Ehara, K. Toyota, R. Fukuda, J. Hasegawa, M. Ishida, T. Nakajima, 
 Y. Honda, O. Kitao, H. Nakai, T. Vreven, J. A. Montgomery, Jr., 
 J. E. Peralta, F. Ogliaro, M. Bearpark, J. J. Heyd, E. Brothers, 
 K. N. Kudin, V. N. Staroverov, T. Keith, R. Kobayashi, J. Normand, 
 K. Raghavachari, A. Rendell, J. C. Burant, S. S. Iyengar, J. Tomasi, 
 M. Cossi, N. Rega, J. M. Millam, M. Klene, J. E. Knox, J. B. Cross, 
 V. Bakken, C. Adamo, J. Jaramillo, R. Gomperts, R. E. Stratmann, 
 O. Yazyev, A. J. Austin, R. Cammi, C. Pomelli, J. W. Ochterski, 
 R. L. Martin, K. Morokuma, V. G. Zakrzewski, G. A. Voth, 
 P. Salvador, J. J. Dannenberg, S. Dapprich, A. D. Daniels, 
 O. Farkas, J. B. Foresman, J. V. Ortiz, J. Cioslowski, 
 and D. J. Fox, Gaussian, Inc., Wallingford CT, 2013.
 
 ******************************************
 Gaussian 09:  ES64L-G09RevD.01 24-Apr-2013
                13-Jul-2013 
 ******************************************
 %NProcShared=8
 Will use up to    8 processors via shared memory.
 %Mem=500MW
 ----------------------------------------------------------------------
 #p uB971/6-311+G(d,p) Opt=(Tight, NewEstmFC, MaxCyc=400) Freq=(ReadHin
 deredRotor) GFInput Population=None Integral(Grid=UltraFine) SCF=(MaxC
 yc=400, XQC) Guess=Mix NoSymmetry
 ----------------------------------------------------------------------
 1/6=400,7=10,10=7,14=-1,18=20,19=15,26=4,38=1/1,3;
 2/9=110,12=2,15=1,17=6,18=5,40=1/2;
 3/5=4,6=6,7=111,11=2,16=1,24=10,25=1,30=1,71=1,74=-20,75=-5,116=2/1,2,3;
 4/13=-1/1;
 5/5=2,7=400,8=3,13=1,38=5/2,8;
 7/29=1,30=1/1,2,3,16;
 1/6=400,7=10,10=7,14=-1,18=20,19=15,26=4/3(2);
 2/9=110,15=1/2;
 99/8=30/99;
 2/9=110,15=1/2;
 3/5=4,6=6,7=111,11=2,16=1,25=1,30=1,71=1,74=-20,75=-5,116=2/1,2,3;
 4/5=5,16=3,69=1/1;
 5/5=2,7=400,8=3,13=1,38=5/2,8;
 7/30=1/1,2,3,16;
 1/6=400,7=10,14=-1,18=20,19=15,26=4/3(-5);
 2/9=110,15=1/2;
 99/8=30,9=1/99;
 Leave Link    1 at Sat Jul 13 01:59:28 2013, MaxMem=   524288000 cpu:         0.7
 (Enter /opt/g09/l101.exe)
 -----------------------------
 fine-m-species-1627-radical-1
 -----------------------------
 Symbolic Z-matrix:
 Charge =  0 Multiplicity = 2
 O                    -2.36581   1.13315  -0.80108 
 C                    -3.44059   1.26692  -1.60373 
 Ti                   -1.05872   0.3444    0.20263 
 C                    -4.45451   2.08703  -1.28408 
 C                    -3.37346   0.44235  -2.86372 
 O                    -0.0848   -0.82347  -0.82204 
 O                     0.03173   1.5594    1.01526 
 O                    -1.89273  -0.66787   1.51978 
 H                    -4.43972   2.65965  -0.3634 
 H                    -5.30267   2.1962   -1.94903 
 H                    -2.47553   0.70138  -3.43621 
 H                    -4.25433   0.60352  -3.48927 
 H                    -3.30428  -0.6241   -2.61726 
 H                    -0.09577  -1.77611  -0.931 
 H                    -0.00416   2.51137   1.12302 
 C                    -2.19124  -1.09055   2.70517 
 C                    -3.293    -2.09481   2.85106 
 C                    -1.55046  -0.43865   3.89175 
 H                    -4.23347  -1.6066    3.15496 
 H                    -3.05516  -2.83512   3.62376 
 H                    -3.47258  -2.60635   1.9024 
 H                    -0.54979  -0.07468   3.63879 
 H                    -1.48565  -1.1299    4.73813 
 H                    -2.14038   0.43125   4.22576 
 
 NAtoms=     24 NQM=       24 NQMF=       0 NMMI=      0 NMMIF=      0
                NMic=       0 NMicF=      0.
                    Isotopes and Nuclear Properties:
 (Nuclear quadrupole moments (NQMom) in fm**2, nuclear magnetic moments (NMagM)
  in nuclear magnetons)

  Atom         1           2           3           4           5           6           7           8           9          10
 IAtWgt=          16          12          48          12          12          16          16          16           1           1
 AtmWgt=  15.9949146  12.0000000  47.9479467  12.0000000  12.0000000  15.9949146  15.9949146  15.9949146   1.0078250   1.0078250
 NucSpn=           0           0           0           0           0           0           0           0           1           1
 AtZEff=   0.0000000   0.0000000   0.0000000   0.0000000   0.0000000   0.0000000   0.0000000   0.0000000   0.0000000   0.0000000
 NQMom=    0.0000000   0.0000000   0.0000000   0.0000000   0.0000000   0.0000000   0.0000000   0.0000000   0.0000000   0.0000000
 NMagM=    0.0000000   0.0000000   0.0000000   0.0000000   0.0000000   0.0000000   0.0000000   0.0000000   2.7928460   2.7928460
 AtZNuc=   8.0000000   6.0000000  22.0000000   6.0000000   6.0000000   8.0000000   8.0000000   8.0000000   1.0000000   1.0000000

  Atom        11          12          13          14          15          16          17          18          19          20
 IAtWgt=           1           1           1           1           1          12          12          12           1           1
 AtmWgt=   1.0078250   1.0078250   1.0078250   1.0078250   1.0078250  12.0000000  12.0000000  12.0000000   1.0078250   1.0078250
 NucSpn=           1           1           1           1           1           0           0           0           1           1
 AtZEff=   0.0000000   0.0000000   0.0000000   0.0000000   0.0000000   0.0000000   0.0000000   0.0000000   0.0000000   0.0000000
 NQMom=    0.0000000   0.0000000   0.0000000   0.0000000   0.0000000   0.0000000   0.0000000   0.0000000   0.0000000   0.0000000
 NMagM=    2.7928460   2.7928460   2.7928460   2.7928460   2.7928460   0.0000000   0.0000000   0.0000000   2.7928460   2.7928460
 AtZNuc=   1.0000000   1.0000000   1.0000000   1.0000000   1.0000000   6.0000000   6.0000000   6.0000000   1.0000000   1.0000000

  Atom        21          22          23          24
 IAtWgt=           1           1           1           1
 AtmWgt=   1.0078250   1.0078250   1.0078250   1.0078250
 NucSpn=           1           1           1           1
 AtZEff=   0.0000000   0.0000000   0.0000000   0.0000000
 NQMom=    0.0000000   0.0000000   0.0000000   0.0000000
 NMagM=    2.7928460   2.7928460   2.7928460   2.7928460
 AtZNuc=   1.0000000   1.0000000   1.0000000   1.0000000
 Leave Link  101 at Sat Jul 13 01:59:29 2013, MaxMem=   524288000 cpu:         2.0
 (Enter /opt/g09/l103.exe)

 GradGradGradGradGradGradGradGradGradGradGradGradGradGradGradGradGradGrad
 Berny optimization.
 Initialization pass.
                           ----------------------------
                           !    Initial Parameters    !
                           ! (Angstroms and Degrees)  !
 --------------------------                            --------------------------
 ! Name  Definition              Value          Derivative Info.                !
 --------------------------------------------------------------------------------
 ! R1    R(1,2)                  1.3481         estimate D2E/DX2                !
 ! R2    R(1,3)                  1.827          estimate D2E/DX2                !
 ! R3    R(2,4)                  1.3427         estimate D2E/DX2                !
 ! R4    R(2,5)                  1.5073         estimate D2E/DX2                !
 ! R5    R(3,6)                  1.8337         estimate D2E/DX2                !
 ! R6    R(3,7)                  1.8236         estimate D2E/DX2                !
 ! R7    R(3,8)                  1.8588         estimate D2E/DX2                !
 ! R8    R(4,9)                  1.0843         estimate D2E/DX2                !
 ! R9    R(4,10)                 1.0833         estimate D2E/DX2                !
 ! R10   R(5,11)                 1.096          estimate D2E/DX2                !
 ! R11   R(5,12)                 1.0923         estimate D2E/DX2                !
 ! R12   R(5,13)                 1.0967         estimate D2E/DX2                !
 ! R13   R(6,14)                 0.9589         estimate D2E/DX2                !
 ! R14   R(7,15)                 0.9587         estimate D2E/DX2                !
 ! R15   R(8,16)                 1.2934         estimate D2E/DX2                !
 ! R16   R(16,17)                1.4979         estimate D2E/DX2                !
 ! R17   R(16,18)                1.4978         estimate D2E/DX2                !
 ! R18   R(17,19)                1.1024         estimate D2E/DX2                !
 ! R19   R(17,20)                1.0962         estimate D2E/DX2                !
 ! R20   R(17,21)                1.0926         estimate D2E/DX2                !
 ! R21   R(18,22)                1.0944         estimate D2E/DX2                !
 ! R22   R(18,23)                1.0947         estimate D2E/DX2                !
 ! R23   R(18,24)                1.1029         estimate D2E/DX2                !
 ! A1    A(2,1,3)              160.1051         estimate D2E/DX2                !
 ! A2    A(1,2,4)              121.394          estimate D2E/DX2                !
 ! A3    A(1,2,5)              114.0742         estimate D2E/DX2                !
 ! A4    A(4,2,5)              124.5255         estimate D2E/DX2                !
 ! A5    A(1,3,6)              110.3617         estimate D2E/DX2                !
 ! A6    A(1,3,7)              112.6412         estimate D2E/DX2                !
 ! A7    A(1,3,8)              107.6613         estimate D2E/DX2                !
 ! A8    A(6,3,7)              110.8396         estimate D2E/DX2                !
 ! A9    A(6,3,8)              106.7044         estimate D2E/DX2                !
 ! A10   A(7,3,8)              108.3824         estimate D2E/DX2                !
 ! A11   A(2,4,9)              120.9571         estimate D2E/DX2                !
 ! A12   A(2,4,10)             120.4427         estimate D2E/DX2                !
 ! A13   A(9,4,10)             118.5979         estimate D2E/DX2                !
 ! A14   A(2,5,11)             110.1115         estimate D2E/DX2                !
 ! A15   A(2,5,12)             111.2276         estimate D2E/DX2                !
 ! A16   A(2,5,13)             110.2977         estimate D2E/DX2                !
 ! A17   A(11,5,12)            109.0675         estimate D2E/DX2                !
 ! A18   A(11,5,13)            107.1892         estimate D2E/DX2                !
 ! A19   A(12,5,13)            108.846          estimate D2E/DX2                !
 ! A20   A(3,6,14)             133.6421         estimate D2E/DX2                !
 ! A21   A(3,7,15)             133.5714         estimate D2E/DX2                !
 ! A22   A(3,8,16)             158.5817         estimate D2E/DX2                !
 ! A23   A(8,16,17)            118.5625         estimate D2E/DX2                !
 ! A24   A(8,16,18)            119.0168         estimate D2E/DX2                !
 ! A25   A(17,16,18)           121.9583         estimate D2E/DX2                !
 ! A26   A(16,17,19)           110.9434         estimate D2E/DX2                !
 ! A27   A(16,17,20)           111.2133         estimate D2E/DX2                !
 ! A28   A(16,17,21)           110.4999         estimate D2E/DX2                !
 ! A29   A(19,17,20)           106.8502         estimate D2E/DX2                !
 ! A30   A(19,17,21)           107.847          estimate D2E/DX2                !
 ! A31   A(20,17,21)           109.3588         estimate D2E/DX2                !
 ! A32   A(16,18,22)           110.6578         estimate D2E/DX2                !
 ! A33   A(16,18,23)           111.2841         estimate D2E/DX2                !
 ! A34   A(16,18,24)           110.7556         estimate D2E/DX2                !
 ! A35   A(22,18,23)           109.5461         estimate D2E/DX2                !
 ! A36   A(22,18,24)           107.2629         estimate D2E/DX2                !
 ! A37   A(23,18,24)           107.1921         estimate D2E/DX2                !
 ! D1    D(3,1,2,4)            129.1301         estimate D2E/DX2                !
 ! D2    D(3,1,2,5)            -51.7437         estimate D2E/DX2                !
 ! D3    D(2,1,3,6)             57.1103         estimate D2E/DX2                !
 ! D4    D(2,1,3,7)           -178.4213         estimate D2E/DX2                !
 ! D5    D(2,1,3,8)            -58.9888         estimate D2E/DX2                !
 ! D6    D(1,2,4,9)             -0.5401         estimate D2E/DX2                !
 ! D7    D(1,2,4,10)           178.9002         estimate D2E/DX2                !
 ! D8    D(5,2,4,9)           -179.5717         estimate D2E/DX2                !
 ! D9    D(5,2,4,10)            -0.1314         estimate D2E/DX2                !
 ! D10   D(1,2,5,11)           -57.6304         estimate D2E/DX2                !
 ! D11   D(1,2,5,12)          -178.658          estimate D2E/DX2                !
 ! D12   D(1,2,5,13)            60.4682         estimate D2E/DX2                !
 ! D13   D(4,2,5,11)           121.4641         estimate D2E/DX2                !
 ! D14   D(4,2,5,12)             0.4366         estimate D2E/DX2                !
 ! D15   D(4,2,5,13)          -120.4372         estimate D2E/DX2                !
 ! D16   D(1,3,6,14)          -100.0285         estimate D2E/DX2                !
 ! D17   D(7,3,6,14)           134.4763         estimate D2E/DX2                !
 ! D18   D(8,3,6,14)            16.6668         estimate D2E/DX2                !
 ! D19   D(1,3,7,15)             9.7399         estimate D2E/DX2                !
 ! D20   D(6,3,7,15)           133.9454         estimate D2E/DX2                !
 ! D21   D(8,3,7,15)          -109.2732         estimate D2E/DX2                !
 ! D22   D(1,3,8,16)          -124.4855         estimate D2E/DX2                !
 ! D23   D(6,3,8,16)           117.0382         estimate D2E/DX2                !
 ! D24   D(7,3,8,16)            -2.3764         estimate D2E/DX2                !
 ! D25   D(3,8,16,17)          174.1354         estimate D2E/DX2                !
 ! D26   D(3,8,16,18)            1.782          estimate D2E/DX2                !
 ! D27   D(8,16,17,19)         -99.3968         estimate D2E/DX2                !
 ! D28   D(8,16,17,20)         141.8205         estimate D2E/DX2                !
 ! D29   D(8,16,17,21)          20.1701         estimate D2E/DX2                !
 ! D30   D(18,16,17,19)         72.7204         estimate D2E/DX2                !
 ! D31   D(18,16,17,20)        -46.0622         estimate D2E/DX2                !
 ! D32   D(18,16,17,21)       -167.7127         estimate D2E/DX2                !
 ! D33   D(8,16,18,22)         -30.8267         estimate D2E/DX2                !
 ! D34   D(8,16,18,23)        -152.873          estimate D2E/DX2                !
 ! D35   D(8,16,18,24)          87.9923         estimate D2E/DX2                !
 ! D36   D(17,16,18,22)        157.0907         estimate D2E/DX2                !
 ! D37   D(17,16,18,23)         35.0444         estimate D2E/DX2                !
 ! D38   D(17,16,18,24)        -84.0904         estimate D2E/DX2                !
 --------------------------------------------------------------------------------
 Trust Radius=3.00D-01 FncErr=1.00D-07 GrdErr=1.00D-06
 Number of steps in this run=    144 maximum allowed number of steps=    144.
 GradGradGradGradGradGradGradGradGradGradGradGradGradGradGradGradGradGrad

 Leave Link  103 at Sat Jul 13 01:59:29 2013, MaxMem=   524288000 cpu:         0.1
 (Enter /opt/g09/l202.exe)
                          Input orientation:                          
 ---------------------------------------------------------------------
 Center     Atomic      Atomic             Coordinates (Angstroms)
 Number     Number       Type             X           Y           Z
 ---------------------------------------------------------------------
      1          8           0       -2.365810    1.133150   -0.801080
      2          6           0       -3.440590    1.266920   -1.603730
      3         22           0       -1.058720    0.344400    0.202630
      4          6           0       -4.454510    2.087030   -1.284080
      5          6           0       -3.373460    0.442350   -2.863720
      6          8           0       -0.084800   -0.823470   -0.822040
      7          8           0        0.031730    1.559400    1.015260
      8          8           0       -1.892730   -0.667870    1.519780
      9          1           0       -4.439720    2.659650   -0.363400
     10          1           0       -5.302670    2.196200   -1.949030
     11          1           0       -2.475530    0.701380   -3.436210
     12          1           0       -4.254330    0.603520   -3.489270
     13          1           0       -3.304280   -0.624100   -2.617260
     14          1           0       -0.095770   -1.776110   -0.931000
     15          1           0       -0.004160    2.511370    1.123020
     16          6           0       -2.191240   -1.090550    2.705170
     17          6           0       -3.293000   -2.094810    2.851060
     18          6           0       -1.550460   -0.438650    3.891750
     19          1           0       -4.233470   -1.606600    3.154960
     20          1           0       -3.055160   -2.835120    3.623760
     21          1           0       -3.472580   -2.606350    1.902400
     22          1           0       -0.549790   -0.074680    3.638790
     23          1           0       -1.485650   -1.129900    4.738130
     24          1           0       -2.140380    0.431250    4.225760
 ---------------------------------------------------------------------
                    Distance matrix (angstroms):
                    1          2          3          4          5
     1  O    0.000000
     2  C    1.348070   0.000000
     3  Ti   1.827032   3.128464   0.000000
     4  C    2.346453   1.342680   4.096151   0.000000
     5  C    2.397300   1.507314   3.843191   2.523669   0.000000
     6  O    3.005297   4.030148   1.833682   5.270565   4.072596
     7  O    3.037923   4.359089   1.823643   5.068699   5.281061
     8  O    2.975545   3.986928   1.858803   4.691889   4.758174
     9  H    2.612062   2.115745   4.136657   1.084327   3.507838
    10  H    3.327613   2.109534   5.105871   1.083260   2.763060
    11  H    2.672522   2.146895   3.921217   3.235437   1.095956
    12  H    3.327669   2.158132   4.889703   2.665284   1.092346
    13  H    2.695768   2.149833   3.732601   3.232742   1.096742
    14  H    3.692391   4.571698   2.590165   5.834992   4.404568
    15  H    3.343507   4.559920   2.579724   5.077382   5.614902
    16  C    4.155611   5.068053   3.099095   5.579742   5.895758
    17  C    4.961606   5.582846   4.237444   5.994687   6.253188
    18  C    5.015776   6.056555   3.803233   6.449944   7.052366
    19  H    5.161844   5.615239   4.754124   5.779000   6.415787
    20  H    5.983442   6.655970   5.079296   7.090320   7.275337
    21  H    4.745272   5.224576   4.174070   5.757227   5.658648
    22  H    4.946638   6.135196   3.498833   6.644884   7.107958
    23  H    6.048051   7.055900   4.788172   7.445118   7.988987
    24  H    5.080610   6.030907   4.166906   6.201221   7.195925
                    6          7          8          9         10
     6  O    0.000000
     7  O    3.011199   0.000000
     8  O    2.962591   2.986439   0.000000
     9  H    5.595338   4.806778   4.594117   0.000000
    10  H    6.133081   6.135825   5.644752   1.863784   0.000000
    11  H    3.856766   5.180554   5.174586   4.139447   3.526884
    12  H    5.151252   6.290851   5.681916   3.746078   2.451119
    13  H    3.691560   5.393685   4.371440   4.141512   3.520538
    14  H    0.958914   3.863911   3.234746   6.234424   6.627778
    15  H    3.861466   0.958722   3.719097   4.680344   6.132783
    16  C    4.116993   3.849627   1.293413   5.341890   6.491941
    17  C    5.039892   5.270412   2.401920   5.852573   6.744806
    18  C    4.951370   3.843140   2.407474   6.004464   7.425377
    19  H    5.800111   5.726587   3.005677   5.533741   6.454083
    20  H    5.712697   5.970341   3.236502   6.928705   7.837185
    21  H    4.698754   5.515494   2.529828   5.813774   6.422401
    22  H    4.547077   3.145043   2.577899   6.214953   7.679225
    23  H    5.742105   4.836790   3.276730   7.008054   8.387532
    24  H    5.592854   4.037090   2.931164   5.595813   7.158433
                   11         12         13         14         15
    11  H    0.000000
    12  H    1.782280   0.000000
    13  H    1.764767   1.780463   0.000000
    14  H    4.251740   5.431483   3.803306   0.000000
    15  H    5.492751   6.555689   5.891660   4.754984   0.000000
    16  C    6.403779   6.745169   5.457536   4.252378   4.501149
    17  C    6.929408   6.957365   5.662653   4.962643   5.917726
    18  C    7.473582   7.929470   6.743700   5.211894   4.331227
    19  H    7.201434   7.002204   5.928509   5.817591   6.242878
    20  H    7.917448   7.991086   6.625783   5.534016   6.644340
    21  H    6.358926   6.323330   4.938114   4.485566   6.231246
    22  H    7.373355   8.061812   6.857641   4.897344   3.648899
    23  H    8.435241   8.852144   7.593748   5.872682   5.340663
    24  H    7.674052   8.001259   7.021065   5.970347   4.303177
                   16         17         18         19         20
    16  C    0.000000
    17  C    1.497898   0.000000
    18  C    1.497847   2.619608   0.000000
    19  H    2.153909   1.102356   3.017534   0.000000
    20  H    2.152601   1.096217   2.842360   1.765630   0.000000
    21  H    2.141009   1.092647   3.514396   1.774080   1.785961
    22  H    2.144294   3.496662   1.094442   4.018752   3.727886
    23  H    2.152285   2.785426   1.094708   3.206896   2.571567
    24  H    2.151896   3.098276   1.102857   3.111346   3.445054
                   21         22         23         24
    21  H    0.000000
    22  H    4.238762   0.000000
    23  H    3.764194   1.788259   0.000000
    24  H    4.049663   1.769315   1.768724   0.000000
 Symmetry turned off by external request.
 Stoichiometry    C6H13O4Ti(2)
 Framework group  C1[X(C6H13O4Ti)]
 Deg. of freedom    66
 Full point group                 C1      NOp   1
 Rotational constants (GHZ):      1.0519412      0.5215713      0.4441004
 Leave Link  202 at Sat Jul 13 01:59:29 2013, MaxMem=   524288000 cpu:         0.0
 (Enter /opt/g09/l301.exe)
 Standard basis: 6-311+G(d,p) (5D, 7F)
 Ernie: Thresh=  0.10000D-02 Tol=  0.10000D-05 Strict=F.
 AO basis set in the form of general basis input (Overlap normalization):
      1 0
 S   6 1.00       0.000000000000
      0.8588500000D+04  0.1895150083D-02
      0.1297230000D+04  0.1438590063D-01
      0.2992960000D+03  0.7073200310D-01
      0.8737710000D+02  0.2400010105D+00
      0.2567890000D+02  0.5947970261D+00
      0.3740040000D+01  0.2808020123D+00
 SP   3 1.00       0.000000000000
      0.4211750000D+02  0.1138890124D+00  0.3651139738D-01
      0.9628370000D+01  0.9208111006D+00  0.2371529830D+00
      0.2853320000D+01 -0.3274470358D-02  0.8197019412D+00
 SP   1 1.00       0.000000000000
      0.9056610000D+00  0.1000000000D+01  0.1000000000D+01
 SP   1 1.00       0.000000000000
      0.2556110000D+00  0.1000000000D+01  0.1000000000D+01
 SP   1 1.00       0.000000000000
      0.8450000000D-01  0.1000000000D+01  0.1000000000D+01
 D   1 1.00       0.000000000000
      0.1292000000D+01  0.1000000000D+01
 ****
      2 0
 S   6 1.00       0.000000000000
      0.4563240000D+04  0.1966650249D-02
      0.6820240000D+03  0.1523060193D-01
      0.1549730000D+03  0.7612690966D-01
      0.4445530000D+02  0.2608010331D+00
      0.1302900000D+02  0.6164620782D+00
      0.1827730000D+01  0.2210060280D+00
 SP   3 1.00       0.000000000000
      0.2096420000D+02  0.1146600807D+00  0.4024869267D-01
      0.4803310000D+01  0.9199996477D+00  0.2375939567D+00
      0.1459330000D+01 -0.3030682134D-02  0.8158538515D+00
 SP   1 1.00       0.000000000000
      0.4834560000D+00  0.1000000000D+01  0.1000000000D+01
 SP   1 1.00       0.000000000000
      0.1455850000D+00  0.1000000000D+01  0.1000000000D+01
 SP   1 1.00       0.000000000000
      0.4380000000D-01  0.1000000000D+01  0.1000000000D+01
 D   1 1.00       0.000000000000
      0.6260000000D+00  0.1000000000D+01
 ****
      3 0
 S   6 1.00       0.000000000000
      0.2060820000D+06  0.5673151380D-03
      0.3122680000D+05  0.4379672866D-02
      0.7199320000D+04  0.2242029425D-01
      0.2048750000D+04  0.9063426645D-01
      0.6707900000D+03  0.2890357165D+00
      0.2436500000D+03  0.6803470061D+00
 S   1 1.00       0.000000000000
      0.9592500000D+02  0.1000000000D+01
 S   1 1.00       0.000000000000
      0.3981010000D+02  0.1000000000D+01
 S   1 1.00       0.000000000000
      0.1222050000D+02  0.1000000000D+01
 S   1 1.00       0.000000000000
      0.5008820000D+01  0.1000000000D+01
 S   1 1.00       0.000000000000
      0.1285690000D+01  0.1000000000D+01
 S   1 1.00       0.000000000000
      0.5128060000D+00  0.1000000000D+01
 S   1 1.00       0.000000000000
      0.8557600000D-01  0.1000000000D+01
 S   1 1.00       0.000000000000
      0.3330200000D-01  0.1000000000D+01
 S   1 1.00       0.000000000000
      0.9991000000D-02  0.1000000000D+01
 P   5 1.00       0.000000000000
      0.1264700000D+04  0.3122017423D-02
      0.3012300000D+03  0.2516579464D-01
      0.9697770000D+02  0.1184178291D+00
      0.3637270000D+02  0.3522190030D+00
      0.1478140000D+02  0.6219379661D+00
 P   1 1.00       0.000000000000
      0.6274650000D+01  0.1000000000D+01
 P   1 1.00       0.000000000000
      0.2478780000D+01  0.1000000000D+01
 P   1 1.00       0.000000000000
      0.1016180000D+01  0.1000000000D+01
 P   1 1.00       0.000000000000
      0.3981620000D+00  0.1000000000D+01
 P   1 1.00       0.000000000000
      0.1015610000D+00  0.1000000000D+01
 P   1 1.00       0.000000000000
      0.3405400000D-01  0.1000000000D+01
 D   3 1.00       0.000000000000
      0.2599240000D+02  0.5411706153D-01
      0.7086340000D+01  0.2873032281D+00
      0.2348710000D+01  0.7854540223D+00
 D   1 1.00       0.000000000000
      0.8001980000D+00  0.1000000000D+01
 D   1 1.00       0.000000000000
      0.2620490000D+00  0.1000000000D+01
 D   1 1.00       0.000000000000
      0.7200000000D-01  0.1000000000D+01
 F   1 1.00       0.000000000000
      0.6900000000D+00  0.1000000000D+01
 ****
      4 0
 S   6 1.00       0.000000000000
      0.4563240000D+04  0.1966650249D-02
      0.6820240000D+03  0.1523060193D-01
      0.1549730000D+03  0.7612690966D-01
      0.4445530000D+02  0.2608010331D+00
      0.1302900000D+02  0.6164620782D+00
      0.1827730000D+01  0.2210060280D+00
 SP   3 1.00       0.000000000000
      0.2096420000D+02  0.1146600807D+00  0.4024869267D-01
      0.4803310000D+01  0.9199996477D+00  0.2375939567D+00
      0.1459330000D+01 -0.3030682134D-02  0.8158538515D+00
 SP   1 1.00       0.000000000000
      0.4834560000D+00  0.1000000000D+01  0.1000000000D+01
 SP   1 1.00       0.000000000000
      0.1455850000D+00  0.1000000000D+01  0.1000000000D+01
 SP   1 1.00       0.000000000000
      0.4380000000D-01  0.1000000000D+01  0.1000000000D+01
 D   1 1.00       0.000000000000
      0.6260000000D+00  0.1000000000D+01
 ****
      5 0
 S   6 1.00       0.000000000000
      0.4563240000D+04  0.1966650249D-02
      0.6820240000D+03  0.1523060193D-01
      0.1549730000D+03  0.7612690966D-01
      0.4445530000D+02  0.2608010331D+00
      0.1302900000D+02  0.6164620782D+00
      0.1827730000D+01  0.2210060280D+00
 SP   3 1.00       0.000000000000
      0.2096420000D+02  0.1146600807D+00  0.4024869267D-01
      0.4803310000D+01  0.9199996477D+00  0.2375939567D+00
      0.1459330000D+01 -0.3030682134D-02  0.8158538515D+00
 SP   1 1.00       0.000000000000
      0.4834560000D+00  0.1000000000D+01  0.1000000000D+01
 SP   1 1.00       0.000000000000
      0.1455850000D+00  0.1000000000D+01  0.1000000000D+01
 SP   1 1.00       0.000000000000
      0.4380000000D-01  0.1000000000D+01  0.1000000000D+01
 D   1 1.00       0.000000000000
      0.6260000000D+00  0.1000000000D+01
 ****
      6 0
 S   6 1.00       0.000000000000
      0.8588500000D+04  0.1895150083D-02
      0.1297230000D+04  0.1438590063D-01
      0.2992960000D+03  0.7073200310D-01
      0.8737710000D+02  0.2400010105D+00
      0.2567890000D+02  0.5947970261D+00
      0.3740040000D+01  0.2808020123D+00
 SP   3 1.00       0.000000000000
      0.4211750000D+02  0.1138890124D+00  0.3651139738D-01
      0.9628370000D+01  0.9208111006D+00  0.2371529830D+00
      0.2853320000D+01 -0.3274470358D-02  0.8197019412D+00
 SP   1 1.00       0.000000000000
      0.9056610000D+00  0.1000000000D+01  0.1000000000D+01
 SP   1 1.00       0.000000000000
      0.2556110000D+00  0.1000000000D+01  0.1000000000D+01
 SP   1 1.00       0.000000000000
      0.8450000000D-01  0.1000000000D+01  0.1000000000D+01
 D   1 1.00       0.000000000000
      0.1292000000D+01  0.1000000000D+01
 ****
      7 0
 S   6 1.00       0.000000000000
      0.8588500000D+04  0.1895150083D-02
      0.1297230000D+04  0.1438590063D-01
      0.2992960000D+03  0.7073200310D-01
      0.8737710000D+02  0.2400010105D+00
      0.2567890000D+02  0.5947970261D+00
      0.3740040000D+01  0.2808020123D+00
 SP   3 1.00       0.000000000000
      0.4211750000D+02  0.1138890124D+00  0.3651139738D-01
      0.9628370000D+01  0.9208111006D+00  0.2371529830D+00
      0.2853320000D+01 -0.3274470358D-02  0.8197019412D+00
 SP   1 1.00       0.000000000000
      0.9056610000D+00  0.1000000000D+01  0.1000000000D+01
 SP   1 1.00       0.000000000000
      0.2556110000D+00  0.1000000000D+01  0.1000000000D+01
 SP   1 1.00       0.000000000000
      0.8450000000D-01  0.1000000000D+01  0.1000000000D+01
 D   1 1.00       0.000000000000
      0.1292000000D+01  0.1000000000D+01
 ****
      8 0
 S   6 1.00       0.000000000000
      0.8588500000D+04  0.1895150083D-02
      0.1297230000D+04  0.1438590063D-01
      0.2992960000D+03  0.7073200310D-01
      0.8737710000D+02  0.2400010105D+00
      0.2567890000D+02  0.5947970261D+00
      0.3740040000D+01  0.2808020123D+00
 SP   3 1.00       0.000000000000
      0.4211750000D+02  0.1138890124D+00  0.3651139738D-01
      0.9628370000D+01  0.9208111006D+00  0.2371529830D+00
      0.2853320000D+01 -0.3274470358D-02  0.8197019412D+00
 SP   1 1.00       0.000000000000
      0.9056610000D+00  0.1000000000D+01  0.1000000000D+01
 SP   1 1.00       0.000000000000
      0.2556110000D+00  0.1000000000D+01  0.1000000000D+01
 SP   1 1.00       0.000000000000
      0.8450000000D-01  0.1000000000D+01  0.1000000000D+01
 D   1 1.00       0.000000000000
      0.1292000000D+01  0.1000000000D+01
 ****
      9 0
 S   3 1.00       0.000000000000
      0.3386500000D+02  0.2549381454D-01
      0.5094790000D+01  0.1903731086D+00
      0.1158790000D+01  0.8521614860D+00
 S   1 1.00       0.000000000000
      0.3258400000D+00  0.1000000000D+01
 S   1 1.00       0.000000000000
      0.1027410000D+00  0.1000000000D+01
 P   1 1.00       0.000000000000
      0.7500000000D+00  0.1000000000D+01
 ****
     10 0
 S   3 1.00       0.000000000000
      0.3386500000D+02  0.2549381454D-01
      0.5094790000D+01  0.1903731086D+00
      0.1158790000D+01  0.8521614860D+00
 S   1 1.00       0.000000000000
      0.3258400000D+00  0.1000000000D+01
 S   1 1.00       0.000000000000
      0.1027410000D+00  0.1000000000D+01
 P   1 1.00       0.000000000000
      0.7500000000D+00  0.1000000000D+01
 ****
     11 0
 S   3 1.00       0.000000000000
      0.3386500000D+02  0.2549381454D-01
      0.5094790000D+01  0.1903731086D+00
      0.1158790000D+01  0.8521614860D+00
 S   1 1.00       0.000000000000
      0.3258400000D+00  0.1000000000D+01
 S   1 1.00       0.000000000000
      0.1027410000D+00  0.1000000000D+01
 P   1 1.00       0.000000000000
      0.7500000000D+00  0.1000000000D+01
 ****
     12 0
 S   3 1.00       0.000000000000
      0.3386500000D+02  0.2549381454D-01
      0.5094790000D+01  0.1903731086D+00
      0.1158790000D+01  0.8521614860D+00
 S   1 1.00       0.000000000000
      0.3258400000D+00  0.1000000000D+01
 S   1 1.00       0.000000000000
      0.1027410000D+00  0.1000000000D+01
 P   1 1.00       0.000000000000
      0.7500000000D+00  0.1000000000D+01
 ****
     13 0
 S   3 1.00       0.000000000000
      0.3386500000D+02  0.2549381454D-01
      0.5094790000D+01  0.1903731086D+00
      0.1158790000D+01  0.8521614860D+00
 S   1 1.00       0.000000000000
      0.3258400000D+00  0.1000000000D+01
 S   1 1.00       0.000000000000
      0.1027410000D+00  0.1000000000D+01
 P   1 1.00       0.000000000000
      0.7500000000D+00  0.1000000000D+01
 ****
     14 0
 S   3 1.00       0.000000000000
      0.3386500000D+02  0.2549381454D-01
      0.5094790000D+01  0.1903731086D+00
      0.1158790000D+01  0.8521614860D+00
 S   1 1.00       0.000000000000
      0.3258400000D+00  0.1000000000D+01
 S   1 1.00       0.000000000000
      0.1027410000D+00  0.1000000000D+01
 P   1 1.00       0.000000000000
      0.7500000000D+00  0.1000000000D+01
 ****
     15 0
 S   3 1.00       0.000000000000
      0.3386500000D+02  0.2549381454D-01
      0.5094790000D+01  0.1903731086D+00
      0.1158790000D+01  0.8521614860D+00
 S   1 1.00       0.000000000000
      0.3258400000D+00  0.1000000000D+01
 S   1 1.00       0.000000000000
      0.1027410000D+00  0.1000000000D+01
 P   1 1.00       0.000000000000
      0.7500000000D+00  0.1000000000D+01
 ****
     16 0
 S   6 1.00       0.000000000000
      0.4563240000D+04  0.1966650249D-02
      0.6820240000D+03  0.1523060193D-01
      0.1549730000D+03  0.7612690966D-01
      0.4445530000D+02  0.2608010331D+00
      0.1302900000D+02  0.6164620782D+00
      0.1827730000D+01  0.2210060280D+00
 SP   3 1.00       0.000000000000
      0.2096420000D+02  0.1146600807D+00  0.4024869267D-01
      0.4803310000D+01  0.9199996477D+00  0.2375939567D+00
      0.1459330000D+01 -0.3030682134D-02  0.8158538515D+00
 SP   1 1.00       0.000000000000
      0.4834560000D+00  0.1000000000D+01  0.1000000000D+01
 SP   1 1.00       0.000000000000
      0.1455850000D+00  0.1000000000D+01  0.1000000000D+01
 SP   1 1.00       0.000000000000
      0.4380000000D-01  0.1000000000D+01  0.1000000000D+01
 D   1 1.00       0.000000000000
      0.6260000000D+00  0.1000000000D+01
 ****
     17 0
 S   6 1.00       0.000000000000
      0.4563240000D+04  0.1966650249D-02
      0.6820240000D+03  0.1523060193D-01
      0.1549730000D+03  0.7612690966D-01
      0.4445530000D+02  0.2608010331D+00
      0.1302900000D+02  0.6164620782D+00
      0.1827730000D+01  0.2210060280D+00
 SP   3 1.00       0.000000000000
      0.2096420000D+02  0.1146600807D+00  0.4024869267D-01
      0.4803310000D+01  0.9199996477D+00  0.2375939567D+00
      0.1459330000D+01 -0.3030682134D-02  0.8158538515D+00
 SP   1 1.00       0.000000000000
      0.4834560000D+00  0.1000000000D+01  0.1000000000D+01
 SP   1 1.00       0.000000000000
      0.1455850000D+00  0.1000000000D+01  0.1000000000D+01
 SP   1 1.00       0.000000000000
      0.4380000000D-01  0.1000000000D+01  0.1000000000D+01
 D   1 1.00       0.000000000000
      0.6260000000D+00  0.1000000000D+01
 ****
     18 0
 S   6 1.00       0.000000000000
      0.4563240000D+04  0.1966650249D-02
      0.6820240000D+03  0.1523060193D-01
      0.1549730000D+03  0.7612690966D-01
      0.4445530000D+02  0.2608010331D+00
      0.1302900000D+02  0.6164620782D+00
      0.1827730000D+01  0.2210060280D+00
 SP   3 1.00       0.000000000000
      0.2096420000D+02  0.1146600807D+00  0.4024869267D-01
      0.4803310000D+01  0.9199996477D+00  0.2375939567D+00
      0.1459330000D+01 -0.3030682134D-02  0.8158538515D+00
 SP   1 1.00       0.000000000000
      0.4834560000D+00  0.1000000000D+01  0.1000000000D+01
 SP   1 1.00       0.000000000000
      0.1455850000D+00  0.1000000000D+01  0.1000000000D+01
 SP   1 1.00       0.000000000000
      0.4380000000D-01  0.1000000000D+01  0.1000000000D+01
 D   1 1.00       0.000000000000
      0.6260000000D+00  0.1000000000D+01
 ****
     19 0
 S   3 1.00       0.000000000000
      0.3386500000D+02  0.2549381454D-01
      0.5094790000D+01  0.1903731086D+00
      0.1158790000D+01  0.8521614860D+00
 S   1 1.00       0.000000000000
      0.3258400000D+00  0.1000000000D+01
 S   1 1.00       0.000000000000
      0.1027410000D+00  0.1000000000D+01
 P   1 1.00       0.000000000000
      0.7500000000D+00  0.1000000000D+01
 ****
     20 0
 S   3 1.00       0.000000000000
      0.3386500000D+02  0.2549381454D-01
      0.5094790000D+01  0.1903731086D+00
      0.1158790000D+01  0.8521614860D+00
 S   1 1.00       0.000000000000
      0.3258400000D+00  0.1000000000D+01
 S   1 1.00       0.000000000000
      0.1027410000D+00  0.1000000000D+01
 P   1 1.00       0.000000000000
      0.7500000000D+00  0.1000000000D+01
 ****
     21 0
 S   3 1.00       0.000000000000
      0.3386500000D+02  0.2549381454D-01
      0.5094790000D+01  0.1903731086D+00
      0.1158790000D+01  0.8521614860D+00
 S   1 1.00       0.000000000000
      0.3258400000D+00  0.1000000000D+01
 S   1 1.00       0.000000000000
      0.1027410000D+00  0.1000000000D+01
 P   1 1.00       0.000000000000
      0.7500000000D+00  0.1000000000D+01
 ****
     22 0
 S   3 1.00       0.000000000000
      0.3386500000D+02  0.2549381454D-01
      0.5094790000D+01  0.1903731086D+00
      0.1158790000D+01  0.8521614860D+00
 S   1 1.00       0.000000000000
      0.3258400000D+00  0.1000000000D+01
 S   1 1.00       0.000000000000
      0.1027410000D+00  0.1000000000D+01
 P   1 1.00       0.000000000000
      0.7500000000D+00  0.1000000000D+01
 ****
     23 0
 S   3 1.00       0.000000000000
      0.3386500000D+02  0.2549381454D-01
      0.5094790000D+01  0.1903731086D+00
      0.1158790000D+01  0.8521614860D+00
 S   1 1.00       0.000000000000
      0.3258400000D+00  0.1000000000D+01
 S   1 1.00       0.000000000000
      0.1027410000D+00  0.1000000000D+01
 P   1 1.00       0.000000000000
      0.7500000000D+00  0.1000000000D+01
 ****
     24 0
 S   3 1.00       0.000000000000
      0.3386500000D+02  0.2549381454D-01
      0.5094790000D+01  0.1903731086D+00
      0.1158790000D+01  0.8521614860D+00
 S   1 1.00       0.000000000000
      0.3258400000D+00  0.1000000000D+01
 S   1 1.00       0.000000000000
      0.1027410000D+00  0.1000000000D+01
 P   1 1.00       0.000000000000
      0.7500000000D+00  0.1000000000D+01
 ****

   356 basis functions,   558 primitive gaussians,   373 cartesian basis functions
    52 alpha electrons       51 beta electrons
       nuclear repulsion energy       855.2311916368 Hartrees.
 IExCor= 1614 DFT=T Ex+Corr=B971 ExCW=0 ScaHFX=  0.210000
 ScaDFX=  1.000000  1.000000  1.000000  1.000000 ScalE2=  1.000000  1.000000
 IRadAn=      5 IRanWt=     -1 IRanGd=            0 ICorTp=0 IEmpDi=  4
 NAtoms=   24 NActive=   24 NUniq=   24 SFac= 1.00D+00 NAtFMM=   60 NAOKFM=F Big=F
 Integral buffers will be    131072 words long.
 Raffenetti 2 integral format.
 Two-electron integral symmetry is turned off.
 Leave Link  301 at Sat Jul 13 01:59:29 2013, MaxMem=   524288000 cpu:         0.4
 (Enter /opt/g09/l302.exe)
 NPDir=0 NMtPBC=     1 NCelOv=     1 NCel=       1 NClECP=     1 NCelD=      1
         NCelK=      1 NCelE2=     1 NClLst=     1 CellRange=     0.0.
 One-electron integrals computed using PRISM.
 NBasis=   356 RedAO= T EigKep=  2.14D-05  NBF=   356
 NBsUse=   356 1.00D-06 EigRej= -1.00D+00 NBFU=   356
 Precomputing XC quadrature grid using
 IXCGrd= 4 IRadAn=           5 IRanWt=          -1 IRanGd=           0 AccXCQ= 0.00D+00.
 Generated NRdTot=       0 NPtTot=           0 NUsed=           0 NTot=          32
 NSgBfM=   366   366   366   366   367 MxSgAt=    24 MxSgA2=    24.
 Leave Link  302 at Sat Jul 13 01:59:29 2013, MaxMem=   524288000 cpu:         4.4
 (Enter /opt/g09/l303.exe)
 DipDrv:  MaxL=1.
 Leave Link  303 at Sat Jul 13 01:59:30 2013, MaxMem=   524288000 cpu:         0.5
 (Enter /opt/g09/l401.exe)
 ExpMin= 9.99D-03 ExpMax= 2.06D+05 ExpMxC= 7.20D+03 IAcc=3 IRadAn=         5 AccDes= 0.00D+00
 Harris functional with IExCor= 1614 and IRadAn=       5 diagonalized for initial guess.
 HarFok:  IExCor= 1614 AccDes= 0.00D+00 IRadAn=         5 IDoV= 1 UseB2=F ITyADJ=14
 ICtDFT=  3500011 ScaDFX=  1.000000  1.000000  1.000000  1.000000
 FoFCou: FMM=F IPFlag=           0 FMFlag=      100000 FMFlg1=           0
         NFxFlg=           0 DoJE=T BraDBF=F KetDBF=T FulRan=T
         wScrn=  0.000000 ICntrl=     500 IOpCl=  0 I1Cent=   200000004 NGrid=           0
         NMat0=    1 NMatS0=      1 NMatT0=    0 NMatD0=    1 NMtDS0=    0 NMtDT0=    0
 Symmetry not used in FoFCou.
 Harris En= -1364.25182418091    
 JPrj=0 DoOrth=F DoCkMO=T.
 Mixing orbitals, IMix= 1 IMixAn=  0 NRI=1 NE=   52 Coef=  7.07106781D-01  7.07106781D-01
 Mixing orbitals, IMix= 1 IMixAn=  0 NRI=1 NE=   51 Coef= -7.07106781D-01  7.07106781D-01
 Initial guess <Sx>= 0.0000 <Sy>= 0.0000 <Sz>= 0.5000 <S**2>= 1.0000 S= 0.6180
 Leave Link  401 at Sat Jul 13 01:59:33 2013, MaxMem=   524288000 cpu:        30.9
 (Enter /opt/g09/l502.exe)
 UHF open shell SCF:
 Using DIIS extrapolation, IDIIS=  1040.
 Two-electron integral symmetry not used.
 IVT=      441207 IEndB=      441207 NGot=   524288000 MDV=   524002936
 LenX=   524002936 LenY=   523863366
 Requested convergence on RMS density matrix=1.00D-08 within 128 cycles.
 Requested convergence on MAX density matrix=1.00D-06.
 Requested convergence on             energy=1.00D-06.
 No special actions if energy rises.
 Fock matrices will be formed incrementally for  20 cycles.

 Cycle   1  Pass 1  IDiag  1:
 FoFJK:  IHMeth= 1 ICntrl=       0 DoSepK=F KAlg= 0 I1Cent=   0 FoldK=F
 IRaf= 830000000 NMat=   1 IRICut=       1 DoRegI=T DoRafI=F ISym2E= 0.
 FoFCou: FMM=F IPFlag=           0 FMFlag=      100000 FMFlg1=           0
         NFxFlg=           0 DoJE=F BraDBF=F KetDBF=F FulRan=T
         wScrn=  0.000000 ICntrl=       0 IOpCl=  1 I1Cent=           0 NGrid=           0
         NMat0=    1 NMatS0=      1 NMatT0=    0 NMatD0=    1 NMtDS0=    0 NMtDT0=    0
 Symmetry not used in FoFCou.
 E= -1386.23837161393    
 DIIS: error= 8.75D-02 at cycle   1 NSaved=   1.
 NSaved= 1 IEnMin= 1 EnMin= -1386.23837161393     IErMin= 1 ErrMin= 8.75D-02
 ErrMax= 8.75D-02  0.00D+00 EMaxC= 1.00D-01 BMatC= 1.40D+01 BMatP= 1.40D+01
 IDIUse=3 WtCom= 1.25D-01 WtEn= 8.75D-01
 Coeff-Com:  0.100D+01
 Coeff-En:   0.100D+01
 Coeff:      0.100D+01
 Gap=     0.014 Goal=   None    Shift=    0.000
 Gap=     0.038 Goal=   None    Shift=    0.000
 GapD=    0.014 DampG=0.250 DampE=0.250 DampFc=0.1250 IDamp=-1.
 Damping current iteration by 1.25D-01
 RMSDP=8.04D-03 MaxDP=7.47D-01              OVMax= 7.49D-01

 Cycle   2  Pass 1  IDiag  1:
 RMSU=  9.89D-04    CP:  9.87D-01
 E= -1386.23127514494     Delta-E=        0.007096468990 Rises=F Damp=T
 DIIS: error= 7.68D-02 at cycle   2 NSaved=   2.
 NSaved= 2 IEnMin= 1 EnMin= -1386.23837161393     IErMin= 2 ErrMin= 7.68D-02
 ErrMax= 7.68D-02  0.00D+00 EMaxC= 1.00D-01 BMatC= 8.34D+00 BMatP= 1.40D+01
 IDIUse=3 WtCom= 2.32D-01 WtEn= 7.68D-01
 Coeff-Com: -0.937D+00 0.194D+01
 Coeff-En:   0.510D+00 0.490D+00
 Coeff:      0.173D+00 0.827D+00
 Gap=     0.029 Goal=   None    Shift=    0.000
 Gap=    -0.087 Goal=   None    Shift=    0.000
 RMSDP=4.21D-03 MaxDP=6.55D-01 DE= 7.10D-03 OVMax= 9.14D-01

 Cycle   3  Pass 1  IDiag  1:
 RMSU=  3.79D-03    CP:  8.96D-01  2.42D+00
 E= -1386.82283716268     Delta-E=       -0.591562017736 Rises=F Damp=F
 DIIS: error= 1.25D-02 at cycle   3 NSaved=   3.
 NSaved= 3 IEnMin= 3 EnMin= -1386.82283716268     IErMin= 3 ErrMin= 1.25D-02
 ErrMax= 1.25D-02  0.00D+00 EMaxC= 1.00D-01 BMatC= 4.94D-01 BMatP= 8.34D+00
 IDIUse=3 WtCom= 8.75D-01 WtEn= 1.25D-01
 Coeff-Com: -0.621D-02 0.158D+00 0.848D+00
 Coeff-En:   0.000D+00 0.000D+00 0.100D+01
 Coeff:     -0.544D-02 0.139D+00 0.867D+00
 Gap=     0.145 Goal=   None    Shift=    0.000
 Gap=     0.112 Goal=   None    Shift=    0.000
 RMSDP=2.26D-03 MaxDP=6.68D-02 DE=-5.92D-01 OVMax= 2.65D-01

 Cycle   4  Pass 1  IDiag  1:
 RMSU=  2.04D-03    CP:  9.06D-01  2.71D+00  7.56D-01
 E= -1386.82157240999     Delta-E=        0.001264752689 Rises=F Damp=F
 DIIS: error= 1.07D-02 at cycle   4 NSaved=   4.
 NSaved= 4 IEnMin= 3 EnMin= -1386.82283716268     IErMin= 4 ErrMin= 1.07D-02
 ErrMax= 1.07D-02  0.00D+00 EMaxC= 1.00D-01 BMatC= 3.37D-01 BMatP= 4.94D-01
 IDIUse=3 WtCom= 8.93D-01 WtEn= 1.07D-01
 Coeff-Com: -0.140D-02 0.612D-01 0.479D+00 0.461D+00
 Coeff-En:   0.000D+00 0.000D+00 0.504D+00 0.496D+00
 Coeff:     -0.125D-02 0.547D-01 0.482D+00 0.465D+00
 Gap=     0.087 Goal=   None    Shift=    0.000
 Gap=     0.166 Goal=   None    Shift=    0.000
 RMSDP=1.13D-03 MaxDP=4.92D-02 DE= 1.26D-03 OVMax= 2.32D-01

 Cycle   5  Pass 1  IDiag  1:
 RMSU=  7.74D-04    CP:  8.93D-01  2.76D+00  8.28D-01  6.26D-01
 E= -1386.87839576723     Delta-E=       -0.056823357241 Rises=F Damp=F
 DIIS: error= 8.05D-03 at cycle   5 NSaved=   5.
 NSaved= 5 IEnMin= 5 EnMin= -1386.87839576723     IErMin= 5 ErrMin= 8.05D-03
 ErrMax= 8.05D-03  0.00D+00 EMaxC= 1.00D-01 BMatC= 7.22D-02 BMatP= 3.37D-01
 IDIUse=3 WtCom= 9.19D-01 WtEn= 8.05D-02
 Coeff-Com:  0.367D-01-0.209D-01 0.228D+00 0.313D+00 0.443D+00
 Coeff-En:   0.000D+00 0.000D+00 0.000D+00 0.163D+00 0.837D+00
 Coeff:      0.338D-01-0.192D-01 0.210D+00 0.301D+00 0.475D+00
 Gap=     0.098 Goal=   None    Shift=    0.000
 Gap=     0.165 Goal=   None    Shift=    0.000
 RMSDP=5.91D-04 MaxDP=1.98D-02 DE=-5.68D-02 OVMax= 1.36D-01

 Cycle   6  Pass 1  IDiag  1:
 RMSU=  3.95D-04    CP:  8.94D-01  2.65D+00  8.63D-01  6.72D-01  4.91D-01
 E= -1386.89175254646     Delta-E=       -0.013356779235 Rises=F Damp=F
 DIIS: error= 2.60D-03 at cycle   6 NSaved=   6.
 NSaved= 6 IEnMin= 6 EnMin= -1386.89175254646     IErMin= 6 ErrMin= 2.60D-03
 ErrMax= 2.60D-03  0.00D+00 EMaxC= 1.00D-01 BMatC= 1.18D-02 BMatP= 7.22D-02
 IDIUse=3 WtCom= 9.74D-01 WtEn= 2.60D-02
 Coeff-Com:  0.133D-01-0.139D-01 0.472D-01 0.103D+00 0.320D+00 0.530D+00
 Coeff-En:   0.000D+00 0.000D+00 0.000D+00 0.000D+00 0.192D+00 0.808D+00
 Coeff:      0.130D-01-0.135D-01 0.459D-01 0.100D+00 0.317D+00 0.538D+00
 Gap=     0.099 Goal=   None    Shift=    0.000
 Gap=     0.159 Goal=   None    Shift=    0.000
 RMSDP=2.07D-04 MaxDP=7.57D-03 DE=-1.34D-02 OVMax= 3.98D-02

 Cycle   7  Pass 1  IDiag  1:
 RMSU=  9.30D-05    CP:  8.94D-01  2.69D+00  8.52D-01  6.90D-01  6.65D-01
                    CP:  7.27D-01
 E= -1386.89440999992     Delta-E=       -0.002657453463 Rises=F Damp=F
 DIIS: error= 4.94D-04 at cycle   7 NSaved=   7.
 NSaved= 7 IEnMin= 7 EnMin= -1386.89440999992     IErMin= 7 ErrMin= 4.94D-04
 ErrMax= 4.94D-04  0.00D+00 EMaxC= 1.00D-01 BMatC= 4.56D-04 BMatP= 1.18D-02
 IDIUse=3 WtCom= 9.95D-01 WtEn= 4.94D-03
 Coeff-Com:  0.351D-02-0.470D-02-0.102D-02 0.118D-01 0.845D-01 0.233D+00
 Coeff-Com:  0.673D+00
 Coeff-En:   0.000D+00 0.000D+00 0.000D+00 0.000D+00 0.000D+00 0.000D+00
 Coeff-En:   0.100D+01
 Coeff:      0.349D-02-0.467D-02-0.102D-02 0.117D-01 0.841D-01 0.232D+00
 Coeff:      0.674D+00
 Gap=     0.101 Goal=   None    Shift=    0.000
 Gap=     0.162 Goal=   None    Shift=    0.000
 RMSDP=5.23D-05 MaxDP=1.42D-03 DE=-2.66D-03 OVMax= 7.90D-03

 Cycle   8  Pass 1  IDiag  1:
 RMSU=  3.89D-05    CP:  8.93D-01  2.69D+00  8.53D-01  6.91D-01  6.71D-01
                    CP:  8.13D-01  9.56D-01
 E= -1386.89452708513     Delta-E=       -0.000117085210 Rises=F Damp=F
 DIIS: error= 3.70D-04 at cycle   8 NSaved=   8.
 NSaved= 8 IEnMin= 8 EnMin= -1386.89452708513     IErMin= 8 ErrMin= 3.70D-04
 ErrMax= 3.70D-04  0.00D+00 EMaxC= 1.00D-01 BMatC= 1.63D-04 BMatP= 4.56D-04
 IDIUse=3 WtCom= 9.96D-01 WtEn= 3.70D-03
 Coeff-Com: -0.944D-03 0.501D-03-0.959D-02-0.138D-01-0.178D-01 0.312D-01
 Coeff-Com:  0.422D+00 0.588D+00
 Coeff-En:   0.000D+00 0.000D+00 0.000D+00 0.000D+00 0.000D+00 0.000D+00
 Coeff-En:   0.000D+00 0.100D+01
 Coeff:     -0.941D-03 0.499D-03-0.956D-02-0.138D-01-0.177D-01 0.311D-01
 Coeff:      0.421D+00 0.590D+00
 Gap=     0.101 Goal=   None    Shift=    0.000
 Gap=     0.162 Goal=   None    Shift=    0.000
 RMSDP=3.01D-05 MaxDP=9.92D-04 DE=-1.17D-04 OVMax= 3.65D-03

 Cycle   9  Pass 1  IDiag  1:
 RMSU=  2.41D-05    CP:  8.93D-01  2.69D+00  8.51D-01  6.95D-01  6.82D-01
                    CP:  8.19D-01  1.06D+00  9.39D-01
 E= -1386.89457522978     Delta-E=       -0.000048144644 Rises=F Damp=F
 DIIS: error= 1.72D-04 at cycle   9 NSaved=   9.
 NSaved= 9 IEnMin= 9 EnMin= -1386.89457522978     IErMin= 9 ErrMin= 1.72D-04
 ErrMax= 1.72D-04  0.00D+00 EMaxC= 1.00D-01 BMatC= 3.43D-05 BMatP= 1.63D-04
 IDIUse=3 WtCom= 9.98D-01 WtEn= 1.72D-03
 Coeff-Com: -0.113D-02 0.117D-02-0.443D-02-0.988D-02-0.315D-01-0.429D-01
 Coeff-Com:  0.608D-01 0.338D+00 0.690D+00
 Coeff-En:   0.000D+00 0.000D+00 0.000D+00 0.000D+00 0.000D+00 0.000D+00
 Coeff-En:   0.000D+00 0.000D+00 0.100D+01
 Coeff:     -0.113D-02 0.117D-02-0.442D-02-0.986D-02-0.314D-01-0.428D-01
 Coeff:      0.607D-01 0.338D+00 0.690D+00
 Gap=     0.101 Goal=   None    Shift=    0.000
 Gap=     0.162 Goal=   None    Shift=    0.000
 RMSDP=1.61D-05 MaxDP=4.94D-04 DE=-4.81D-05 OVMax= 2.89D-03

 Cycle  10  Pass 1  IDiag  1:
 RMSU=  1.06D-05    CP:  8.93D-01  2.69D+00  8.51D-01  6.97D-01  6.79D-01
                    CP:  8.32D-01  1.13D+00  1.14D+00  1.01D+00
 E= -1386.89458898608     Delta-E=       -0.000013756300 Rises=F Damp=F
 DIIS: error= 8.43D-05 at cycle  10 NSaved=  10.
 NSaved=10 IEnMin=10 EnMin= -1386.89458898608     IErMin=10 ErrMin= 8.43D-05
 ErrMax= 8.43D-05  0.00D+00 EMaxC= 1.00D-01 BMatC= 1.16D-05 BMatP= 3.43D-05
 IDIUse=1 WtCom= 1.00D+00 WtEn= 0.00D+00
 Coeff-Com: -0.794D-03 0.101D-02 0.377D-03-0.146D-02-0.112D-01-0.346D-01
 Coeff-Com: -0.915D-01 0.210D-01 0.420D+00 0.698D+00
 Coeff:     -0.794D-03 0.101D-02 0.377D-03-0.146D-02-0.112D-01-0.346D-01
 Coeff:     -0.915D-01 0.210D-01 0.420D+00 0.698D+00
 Gap=     0.101 Goal=   None    Shift=    0.000
 Gap=     0.163 Goal=   None    Shift=    0.000
 RMSDP=1.04D-05 MaxDP=3.92D-04 DE=-1.38D-05 OVMax= 2.37D-03

 Cycle  11  Pass 1  IDiag  1:
 RMSU=  6.57D-06    CP:  8.93D-01  2.69D+00  8.51D-01  6.96D-01  6.75D-01
                    CP:  8.41D-01  1.16D+00  1.26D+00  1.14D+00  1.11D+00
 E= -1386.89459254487     Delta-E=       -0.000003558787 Rises=F Damp=F
 DIIS: error= 7.71D-05 at cycle  11 NSaved=  11.
 NSaved=11 IEnMin=11 EnMin= -1386.89459254487     IErMin=11 ErrMin= 7.71D-05
 ErrMax= 7.71D-05  0.00D+00 EMaxC= 1.00D-01 BMatC= 7.65D-06 BMatP= 1.16D-05
 IDIUse=1 WtCom= 1.00D+00 WtEn= 0.00D+00
 Coeff-Com: -0.883D-03 0.111D-02 0.150D-02 0.251D-02 0.638D-02-0.613D-02
 Coeff-Com: -0.622D-01-0.922D-01 0.596D-01 0.410D+00 0.680D+00
 Coeff:     -0.883D-03 0.111D-02 0.150D-02 0.251D-02 0.638D-02-0.613D-02
 Coeff:     -0.622D-01-0.922D-01 0.596D-01 0.410D+00 0.680D+00
 Gap=     0.101 Goal=   None    Shift=    0.000
 Gap=     0.163 Goal=   None    Shift=    0.000
 RMSDP=5.23D-06 MaxDP=2.30D-04 DE=-3.56D-06 OVMax= 9.87D-04

 Cycle  12  Pass 1  IDiag  1:
 RMSU=  3.33D-06    CP:  8.93D-01  2.69D+00  8.51D-01  6.96D-01  6.77D-01
                    CP:  8.39D-01  1.16D+00  1.28D+00  1.23D+00  1.37D+00
                    CP:  1.04D+00
 E= -1386.89459433263     Delta-E=       -0.000001787766 Rises=F Damp=F
 DIIS: error= 5.53D-05 at cycle  12 NSaved=  12.
 NSaved=12 IEnMin=12 EnMin= -1386.89459433263     IErMin=12 ErrMin= 5.53D-05
 ErrMax= 5.53D-05  0.00D+00 EMaxC= 1.00D-01 BMatC= 3.92D-06 BMatP= 7.65D-06
 IDIUse=1 WtCom= 1.00D+00 WtEn= 0.00D+00
 Coeff-Com: -0.955D-03 0.114D-02 0.101D-02 0.257D-02 0.101D-01 0.669D-02
 Coeff-Com: -0.171D-01-0.840D-01-0.757D-01 0.869D-01 0.432D+00 0.638D+00
 Coeff:     -0.955D-03 0.114D-02 0.101D-02 0.257D-02 0.101D-01 0.669D-02
 Coeff:     -0.171D-01-0.840D-01-0.757D-01 0.869D-01 0.432D+00 0.638D+00
 Gap=     0.101 Goal=   None    Shift=    0.000
 Gap=     0.163 Goal=   None    Shift=    0.000
 RMSDP=2.96D-06 MaxDP=1.09D-04 DE=-1.79D-06 OVMax= 6.15D-04

 Cycle  13  Pass 1  IDiag  1:
 RMSU=  1.61D-06    CP:  8.93D-01  2.69D+00  8.51D-01  6.96D-01  6.77D-01
                    CP:  8.37D-01  1.16D+00  1.30D+00  1.27D+00  1.48D+00
                    CP:  1.25D+00  1.01D+00
 E= -1386.89459485792     Delta-E=       -0.000000525289 Rises=F Damp=F
 DIIS: error= 4.56D-05 at cycle  13 NSaved=  13.
 NSaved=13 IEnMin=13 EnMin= -1386.89459485792     IErMin=13 ErrMin= 4.56D-05
 ErrMax= 4.56D-05  0.00D+00 EMaxC= 1.00D-01 BMatC= 2.50D-06 BMatP= 3.92D-06
 IDIUse=1 WtCom= 1.00D+00 WtEn= 0.00D+00
 Coeff-Com: -0.887D-03 0.103D-02 0.283D-03 0.115D-02 0.497D-02 0.434D-02
 Coeff-Com:  0.213D-02-0.249D-01-0.238D-01-0.278D-01-0.342D-01 0.174D+00
 Coeff-Com:  0.924D+00
 Coeff:     -0.887D-03 0.103D-02 0.283D-03 0.115D-02 0.497D-02 0.434D-02
 Coeff:      0.213D-02-0.249D-01-0.238D-01-0.278D-01-0.342D-01 0.174D+00
 Coeff:      0.924D+00
 Gap=     0.101 Goal=   None    Shift=    0.000
 Gap=     0.163 Goal=   None    Shift=    0.000
 RMSDP=1.43D-06 MaxDP=6.51D-05 DE=-5.25D-07 OVMax= 3.91D-04

 Cycle  14  Pass 1  IDiag  1:
 RMSU=  7.72D-07    CP:  8.93D-01  2.69D+00  8.51D-01  6.96D-01  6.77D-01
                    CP:  8.37D-01  1.16D+00  1.30D+00  1.28D+00  1.52D+00
                    CP:  1.32D+00  1.25D+00  1.20D+00
 E= -1386.89459515406     Delta-E=       -0.000000296138 Rises=F Damp=F
 DIIS: error= 3.63D-05 at cycle  14 NSaved=  14.
 NSaved=14 IEnMin=14 EnMin= -1386.89459515406     IErMin=14 ErrMin= 3.63D-05
 ErrMax= 3.63D-05  0.00D+00 EMaxC= 1.00D-01 BMatC= 1.44D-06 BMatP= 2.50D-06
 IDIUse=1 WtCom= 1.00D+00 WtEn= 0.00D+00
 Coeff-Com: -0.623D-03 0.714D-03 0.142D-04 0.363D-03 0.116D-02 0.370D-03
 Coeff-Com:  0.669D-03 0.129D-02 0.269D-01-0.116D-01-0.172D+00-0.182D+00
 Coeff-Com:  0.292D+00 0.104D+01
 Coeff:     -0.623D-03 0.714D-03 0.142D-04 0.363D-03 0.116D-02 0.370D-03
 Coeff:      0.669D-03 0.129D-02 0.269D-01-0.116D-01-0.172D+00-0.182D+00
 Coeff:      0.292D+00 0.104D+01
 Gap=     0.101 Goal=   None    Shift=    0.000
 Gap=     0.163 Goal=   None    Shift=    0.000
 RMSDP=1.12D-06 MaxDP=5.58D-05 DE=-2.96D-07 OVMax= 3.18D-04

 Cycle  15  Pass 1  IDiag  1:
 RMSU=  6.98D-07    CP:  8.93D-01  2.69D+00  8.51D-01  6.96D-01  6.77D-01
                    CP:  8.37D-01  1.16D+00  1.30D+00  1.30D+00  1.55D+00
                    CP:  1.34D+00  1.37D+00  1.41D+00  1.44D+00
 E= -1386.89459532756     Delta-E=       -0.000000173507 Rises=F Damp=F
 DIIS: error= 2.45D-05 at cycle  15 NSaved=  15.
 NSaved=15 IEnMin=15 EnMin= -1386.89459532756     IErMin=15 ErrMin= 2.45D-05
 ErrMax= 2.45D-05  0.00D+00 EMaxC= 1.00D-01 BMatC= 6.74D-07 BMatP= 1.44D-06
 IDIUse=1 WtCom= 1.00D+00 WtEn= 0.00D+00
 Coeff-Com: -0.256D-03 0.301D-03 0.171D-03 0.368D-03 0.725D-03-0.131D-02
 Coeff-Com: -0.103D-01-0.132D-01 0.235D-01 0.673D-01 0.572D-01-0.126D+00
 Coeff-Com: -0.794D+00 0.728D+00 0.107D+01
 Coeff:     -0.256D-03 0.301D-03 0.171D-03 0.368D-03 0.725D-03-0.131D-02
 Coeff:     -0.103D-01-0.132D-01 0.235D-01 0.673D-01 0.572D-01-0.126D+00
 Coeff:     -0.794D+00 0.728D+00 0.107D+01
 Gap=     0.101 Goal=   None    Shift=    0.000
 Gap=     0.163 Goal=   None    Shift=    0.000
 RMSDP=1.16D-06 MaxDP=4.79D-05 DE=-1.74D-07 OVMax= 2.47D-04

 Cycle  16  Pass 1  IDiag  1:
 RMSU=  6.48D-07    CP:  8.93D-01  2.69D+00  8.50D-01  6.96D-01  6.78D-01
                    CP:  8.37D-01  1.16D+00  1.30D+00  1.31D+00  1.55D+00
                    CP:  1.31D+00  1.37D+00  1.43D+00  1.93D+00  1.38D+00
 E= -1386.89459545876     Delta-E=       -0.000000131194 Rises=F Damp=F
 DIIS: error= 1.05D-05 at cycle  16 NSaved=  16.
 NSaved=16 IEnMin=16 EnMin= -1386.89459545876     IErMin=16 ErrMin= 1.05D-05
 ErrMax= 1.05D-05  0.00D+00 EMaxC= 1.00D-01 BMatC= 1.02D-07 BMatP= 6.74D-07
 IDIUse=1 WtCom= 1.00D+00 WtEn= 0.00D+00
 Coeff-Com: -0.784D-04 0.996D-04 0.192D-03 0.372D-03 0.112D-02-0.279D-03
 Coeff-Com: -0.860D-02-0.176D-01-0.323D-03 0.568D-01 0.140D+00 0.125D-01
 Coeff-Com: -0.628D+00 0.882D-01 0.623D+00 0.732D+00
 Coeff:     -0.784D-04 0.996D-04 0.192D-03 0.372D-03 0.112D-02-0.279D-03
 Coeff:     -0.860D-02-0.176D-01-0.323D-03 0.568D-01 0.140D+00 0.125D-01
 Coeff:     -0.628D+00 0.882D-01 0.623D+00 0.732D+00
 Gap=     0.101 Goal=   None    Shift=    0.000
 Gap=     0.163 Goal=   None    Shift=    0.000
 RMSDP=6.42D-07 MaxDP=2.72D-05 DE=-1.31D-07 OVMax= 1.88D-04

 Cycle  17  Pass 1  IDiag  1:
 RMSU=  3.34D-07    CP:  8.93D-01  2.69D+00  8.50D-01  6.96D-01  6.78D-01
                    CP:  8.36D-01  1.16D+00  1.30D+00  1.31D+00  1.55D+00
                    CP:  1.28D+00  1.35D+00  1.30D+00  2.12D+00  1.72D+00
                    CP:  1.16D+00
 E= -1386.89459548354     Delta-E=       -0.000000024786 Rises=F Damp=F
 DIIS: error= 2.26D-06 at cycle  17 NSaved=  17.
 NSaved=17 IEnMin=17 EnMin= -1386.89459548354     IErMin=17 ErrMin= 2.26D-06
 ErrMax= 2.26D-06  0.00D+00 EMaxC= 1.00D-01 BMatC= 1.04D-08 BMatP= 1.02D-07
 IDIUse=1 WtCom= 1.00D+00 WtEn= 0.00D+00
 Coeff-Com: -0.169D-04 0.230D-04 0.839D-04 0.187D-03 0.683D-03 0.441D-03
 Coeff-Com: -0.242D-02-0.825D-02-0.775D-02 0.149D-01 0.741D-01 0.346D-01
 Coeff-Com: -0.134D+00-0.115D+00 0.566D-01 0.431D+00 0.655D+00
 Coeff:     -0.169D-04 0.230D-04 0.839D-04 0.187D-03 0.683D-03 0.441D-03
 Coeff:     -0.242D-02-0.825D-02-0.775D-02 0.149D-01 0.741D-01 0.346D-01
 Coeff:     -0.134D+00-0.115D+00 0.566D-01 0.431D+00 0.655D+00
 Gap=     0.101 Goal=   None    Shift=    0.000
 Gap=     0.163 Goal=   None    Shift=    0.000
 RMSDP=3.26D-07 MaxDP=1.86D-05 DE=-2.48D-08 OVMax= 8.65D-05

 Cycle  18  Pass 1  IDiag  1:
 RMSU=  2.02D-07    CP:  8.93D-01  2.69D+00  8.50D-01  6.96D-01  6.78D-01
                    CP:  8.36D-01  1.16D+00  1.30D+00  1.31D+00  1.55D+00
                    CP:  1.27D+00  1.31D+00  1.22D+00  2.14D+00  1.86D+00
                    CP:  1.32D+00  1.05D+00
 E= -1386.89459548653     Delta-E=       -0.000000002981 Rises=F Damp=F
 DIIS: error= 1.93D-06 at cycle  18 NSaved=  18.
 NSaved=18 IEnMin=18 EnMin= -1386.89459548653     IErMin=18 ErrMin= 1.93D-06
 ErrMax= 1.93D-06  0.00D+00 EMaxC= 1.00D-01 BMatC= 5.08D-09 BMatP= 1.04D-08
 IDIUse=1 WtCom= 1.00D+00 WtEn= 0.00D+00
 Coeff-Com:  0.688D-05-0.882D-05 0.383D-05 0.313D-04 0.122D-03 0.451D-03
 Coeff-Com:  0.863D-03-0.561D-03-0.545D-02-0.689D-02 0.128D-01 0.157D-01
 Coeff-Com:  0.982D-01-0.919D-01-0.137D+00 0.723D-01 0.408D+00 0.633D+00
 Coeff:      0.688D-05-0.882D-05 0.383D-05 0.313D-04 0.122D-03 0.451D-03
 Coeff:      0.863D-03-0.561D-03-0.545D-02-0.689D-02 0.128D-01 0.157D-01
 Coeff:      0.982D-01-0.919D-01-0.137D+00 0.723D-01 0.408D+00 0.633D+00
 Gap=     0.101 Goal=   None    Shift=    0.000
 Gap=     0.163 Goal=   None    Shift=    0.000
 RMSDP=1.85D-07 MaxDP=5.78D-06 DE=-2.98D-09 OVMax= 3.60D-05

 Cycle  19  Pass 1  IDiag  1:
 RMSU=  8.63D-08    CP:  8.93D-01  2.69D+00  8.50D-01  6.96D-01  6.78D-01
                    CP:  8.36D-01  1.16D+00  1.30D+00  1.31D+00  1.55D+00
                    CP:  1.27D+00  1.30D+00  1.18D+00  2.10D+00  1.89D+00
                    CP:  1.47D+00  1.28D+00  1.07D+00
 E= -1386.89459548753     Delta-E=       -0.000000001000 Rises=F Damp=F
 DIIS: error= 1.35D-06 at cycle  19 NSaved=  19.
 NSaved=19 IEnMin=19 EnMin= -1386.89459548753     IErMin=19 ErrMin= 1.35D-06
 ErrMax= 1.35D-06  0.00D+00 EMaxC= 1.00D-01 BMatC= 3.10D-09 BMatP= 5.08D-09
 IDIUse=1 WtCom= 1.00D+00 WtEn= 0.00D+00
 Coeff-Com:  0.884D-05-0.115D-04-0.246D-04-0.345D-04-0.163D-03 0.122D-03
 Coeff-Com:  0.967D-03 0.189D-02-0.349D-03-0.687D-02-0.113D-01-0.842D-02
 Coeff-Com:  0.769D-01-0.106D-03-0.555D-01-0.522D-01 0.288D-01 0.202D+00
 Coeff-Com:  0.825D+00
 Coeff:      0.884D-05-0.115D-04-0.246D-04-0.345D-04-0.163D-03 0.122D-03
 Coeff:      0.967D-03 0.189D-02-0.349D-03-0.687D-02-0.113D-01-0.842D-02
 Coeff:      0.769D-01-0.106D-03-0.555D-01-0.522D-01 0.288D-01 0.202D+00
 Coeff:      0.825D+00
 Gap=     0.101 Goal=   None    Shift=    0.000
 Gap=     0.163 Goal=   None    Shift=    0.000
 RMSDP=8.59D-08 MaxDP=3.97D-06 DE=-1.00D-09 OVMax= 1.37D-05

 Cycle  20  Pass 1  IDiag  1:
 RMSU=  3.83D-08    CP:  8.93D-01  2.69D+00  8.50D-01  6.96D-01  6.78D-01
                    CP:  8.36D-01  1.16D+00  1.29D+00  1.31D+00  1.55D+00
                    CP:  1.27D+00  1.29D+00  1.17D+00  2.07D+00  1.91D+00
                    CP:  1.52D+00  1.38D+00  1.19D+00  1.06D+00
 E= -1386.89459548798     Delta-E=       -0.000000000457 Rises=F Damp=F
 DIIS: error= 9.49D-07 at cycle  20 NSaved=  20.
 NSaved=20 IEnMin=20 EnMin= -1386.89459548798     IErMin=20 ErrMin= 9.49D-07
 ErrMax= 9.49D-07  0.00D+00 EMaxC= 1.00D-01 BMatC= 1.39D-09 BMatP= 3.10D-09
 IDIUse=1 WtCom= 1.00D+00 WtEn= 0.00D+00
 Coeff-Com:  0.608D-05-0.749D-05-0.105D-04-0.205D-04-0.103D-03-0.492D-04
 Coeff-Com:  0.105D-03 0.752D-03 0.996D-03-0.758D-03-0.439D-02-0.932D-02
 Coeff-Com:  0.363D-02 0.238D-01 0.212D-01-0.101D-01-0.576D-01-0.116D+00
 Coeff-Com:  0.138D+00 0.101D+01
 Coeff:      0.608D-05-0.749D-05-0.105D-04-0.205D-04-0.103D-03-0.492D-04
 Coeff:      0.105D-03 0.752D-03 0.996D-03-0.758D-03-0.439D-02-0.932D-02
 Coeff:      0.363D-02 0.238D-01 0.212D-01-0.101D-01-0.576D-01-0.116D+00
 Coeff:      0.138D+00 0.101D+01
 Gap=     0.101 Goal=   None    Shift=    0.000
 Gap=     0.163 Goal=   None    Shift=    0.000
 RMSDP=4.51D-08 MaxDP=2.24D-06 DE=-4.57D-10 OVMax= 4.21D-06

 Cycle  21  Pass 1  IDiag  1:
 Restarting incremental Fock formation.
 E= -1386.89459548807     Delta-E=       -0.000000000090 Rises=F Damp=F
 DIIS: error= 5.17D-07 at cycle  21 NSaved=  20.
 NSaved=20 IEnMin=20 EnMin= -1386.89459548807     IErMin=20 ErrMin= 5.17D-07
 ErrMax= 5.17D-07  0.00D+00 EMaxC= 1.00D-01 BMatC= 3.72D-10 BMatP= 1.39D-09
 IDIUse=1 WtCom= 1.00D+00 WtEn= 0.00D+00
 Coeff-Com:  0.159D-06 0.309D-05 0.294D-05 0.196D-04-0.300D-04-0.185D-03
 Coeff-Com: -0.368D-03 0.438D-04 0.129D-02 0.329D-02-0.840D-03-0.160D-01
 Coeff-Com:  0.454D-02 0.163D-01 0.252D-01 0.904D-02-0.557D-01-0.243D+00
 Coeff-Com: -0.245D+00 0.150D+01
 Coeff:      0.159D-06 0.309D-05 0.294D-05 0.196D-04-0.300D-04-0.185D-03
 Coeff:     -0.368D-03 0.438D-04 0.129D-02 0.329D-02-0.840D-03-0.160D-01
 Coeff:      0.454D-02 0.163D-01 0.252D-01 0.904D-02-0.557D-01-0.243D+00
 Coeff:     -0.245D+00 0.150D+01
 Gap=     0.101 Goal=   None    Shift=    0.000
 Gap=     0.163 Goal=   None    Shift=    0.000
 RMSDP=3.41D-08 MaxDP=1.84D-06 DE=-9.00D-11 OVMax= 3.75D-06

 Cycle  22  Pass 1  IDiag  1:
 RMSU=  3.41D-08    CP:  1.00D+00
 E= -1386.89459548815     Delta-E=       -0.000000000081 Rises=F Damp=F
 DIIS: error= 1.02D-07 at cycle  22 NSaved=  20.
 NSaved=20 IEnMin=20 EnMin= -1386.89459548815     IErMin=20 ErrMin= 1.02D-07
 ErrMax= 1.02D-07  0.00D+00 EMaxC= 1.00D-01 BMatC= 1.46D-11 BMatP= 3.72D-10
 IDIUse=1 WtCom= 1.00D+00 WtEn= 0.00D+00
 Coeff-Com:  0.708D-06 0.189D-05 0.863D-05 0.170D-04 0.150D-04-0.567D-04
 Coeff-Com: -0.253D-03-0.133D-03 0.955D-03 0.740D-03 0.130D-02-0.487D-02
 Coeff-Com: -0.586D-02 0.453D-02 0.180D-01 0.280D-01-0.339D-01-0.296D+00
 Coeff-Com:  0.229D+00 0.106D+01
 Coeff:      0.708D-06 0.189D-05 0.863D-05 0.170D-04 0.150D-04-0.567D-04
 Coeff:     -0.253D-03-0.133D-03 0.955D-03 0.740D-03 0.130D-02-0.487D-02
 Coeff:     -0.586D-02 0.453D-02 0.180D-01 0.280D-01-0.339D-01-0.296D+00
 Coeff:      0.229D+00 0.106D+01
 Gap=     0.101 Goal=   None    Shift=    0.000
 Gap=     0.163 Goal=   None    Shift=    0.000
 RMSDP=1.30D-08 MaxDP=3.74D-07 DE=-8.09D-11 OVMax= 2.26D-06

 Cycle  23  Pass 1  IDiag  1:
 RMSU=  9.27D-09    CP:  1.00D+00  1.27D+00
 E= -1386.89459548816     Delta-E=       -0.000000000011 Rises=F Damp=F
 DIIS: error= 3.78D-08 at cycle  23 NSaved=  20.
 NSaved=20 IEnMin=20 EnMin= -1386.89459548816     IErMin=20 ErrMin= 3.78D-08
 ErrMax= 3.78D-08  0.00D+00 EMaxC= 1.00D-01 BMatC= 2.17D-12 BMatP= 1.46D-11
 IDIUse=1 WtCom= 1.00D+00 WtEn= 0.00D+00
 Coeff-Com: -0.296D-06-0.287D-05 0.943D-05 0.301D-04 0.542D-04-0.720D-04
 Coeff-Com: -0.241D-03-0.240D-03 0.205D-03 0.289D-02-0.188D-02-0.374D-02
 Coeff-Com: -0.256D-02 0.349D-02 0.143D-01 0.280D-01-0.489D-01-0.162D+00
 Coeff-Com:  0.253D+00 0.917D+00
 Coeff:     -0.296D-06-0.287D-05 0.943D-05 0.301D-04 0.542D-04-0.720D-04
 Coeff:     -0.241D-03-0.240D-03 0.205D-03 0.289D-02-0.188D-02-0.374D-02
 Coeff:     -0.256D-02 0.349D-02 0.143D-01 0.280D-01-0.489D-01-0.162D+00
 Coeff:      0.253D+00 0.917D+00
 Gap=     0.101 Goal=   None    Shift=    0.000
 Gap=     0.163 Goal=   None    Shift=    0.000
 RMSDP=4.82D-09 MaxDP=2.05D-07 DE=-1.09D-11 OVMax= 7.19D-07

 SCF Done:  E(UB971) =  -1386.89459549     A.U. after   23 cycles
            NFock= 23  Conv=0.48D-08     -V/T= 2.0019
 <Sx>= 0.0000 <Sy>= 0.0000 <Sz>= 0.5000 <S**2>= 0.7599 S= 0.5049
 <L.S>= 0.000000000000E+00
 KE= 1.384327450868D+03 PE=-4.983157084050D+03 EE= 1.356703846057D+03
 Annihilation of the first spin contaminant:
 S**2 before annihilation     0.7599,   after     0.7500
 Leave Link  502 at Sat Jul 13 02:05:49 2013, MaxMem=   524288000 cpu:      2998.1
 (Enter /opt/g09/l508.exe)
 QCSCF skips out because SCF is already converged.
 Leave Link  508 at Sat Jul 13 02:05:49 2013, MaxMem=   524288000 cpu:         0.0
 (Enter /opt/g09/l701.exe)
 Compute integral first derivatives.
 ... and contract with generalized density number  0.
 Leave Link  701 at Sat Jul 13 02:05:49 2013, MaxMem=   524288000 cpu:         2.8
 (Enter /opt/g09/l702.exe)
 L702 exits ... SP integral derivatives will be done elsewhere.
 Leave Link  702 at Sat Jul 13 02:05:49 2013, MaxMem=   524288000 cpu:         0.3
 (Enter /opt/g09/l703.exe)
 Compute integral first derivatives, UseDBF=F ICtDFT=           0.
 Integral derivatives from FoFJK, PRISM(SPDF).
 Calling FoFJK, ICntrl=      2127 FMM=F ISym2X=0 I1Cent= 0 IOpClX= 1 NMat=1 NMatS=1 NMatT=0.
 FoFJK:  IHMeth= 1 ICntrl=    2127 DoSepK=F KAlg= 0 I1Cent=   0 FoldK=F
 IRaf=         0 NMat=   1 IRICut=       1 DoRegI=T DoRafI=F ISym2E= 0.
 FoFCou: FMM=F IPFlag=           0 FMFlag=      100000 FMFlg1=         800
         NFxFlg=           0 DoJE=F BraDBF=F KetDBF=F FulRan=T
         wScrn=  0.000000 ICntrl=    2127 IOpCl=  1 I1Cent=           0 NGrid=           0
         NMat0=    1 NMatS0=      1 NMatT0=    0 NMatD0=    1 NMtDS0=    0 NMtDT0=    0
 Symmetry not used in FoFCou.
 Leave Link  703 at Sat Jul 13 02:06:28 2013, MaxMem=   524288000 cpu:       307.6
 (Enter /opt/g09/l716.exe)
 Dipole        =-6.41087174D-01-6.72495661D-01 1.02381790D+00
 -------------------------------------------------------------------
 Center     Atomic                   Forces (Hartrees/Bohr)
 Number     Number              X              Y              Z
 -------------------------------------------------------------------
      1        8           0.000003589   -0.000001708    0.000000728
      2        6          -0.000002813   -0.000000068    0.000000151
      3       22          -0.000004326   -0.000000589   -0.000000183
      4        6          -0.000003894   -0.000002713   -0.000008733
      5        6           0.000003917   -0.000001078    0.000002085
      6        8           0.000001059   -0.000007490   -0.000000839
      7        8           0.000001280    0.000000565    0.000001370
      8        8           0.000002507    0.000002349   -0.000001578
      9        1          -0.000000154    0.000002114    0.000004044
     10        1           0.000002391   -0.000000825    0.000001734
     11        1           0.000000166   -0.000000666   -0.000000550
     12        1          -0.000000766   -0.000000215   -0.000001095
     13        1           0.000000544    0.000000211   -0.000000519
     14        1           0.000000769    0.000007523    0.000001286
     15        1          -0.000000627    0.000002127    0.000000442
     16        6          -0.000007479   -0.000006224    0.000000788
     17        6           0.000003091    0.000004840    0.000001437
     18        6           0.000001021    0.000002748    0.000000162
     19        1           0.000001304   -0.000000954   -0.000000847
     20        1           0.000000130    0.000000254   -0.000000492
     21        1           0.000000319   -0.000000391   -0.000000033
     22        1          -0.000000727    0.000000513    0.000000779
     23        1          -0.000000614    0.000000039    0.000000260
     24        1          -0.000000688   -0.000000362   -0.000000396
 -------------------------------------------------------------------
 Cartesian Forces:  Max     0.000008733 RMS     0.000002587
 FormGI is forming the generalized inverse of G from B-inverse, IUseBI=4.
 Leave Link  716 at Sat Jul 13 02:06:28 2013, MaxMem=   524288000 cpu:         0.3
 (Enter /opt/g09/l103.exe)

 GradGradGradGradGradGradGradGradGradGradGradGradGradGradGradGradGradGrad
 Berny optimization.
 Red2BG is reusing G-inverse.
 Internal  Forces:  Max     0.000007166 RMS     0.000001357
 Search for a local minimum.
 Step number   1 out of a maximum of  144
 All quantities printed in internal units (Hartrees-Bohrs-Radians)
 RMS Force = .13574D-05 SwitMx=.10000D-02 MixMth= 2
 Mixed Optimization -- En-DIIS/RFO-DIIS
 Second derivative matrix not updated -- first step.
 ITU=  0
     Eigenvalues ---    0.00669   0.00794   0.00794   0.01137   0.01727
     Eigenvalues ---    0.02379   0.02847   0.02847   0.03102   0.03959
     Eigenvalues ---    0.04291   0.04379   0.04424   0.07160   0.07188
     Eigenvalues ---    0.07222   0.07326   0.07354   0.07377   0.11685
     Eigenvalues ---    0.12770   0.13274   0.16000   0.16000   0.16000
     Eigenvalues ---    0.16000   0.16000   0.16000   0.16000   0.16000
     Eigenvalues ---    0.16000   0.16000   0.16000   0.16000   0.16000
     Eigenvalues ---    0.20421   0.20820   0.20846   0.21916   0.22335
     Eigenvalues ---    0.22554   0.24791   0.24907   0.24998   0.24999
     Eigenvalues ---    0.25000   0.25000   0.31622   0.32599   0.32604
     Eigenvalues ---    0.33368   0.33423   0.34045   0.34104   0.34133
     Eigenvalues ---    0.34274   0.34304   0.34509   0.34543   0.35477
     Eigenvalues ---    0.35603   0.55434   0.55708   0.55749   0.56609
     Eigenvalues ---    0.69056
 RFO step:  Lambda= 0.00000000D+00 EMin= 6.69190977D-03
 Linear search not attempted -- first point.
 Iteration  1 RMS(Cart)=  0.00001024 RMS(Int)=  0.00000000
 Iteration  2 RMS(Cart)=  0.00000000 RMS(Int)=  0.00000000
 ITry= 1 IFail=0 DXMaxC= 2.92D-05 DCOld= 1.00D+10 DXMaxT= 3.00D-01 DXLimC= 3.00D+00 Rises=F
 Variable       Old X    -DE/DX   Delta X   Delta X   Delta X     New X
                                 (Linear)    (Quad)   (Total)
    R1        2.54748   0.00000   0.00000   0.00000   0.00000   2.54749
    R2        3.45259   0.00000   0.00000  -0.00001  -0.00001   3.45258
    R3        2.53730   0.00000   0.00000   0.00000   0.00000   2.53730
    R4        2.84841   0.00000   0.00000   0.00000   0.00000   2.84841
    R5        3.46516   0.00000   0.00000   0.00001   0.00001   3.46516
    R6        3.44619   0.00000   0.00000   0.00001   0.00001   3.44620
    R7        3.51263   0.00000   0.00000  -0.00001  -0.00001   3.51262
    R8        2.04908   0.00001   0.00000   0.00001   0.00001   2.04910
    R9        2.04706   0.00000   0.00000  -0.00001  -0.00001   2.04706
   R10        2.07106   0.00000   0.00000   0.00000   0.00000   2.07106
   R11        2.06424   0.00000   0.00000   0.00000   0.00000   2.06424
   R12        2.07254   0.00000   0.00000   0.00000   0.00000   2.07254
   R13        1.81208  -0.00001   0.00000  -0.00001  -0.00001   1.81207
   R14        1.81172   0.00000   0.00000   0.00000   0.00000   1.81172
   R15        2.44420   0.00000   0.00000   0.00000   0.00000   2.44420
   R16        2.83062  -0.00001   0.00000  -0.00002  -0.00002   2.83060
   R17        2.83052   0.00000   0.00000   0.00000   0.00000   2.83052
   R18        2.08315   0.00000   0.00000  -0.00001  -0.00001   2.08315
   R19        2.07155   0.00000   0.00000   0.00000   0.00000   2.07155
   R20        2.06480   0.00000   0.00000   0.00000   0.00000   2.06480
   R21        2.06820   0.00000   0.00000   0.00000   0.00000   2.06819
   R22        2.06870   0.00000   0.00000   0.00000   0.00000   2.06870
   R23        2.08410   0.00000   0.00000   0.00000   0.00000   2.08410
    A1        2.79436   0.00000   0.00000   0.00000   0.00000   2.79436
    A2        2.11873   0.00000   0.00000   0.00001   0.00001   2.11873
    A3        1.99097   0.00000   0.00000  -0.00001  -0.00001   1.99096
    A4        2.17338   0.00000   0.00000   0.00000   0.00000   2.17338
    A5        1.92618   0.00000   0.00000   0.00000   0.00000   1.92618
    A6        1.96596   0.00000   0.00000   0.00000   0.00000   1.96596
    A7        1.87904   0.00000   0.00000   0.00000   0.00000   1.87905
    A8        1.93452   0.00000   0.00000   0.00000   0.00000   1.93451
    A9        1.86234   0.00000   0.00000   0.00000   0.00000   1.86234
   A10        1.89163   0.00000   0.00000   0.00000   0.00000   1.89163
   A11        2.11110   0.00000   0.00000   0.00000   0.00000   2.11109
   A12        2.10212   0.00000   0.00000   0.00001   0.00001   2.10213
   A13        2.06992   0.00000   0.00000   0.00000   0.00000   2.06992
   A14        1.92181   0.00000   0.00000   0.00001   0.00001   1.92182
   A15        1.94129   0.00000   0.00000  -0.00001  -0.00001   1.94128
   A16        1.92506   0.00000   0.00000   0.00000   0.00000   1.92506
   A17        1.90359   0.00000   0.00000   0.00000   0.00000   1.90358
   A18        1.87080   0.00000   0.00000   0.00000   0.00000   1.87081
   A19        1.89972   0.00000   0.00000   0.00000   0.00000   1.89972
   A20        2.33250   0.00000   0.00000   0.00000   0.00000   2.33250
   A21        2.33126   0.00000   0.00000   0.00000   0.00000   2.33126
   A22        2.76777   0.00000   0.00000   0.00000   0.00000   2.76777
   A23        2.06931   0.00000   0.00000   0.00001   0.00001   2.06931
   A24        2.07724   0.00000   0.00000  -0.00001  -0.00001   2.07723
   A25        2.12857   0.00000   0.00000   0.00000   0.00000   2.12857
   A26        1.93633   0.00000   0.00000   0.00000   0.00000   1.93633
   A27        1.94104   0.00000   0.00000   0.00000   0.00000   1.94104
   A28        1.92859   0.00000   0.00000   0.00000   0.00000   1.92859
   A29        1.86489   0.00000   0.00000   0.00000   0.00000   1.86489
   A30        1.88229   0.00000   0.00000   0.00000   0.00000   1.88229
   A31        1.90867   0.00000   0.00000   0.00000   0.00000   1.90867
   A32        1.93134   0.00000   0.00000   0.00001   0.00001   1.93135
   A33        1.94227   0.00000   0.00000   0.00000   0.00000   1.94227
   A34        1.93305   0.00000   0.00000   0.00000   0.00000   1.93305
   A35        1.91194   0.00000   0.00000   0.00000   0.00000   1.91194
   A36        1.87209   0.00000   0.00000   0.00000   0.00000   1.87209
   A37        1.87086   0.00000   0.00000   0.00000   0.00000   1.87086
    D1        2.25375   0.00000   0.00000   0.00001   0.00001   2.25376
    D2       -0.90310   0.00000   0.00000   0.00000   0.00000  -0.90310
    D3        0.99676   0.00000   0.00000   0.00000   0.00000   0.99676
    D4       -3.11404   0.00000   0.00000   0.00000   0.00000  -3.11404
    D5       -1.02955   0.00000   0.00000   0.00000   0.00000  -1.02955
    D6       -0.00943   0.00000   0.00000  -0.00001  -0.00001  -0.00944
    D7        3.12240   0.00000   0.00000  -0.00001  -0.00001   3.12239
    D8       -3.13412   0.00000   0.00000   0.00000   0.00000  -3.13411
    D9       -0.00229   0.00000   0.00000   0.00001   0.00001  -0.00228
   D10       -1.00584   0.00000   0.00000   0.00000   0.00000  -1.00584
   D11       -3.11817   0.00000   0.00000   0.00001   0.00001  -3.11816
   D12        1.05537   0.00000   0.00000   0.00001   0.00001   1.05538
   D13        2.11995   0.00000   0.00000  -0.00001  -0.00001   2.11994
   D14        0.00762   0.00000   0.00000  -0.00001  -0.00001   0.00761
   D15       -2.10203   0.00000   0.00000   0.00000   0.00000  -2.10203
   D16       -1.74583   0.00000   0.00000   0.00000   0.00000  -1.74583
   D17        2.34705   0.00000   0.00000   0.00000   0.00000   2.34705
   D18        0.29089   0.00000   0.00000   0.00000   0.00000   0.29089
   D19        0.16999   0.00000   0.00000   0.00000   0.00000   0.16999
[...]
 ,0.06439347,0.00004621,0.00001375,-0.00001319,-0.00003066,0.00004540,-
 0.00004508,0.00000011,-0.00001523,0.00003806,-0.00003127,0.00001965,-0
 .00005906,0.00006840,0.00003655,0.00003411,-0.00028143,0.00075607,0.00
 078321,-0.00005314,-0.00021447,0.00004832,0.34190578,0.01442766,-0.003
 72071,0.00973881,-0.00423211,0.00093510,-0.00401036,-0.02570925,-0.025
 64288,0.02975625,0.00233629,-0.00041715,0.00111763,0.00066845,-0.00038
 022,0.00040912,-0.00525671,0.01138386,0.00700573,-0.00364607,-0.005211
 91,-0.00901593,-0.03014737,-0.05863156,0.04067963,-0.00006988,-0.00012
 842,-0.00002750,0.00021226,-0.00037472,0.00003394,-0.00006131,0.000078
 70,-0.00016402,0.00014947,0.00009588,0.00028338,-0.00014243,0.00005385
 ,0.00003150,-0.00046666,0.00010743,0.00070294,-0.00035314,0.00069070,0
 .00029296,0.21458612,0.32253135,-0.02219134,0.00486116,-0.01561632,0.0
 0648805,-0.00146346,0.00589505,0.04145537,0.05651684,-0.05439182,-0.00
 369840,0.00053644,-0.00140201,-0.00102046,0.00069610,-0.00067008,0.006
 74834,-0.01983648,-0.00838169,0.00608261,0.00627794,0.01268694,0.03162
 712,0.04504304,-0.25977541,0.00018800,0.00030670,0.00000493,-0.0003229
 2,0.00054560,-0.00005216,0.00006253,-0.00015499,0.00025258,-0.00019606
 ,-0.00016955,-0.00043802,0.00025980,-0.00017510,-0.00011852,0.00161562
 ,-0.00116027,-0.00240986,0.00025925,-0.00109913,-0.00016353,-0.0237438
 1,-0.01893831,0.58331711,0.00135983,-0.00069701,0.00172773,-0.00070514
 ,0.00022914,-0.00079914,-0.00144458,0.00056509,-0.00077593,0.00034493,
 -0.00017030,0.00004770,0.00002325,0.00001056,0.00001426,0.00010438,-0.
 00006787,-0.00044874,0.00012041,-0.00035653,0.00007073,-0.00239601,-0.
 00944599,0.00826184,0.00001057,0.00002617,-0.00000534,0.00000757,-0.00
 005217,0.00002192,-0.00000164,0.00000125,0.00000589,0.00001554,-0.0000
 0007,0.00002234,-0.00000865,0.00002057,0.00000007,0.00012676,-0.000240
 93,0.00033547,0.00007828,-0.00001355,-0.00007735,-0.13865941,-0.078220
 58,0.00260546,0.46442912,-0.00409096,0.00144429,-0.00388489,0.00159853
 ,-0.00039693,0.00166798,0.00457640,0.00356686,-0.00288524,-0.00084346,
 0.00022383,-0.00026369,-0.00017336,0.00009730,-0.00010487,0.00068549,-
 0.00218946,-0.00086826,0.00082703,0.00150506,0.00167522,-0.02097569,-0
 .01560091,0.02731664,0.00002091,0.00000472,0.00000343,-0.00004906,0.00
 013175,-0.00003751,0.00001121,-0.00002850,0.00003698,-0.00004427,-0.00
 003156,-0.00008001,0.00004853,-0.00004668,-0.00003190,0.00011706,0.000
 10958,-0.00042577,-0.00001184,-0.00016089,-0.00000738,-0.07791093,-0.1
 2400077,-0.00770364,-0.00980936,0.49920567,-0.00149131,0.00061813,-0.0
 0137096,0.00070522,-0.00002910,0.00069013,-0.00097512,-0.00143500,0.00
 262240,-0.00029129,0.00005427,-0.00014324,-0.00009084,0.00006462,-0.00
 005665,0.00059184,-0.00111106,-0.00081094,0.00087957,0.00111846,0.0009
 7928,0.03365056,0.03107936,-0.01796862,0.00001148,-0.00002558,0.000001
 15,-0.00003128,0.00003905,-0.00001448,0.00000989,-0.00002205,0.0000158
 7,-0.00002724,-0.00001589,-0.00004251,0.00003076,-0.00002595,-0.000011
 92,0.00011987,0.00010976,0.00001105,0.00003039,-0.00012698,-0.00011030
 ,-0.00601888,-0.00384712,-0.08048387,0.01688188,0.00705219,0.57903163,
 0.00212356,-0.00065835,0.00163970,-0.00106462,0.00024304,-0.00074921,0
 .00241216,-0.00296131,0.00330057,0.00042978,-0.00006469,0.00016033,0.0
 0017493,-0.00008043,0.00011912,-0.00174638,0.00271349,0.00205731,-0.00
 255729,-0.00108797,-0.00341340,0.01107412,0.00704694,-0.00345627,-0.00
 004423,-0.00001267,0.00000271,0.00005390,-0.00003908,0.00002142,-0.000
 01399,0.00002605,-0.00003722,0.00004110,0.00001207,0.00008052,-0.00005
 573,0.00000055,-0.00000363,-0.00020506,0.00004884,-0.00010260,-0.00000
 358,0.00020628,0.00031449,-0.10200731,-0.04817186,-0.04158978,-0.00295
 598,-0.01301069,-0.01998834,0.52528362,-0.00020530,-0.00041433,0.00043
 161,0.00006505,-0.00003675,-0.00018452,0.00075902,0.00539477,-0.002452
 55,0.00004837,0.00000362,-0.00001569,-0.00004084,0.00002930,-0.0000411
 4,0.00056995,-0.00117652,-0.00106527,0.00113360,-0.00015570,0.00096561
 ,-0.00045252,0.00760148,0.02258622,0.00000967,-0.00000504,0.00000163,-
 0.00001566,-0.00003296,0.00000776,0.00000536,-0.00000733,0.00000658,-0
 .00000677,-0.00000442,-0.00001632,0.00000363,0.00000317,-0.00000974,0.
 00023786,-0.00012820,0.00014085,-0.00004101,-0.00004853,-0.00024849,-0
 .04114141,-0.09710685,-0.04918098,-0.00800365,-0.00375478,-0.01347904,
 0.02196663,0.50367641,0.00137207,-0.00019581,0.00080846,-0.00022698,0.
 00008323,-0.00025448,-0.00434876,-0.00449709,0.00379350,0.00017723,-0.
 00001213,0.00009729,0.00004791,-0.00005280,0.00003279,-0.00014433,0.00
 104791,0.00046537,-0.00013790,-0.00031594,-0.00079723,-0.00544580,-0.0
 0435780,-0.05709651,0.00000407,-0.00001896,0.00000377,0.00000896,-0.00
 003924,-0.00000364,-0.00000346,0.00000713,-0.00001337,0.00000517,0.000
 01448,0.00001509,-0.00000494,0.00001457,0.00001143,-0.00013889,0.00011
 493,0.00011790,-0.00009208,0.00004475,0.00002664,-0.04471317,-0.045761
 40,-0.14362469,-0.00016897,0.00140282,0.00681974,-0.02703484,-0.051448
 12,0.51218296,0.00290931,-0.00109445,0.00254318,-0.00122911,0.00029326
 ,-0.00112319,-0.00213379,-0.00112903,0.00047845,0.00061610,-0.00011418
 ,0.00020548,0.00015772,-0.00006172,0.00009869,-0.00086764,0.00167069,0
 .00119740,-0.00089321,-0.00130049,-0.00124820,0.00126071,0.00321414,-0
 .00710653,-0.00003701,-0.00003549,0.00000087,0.00004468,-0.00009289,0.
 00002500,-0.00001073,0.00001617,-0.00004160,0.00004031,0.00001432,0.00
 007177,-0.00004442,0.00000257,-0.00000452,-0.00005006,-0.00008169,0.00
 007461,-0.00002847,0.00018559,0.00004031,-0.02242655,-0.00108865,0.011
 63415,-0.21588974,0.10066194,0.05720417,0.00094421,-0.00011826,0.00006
 483,0.24006231,0.00129442,-0.00051777,0.00123353,-0.00062772,0.0001557
 4,-0.00053167,-0.00087065,-0.00104712,0.00058153,0.00030143,-0.0000559
 5,0.00005824,0.00006227,-0.00003117,0.00003800,-0.00032648,0.00082425,
 0.00034556,-0.00038057,-0.00053970,-0.00058528,0.00131323,0.00001556,-
 0.00329804,-0.00001734,-0.00002867,0.00000445,0.00001992,-0.00003704,-
 0.00000120,-0.00000418,0.00000375,-0.00001412,0.00001466,0.00001159,0.
 00002584,-0.00001001,0.00000595,-0.00000061,-0.00004299,-0.00003158,0.
 00013265,-0.00000734,0.00005913,0.00001744,-0.02080427,0.01078313,0.00
 957546,0.08958968,-0.09192740,-0.03157569,0.00122826,-0.00015853,-0.00
 028920,-0.10253230,0.10122166,-0.00045333,0.00016330,-0.00031397,0.000
 24830,-0.00008941,0.00013330,0.00038303,-0.00056092,0.00046212,-0.0001
 6270,-0.00001285,0.00004117,-0.00002254,0.00000274,-0.00001966,-0.0000
 0352,0.00008624,-0.00002059,-0.00004505,0.00007746,-0.00005923,0.00029
 700,0.00165738,-0.00026524,0.00001904,0.00004437,-0.00000775,-0.000000
 07,0.00002469,-0.00000917,-0.00000597,-0.00000380,0.00001319,-0.000001
 54,0.00000340,-0.00001054,0.00001851,0.00000443,-0.00000459,-0.0000368
 0,0.00003953,0.00002228,0.00001428,-0.00000511,0.00002144,0.00431372,0
 .00110208,-0.00159237,0.05487403,-0.03402411,-0.06026494,0.00040838,-0
 .00037609,-0.00038229,-0.06414189,0.03356841,0.06307501,0.00034146,-0.
 00009781,0.00016354,-0.00016586,0.00000978,-0.00008048,0.00029703,0.00
 034024,-0.00061020,0.00009145,0.00002802,0.00000773,0.00003247,-0.0000
 2216,0.00002438,-0.00026203,0.00035367,0.00034361,-0.00021664,-0.00025
 362,-0.00020985,-0.00450516,-0.00478632,0.00310049,-0.00001590,-0.0000
 2513,0.00000538,0.00000820,-0.00001210,0.00000200,0.00000121,0.0000062
 0,-0.00001238,0.00000424,0.00000346,0.00001233,-0.00001444,-0.00000013
 ,0.00000409,-0.00001669,-0.00001634,-0.00004933,-0.00003111,0.00004419
 ,0.00001465,0.00534096,-0.01507069,0.01869941,-0.05433664,0.03717563,-
 0.04454036,0.00001960,0.00066505,0.00009262,-0.00677966,0.01896963,-0.
 01995144,0.06270231,0.00080741,-0.00030680,0.00073883,-0.00040765,0.00
 003863,-0.00034442,0.00017621,-0.00015793,-0.00027028,0.00016406,-0.00
 002835,0.00007613,0.00006118,-0.00002683,0.00003943,-0.00049469,0.0007
 2546,0.00064693,-0.00053148,-0.00060806,-0.00055509,-0.00155406,-0.002
 70929,-0.00085384,-0.00001294,0.00000597,-0.00000218,0.00002335,-0.000
 01861,0.00000856,-0.00000627,0.00001042,-0.00001432,0.00001850,0.00000
 639,0.00002900,-0.00002023,0.00000271,0.00000084,-0.00000900,0.0000047
 8,-0.00006547,-0.00000570,0.00009714,0.00003305,0.00360834,-0.01073036
 ,0.01598722,0.03803310,-0.16318122,0.12109039,0.00010498,0.00058783,0.
 00036562,0.00461338,-0.01087836,0.01083429,-0.04061452,0.17471179,-0.0
 0003692,0.00010659,-0.00012556,0.00009360,-0.00001659,0.00008320,-0.00
 079103,-0.00029369,0.00066670,-0.00000645,0.00001898,-0.00002630,-0.00
 000810,-0.00001626,-0.00000149,0.00019334,-0.00020432,-0.00012409,0.00
 018765,0.00015842,0.00005599,0.00088399,0.00281002,0.00021600,0.000000
 23,-0.00001012,0.00000309,-0.00000641,-0.00000249,-0.00000029,0.000005
 51,0.00000753,-0.00000144,-0.00000709,0.00000310,-0.00000588,-0.000005
 71,0.00001000,0.00001915,-0.00003524,0.00001594,0.00000878,-0.00000368
 ,-0.00003023,-0.00001089,0.00301904,0.00102111,-0.00368765,-0.04510204
 ,0.12032294,-0.17441073,0.00011129,-0.00064924,-0.00028686,0.00189610,
 -0.00623494,0.00586736,0.04556133,-0.13601380,0.18716576,-0.00015388,0
 .00010219,-0.00010030,0.00013447,-0.00004743,0.00007434,-0.00026009,-0
 .00112653,0.00046143,-0.00006838,0.00000688,0.00002075,-0.00001285,-0.
 00000908,-0.00000945,-0.00005394,0.00036240,0.00009187,0.00006028,0.00
 012553,0.00008860,0.00225935,0.00364223,-0.00132721,0.00000414,0.00000
 678,-0.00000168,-0.00000021,0.00001155,-0.00000928,-0.00000356,-0.0000
 0756,0.00000587,-0.00000369,0.00000946,-0.00000912,0.00002238,0.000004
 03,0.00000017,-0.00009996,-0.00003404,0.00010679,0.00000894,-0.0000041
 6,-0.00002336,-0.00711507,-0.01254095,-0.02400098,-0.04963506,-0.01978
 479,-0.03509881,-0.00267531,-0.00282691,0.00166115,0.00483605,0.012475
 74,0.02431428,-0.00249976,-0.00371623,-0.00558643,0.05555655,0.0007978
 5,-0.00012739,0.00058018,-0.00027653,0.00004233,-0.00020526,-0.0014386
 2,-0.00148607,0.00069360,0.00018400,0.00001077,0.00000609,0.00004493,-
 0.00005678,0.00003738,-0.00010007,0.00051407,0.00033033,-0.00012801,-0
 .00011082,-0.00018360,0.00314257,0.00401516,-0.00266842,-0.00001811,-0
 .00002644,0.00000753,0.00000863,-0.00002555,0.00000853,0.00000348,0.00
 002001,-0.00001737,0.00000408,0.00001266,0.00001743,-0.00002715,0.0000
 2503,0.00003513,-0.00009302,0.00005403,0.00003807,0.00000232,0.0000268
 6,-0.00001819,-0.00342770,-0.01166189,-0.01924127,-0.02093067,-0.10484
 432,-0.10621304,-0.00310057,-0.00138529,0.00223722,-0.00238026,-0.0073
 3386,-0.01270671,0.00317740,0.01218563,0.01909730,0.02447176,0.1100218
 1,0.00020636,-0.00010963,0.00021146,-0.00015266,0.00003658,-0.00009374
 ,0.00010219,-0.00024793,-0.00003910,0.00005884,-0.00000927,0.00000003,
 0.00001208,0.00000810,0.00000870,-0.00009158,0.00019461,0.00008559,-0.
 00011165,-0.00006287,-0.00005266,0.00035728,0.00105376,0.00121001,-0.0
 0000477,-0.00000215,-0.00000011,0.00000482,-0.00000487,0.00000425,-0.0
 0000152,-0.00000222,-0.00000288,0.00000544,-0.00000304,0.00000925,-0.0
 0000451,-0.00000493,-0.00000726,-0.00000410,0.00002330,0.00001551,0.00
 000379,0.00001977,0.00000007,0.00003718,0.00248880,0.00225413,-0.03781
 895,-0.10852681,-0.25089913,0.00071632,0.00026988,0.00041760,-0.001486
 07,-0.00304110,-0.00700534,-0.00215687,-0.01078598,-0.01604363,0.03992
 181,0.11900568,0.26941277,-0.00049943,0.00025095,-0.00049767,0.0001746
 5,-0.00005116,0.00019806,-0.00006591,0.00046440,-0.00205078,-0.0000924
 0,0.00002907,-0.00005094,-0.00002174,0.00000921,-0.00001164,0.00022833
 ,-0.00044611,-0.00014635,0.00022882,0.00049260,0.00132787,0.00169558,-
 0.00046408,0.00374936,-0.00000361,-0.00000145,0.00000457,-0.00000753,0
 .00001687,0.00000015,0.00000351,-0.00000136,0.00000444,-0.00000627,-0.
 00000378,-0.00000891,0.00000343,-0.00000113,0.00000124,-0.00001589,-0.
 00006179,-0.00006637,0.00007348,0.00000755,-0.00017809,-0.01228598,-0.
 00546740,0.00154640,0.00017013,0.00012818,-0.00231397,-0.26639873,-0.0
 7986255,0.05641869,0.00010065,0.00030473,0.00013378,0.00009038,0.00009
 351,0.00006617,-0.00033960,-0.00031698,0.00018148,0.28841853,0.0000895
 0,-0.00008395,0.00005327,-0.00005088,0.00003060,-0.00001920,0.00023612
 ,0.00128854,0.00038157,0.00002008,-0.00000600,0.00000599,0.00000902,-0
 .00000447,0.00000437,0.00012304,-0.00016250,0.00015224,-0.00025387,-0.
 00067157,-0.00124446,0.00224673,0.00045410,0.00146629,0.00000358,-0.00
 000006,-0.00000248,0.00000022,-0.00000343,-0.00000061,0.00000037,0.000
 00470,-0.00000219,0.00000101,-0.00000110,0.00000182,-0.00000576,-0.000
 00220,0.00000210,-0.00005299,0.00001459,-0.00009182,-0.00003907,-0.000
 06171,0.00028069,-0.01546670,-0.00937468,0.00270659,-0.00070404,-0.000
 38417,-0.00289948,-0.07964981,-0.07052109,0.02296508,-0.00031766,0.000
 01681,0.00010582,0.00013566,0.00036009,-0.00010011,-0.00082742,-0.0003
 0776,-0.00011392,0.08839445,0.07729157,-0.00034843,0.00010769,-0.00027
 262,0.00000927,-0.00004684,0.00009099,0.00034555,0.00046533,-0.0021525
 9,-0.00004830,0.00000629,-0.00002695,-0.00000864,0.00000881,-0.0000049
 5,0.00014445,-0.00021846,-0.00004732,0.00023564,0.00011458,0.00079446,
 0.00015776,-0.00102517,0.00529476,-0.00000323,0.00000285,0.00000399,0.
 00000111,0.00001828,-0.00000266,0.00000004,-0.00000107,-0.00000117,0.0
 0000024,-0.00000279,-0.00000377,-0.00000081,-0.00000188,0.00000037,0.0
 0000526,-0.00003234,-0.00004226,0.00007780,-0.00001463,0.00014922,-0.0
 2593524,-0.00929238,0.00483676,-0.00057425,-0.00151192,-0.00404570,0.0
 5794362,0.02355864,-0.06325347,0.00014500,0.00023021,-0.00000241,0.000
 15091,-0.00014849,0.00016606,-0.00081142,-0.00092216,0.00022717,-0.061
 80320,-0.02005251,0.06545300,-0.00044807,0.00022199,-0.00048789,0.0002
 0250,-0.00005071,0.00021349,-0.00009825,-0.00058010,-0.00048812,-0.000
 10423,0.00002722,-0.00003176,-0.00002462,0.00000817,-0.00001374,0.0001
 4677,-0.00017173,-0.00017754,0.00025559,0.00046456,0.00082435,-0.00009
 398,-0.00142416,-0.00118268,0.00000596,-0.00000211,0.00000389,-0.00000
 761,0.00001774,-0.00000904,0.00000201,-0.00000408,0.00000525,-0.000008
 01,-0.00000177,-0.00001294,0.00000899,-0.00000105,0.00000146,-0.000015
 00,-0.00000324,0.00001300,0.00001439,-0.00003246,-0.00001704,0.0000734
 1,0.01062937,-0.00823711,-0.00000087,0.00009041,0.00033052,-0.04899565
 ,0.00604668,-0.01297966,-0.00014563,0.00002559,-0.00018567,-0.00008490
 ,-0.00049376,-0.00017959,0.00015745,0.00012135,0.00019936,0.00487564,-
 0.01799004,0.02219489,0.04596962,0.00009732,0.00004606,0.00010199,-0.0
 0008219,0.00000704,-0.00005086,-0.00039702,-0.00123466,-0.00029938,0.0
 0001885,-0.00001894,0.00000135,0.00001053,-0.00000229,0.00000921,-0.00
 006405,0.00018857,0.00011956,-0.00011039,0.00026560,0.00051105,0.00003
 471,-0.00010570,-0.00547574,-0.00000851,0.00001042,-0.00000174,0.00000
 508,0.00000568,0.00000781,-0.00000283,0.00000189,-0.00000119,0.0000054
 5,0.00000166,0.00000697,-0.00000241,0.00000254,0.00000119,-0.00001441,
 0.00001284,-0.00001004,0.00009773,0.00003481,-0.00006677,-0.00037053,0
 .01038721,-0.01104438,-0.00005122,0.00003265,-0.00002400,0.00648743,-0
 .15117590,0.13081370,0.00016321,-0.00020002,0.00008668,-0.00025171,-0.
 00008925,-0.00009534,0.00012531,0.00025503,-0.00005778,0.00197257,-0.0
 0618491,0.00537891,-0.00875083,0.16460950,-0.00067441,0.00045312,-0.00
 085144,0.00042167,-0.00007264,0.00040965,-0.00081922,-0.00141916,0.001
 38795,-0.00017924,0.00004387,-0.00006429,-0.00004636,0.00000453,-0.000
 02553,0.00033002,-0.00037054,-0.00029165,0.00024673,0.00057046,0.00033
 651,-0.00334169,-0.00113975,-0.00636560,0.00000993,-0.00000210,0.00000
 159,-0.00001778,0.00002503,-0.00000936,0.00000575,-0.00000162,0.000010
 30,-0.00001676,-0.00000181,-0.00002352,0.00001288,0.00000395,0.0000105
 4,-0.00006355,0.00005835,-0.00000384,0.00001425,-0.00006348,-0.0000035
 0,0.00336894,0.01593907,-0.01944792,0.00073777,0.00037091,0.00073009,-
 0.01334917,0.12940861,-0.19834639,-0.00012031,0.00000680,0.00010696,-0
 .00049131,-0.00080319,0.00033619,0.00040796,-0.00009576,0.00032522,-0.
 00097167,0.00265183,-0.00458804,0.01406156,-0.13979017,0.21877200,-0.0
 0031966,0.00006348,-0.00031892,0.00022014,-0.00003659,0.00013444,-0.00
 025231,0.00174109,-0.00048159,-0.00009098,0.00000405,-0.00000206,-0.00
 002701,0.00001408,-0.00002160,0.00032201,-0.00059300,-0.00019168,0.000
 49477,-0.00023999,-0.00010337,-0.00090491,-0.00069878,0.00233940,0.000
 01861,0.00001586,-0.00000508,-0.00000945,0.00000412,-0.00000325,0.0000
 0107,-0.00000263,0.00000557,-0.00000652,-0.00000339,-0.00001390,0.0000
 0750,-0.00000322,0.00000012,0.00001192,-0.00003890,-0.00005689,-0.0000
 8770,-0.00004052,0.00015387,0.01061849,-0.01236455,-0.00427123,-0.0007
 5706,0.00076311,0.00042130,-0.11383311,0.10120400,0.03558707,-0.000436
 02,0.00002429,-0.00001383,-0.00000051,0.00016250,-0.00024955,-0.000118
 26,0.00027931,0.00002573,-0.01632606,0.02409846,0.00812199,-0.00168551
 ,0.00108791,0.00047402,0.12316057,-0.00185948,0.00064789,-0.00144451,0
 .00077399,-0.00018979,0.00064362,0.00103357,0.00080199,-0.00091443,-0.
 00036471,0.00006568,-0.00014300,-0.00011251,0.00004087,-0.00006724,0.0
 0079591,-0.00126184,-0.00108376,0.00082093,0.00094834,0.00109327,-0.00
 119087,-0.00255225,0.00559031,0.00002127,0.00001693,0.00000061,-0.0000
 3324,0.00005121,-0.00001158,0.00000941,-0.00001064,0.00002834,-0.00002
 788,-0.00000849,-0.00004927,0.00002901,0.00000668,0.00000816,0.0000420
 7,0.00002081,0.00003720,0.00003914,-0.00016870,-0.00006727,0.00072148,
 -0.00966509,-0.01288552,0.00028838,0.00022587,-0.00039625,0.10875288,-
 0.19118436,-0.05212295,-0.00048822,-0.00031041,-0.00002180,0.00024162,
 -0.00000179,0.00009518,-0.00041878,0.00018278,-0.00012799,-0.00548628,
 0.00830860,0.00337903,0.01185297,-0.01684984,-0.00577632,-0.11544067,0
 .21088555,-0.00184210,0.00068410,-0.00140694,0.00079991,-0.00019736,0.
 00062478,0.00075721,0.00131638,-0.00141435,-0.00036508,0.00004629,-0.0
 0014793,-0.00011358,0.00004314,-0.00006993,0.00080857,-0.00145001,-0.0
 0114123,0.00090131,0.00118595,0.00165771,-0.00387360,-0.00211592,0.006
 16259,0.00001659,0.00003900,-0.00000467,-0.00003591,0.00005180,0.00000
 595,0.00000795,-0.00000986,0.00003193,-0.00002606,-0.00000829,-0.00004
 691,0.00002886,0.00001155,0.00000914,0.00009210,-0.00002805,0.00004523
 ,0.00017436,-0.00012158,-0.00024313,0.01123015,-0.01954592,-0.01699158
 ,0.00016363,0.00050691,-0.00026736,0.04284869,-0.05821020,-0.06073362,
 -0.00040766,-0.00024626,0.00021525,-0.00008026,0.00000675,0.00013654,-
 0.00017695,0.00017731,-0.00003789,0.00446738,-0.00625089,-0.00257288,-
 0.01384498,0.01987898,0.00759407,-0.04153055,0.06423617,0.06859522\\-0
 .00000360,0.00000171,-0.00000074,0.00000283,0.00000007,-0.00000013,0.0
 0000431,0.00000060,0.00000018,0.00000390,0.00000271,0.00000874,-0.0000
 0392,0.00000107,-0.00000208,-0.00000106,0.00000749,0.00000084,-0.00000
 128,-0.00000057,-0.00000137,-0.00000250,-0.00000236,0.00000159,0.00000
 015,-0.00000211,-0.00000404,-0.00000240,0.00000083,-0.00000174,-0.0000
 0016,0.00000067,0.00000055,0.00000076,0.00000022,0.00000109,-0.0000005
 4,-0.00000021,0.00000052,-0.00000077,-0.00000752,-0.00000128,0.0000006
 3,-0.00000213,-0.00000044,0.00000748,0.00000623,-0.00000081,-0.0000031
 0,-0.00000484,-0.00000144,-0.00000102,-0.00000274,-0.00000015,-0.00000
 130,0.00000095,0.00000085,-0.00000013,-0.00000025,0.00000049,-0.000000
 32,0.00000040,0.00000004,0.00000072,-0.00000052,-0.00000078,0.00000061
 ,-0.00000004,-0.00000026,0.00000069,0.00000035,0.00000039\\\@


 IT'S WHAT YOU LEARN AFTER YOU KNOW IT ALL
 THAT COUNTS.
 Job cpu time:       0 days  5 hours 29 minutes 19.9 seconds.
 File lengths (MBytes):  RWF=    569 Int=      0 D2E=      0 Chk=     13 Scr=      1
 Normal termination of Gaussian 09 at Sat Jul 13 02:47:41 2013.
