 Entering Gaussian System, Link 0=g09
 Input=a-freq-fine-557-75-5.gau
 Output=a-freq-fine-557-75-5.log
 Initial command:
 /opt/g09/l1.exe "/scratch/pb556/g09_runs//Gau-27590.inp" -scrdir="/scratch/pb556/g09_runs//"
 Entering Link 1 = /opt/g09/l1.exe PID=     27599.
  
 Copyright (c) 1988,1990,1992,1993,1995,1998,2003,2009,2013,
            Gaussian, Inc.  All Rights Reserved.
  
 This is part of the Gaussian(R) 09 program.  It is based on
 the Gaussian(R) 03 system (copyright 2003, Gaussian, Inc.),
 the Gaussian(R) 98 system (copyright 1998, Gaussian, Inc.),
 the Gaussian(R) 94 system (copyright 1995, Gaussian, Inc.),
 the Gaussian 92(TM) system (copyright 1992, Gaussian, Inc.),
 the Gaussian 90(TM) system (copyright 1990, Gaussian, Inc.),
 the Gaussian 88(TM) system (copyright 1988, Gaussian, Inc.),
 the Gaussian 86(TM) system (copyright 1986, Carnegie Mellon
 University), and the Gaussian 82(TM) system (copyright 1983,
 Carnegie Mellon University). Gaussian is a federally registered
 trademark of Gaussian, Inc.
  
 This software contains proprietary and confidential information,
 including trade secrets, belonging to Gaussian, Inc.
  
 This software is provided under written license and may be
 used, copied, transmitted, or stored only in accord with that
 written license.
  
 The following legend is applicable only to US Government
 contracts under FAR:
  
                    RESTRICTED RIGHTS LEGEND
  
 Use, reproduction and disclosure by the US Government is
 subject to restrictions as set forth in subparagraphs (a)
 and (c) of the Commercial Computer Software - Restricted
 Rights clause in FAR 52.227-19.
  
 Gaussian, Inc.
 340 Quinnipiac St., Bldg. 40, Wallingford CT 06492
  
  
 ---------------------------------------------------------------
 Warning -- This program may not be used in any manner that
 competes with the business of Gaussian, Inc. or will provide
 assistance to any competitor of Gaussian, Inc.  The licensee
 of this program is prohibited from giving any competitor of
 Gaussian, Inc. access to this program.  By using this program,
 the user acknowledges that Gaussian, Inc. is engaged in the
 business of creating and licensing software in the field of
 computational chemistry and represents and warrants to the
 licensee that it is not a competitor of Gaussian, Inc. and that
 it will not use this program in any manner prohibited above.
 ---------------------------------------------------------------
  

 Cite this work as:
 Gaussian 09, Revision D.01,
 M. J. Frisch, G. W. Trucks, H. B. Schlegel, G. E. Scuseria, 
 M. A. Robb, J. R. Cheeseman, G. Scalmani, V. Barone, B. Mennucci, 
 G. A. Petersson, H. Nakatsuji, M. Caricato, X. Li, H. P. Hratchian, 
 A. F. Izmaylov, J. Bloino, G. Zheng, J. L. Sonnenberg, M. Hada, 
 M. Ehara, K. Toyota, R. Fukuda, J. Hasegawa, M. Ishida, T. Nakajima, 
 Y. Honda, O. Kitao, H. Nakai, T. Vreven, J. A. Montgomery, Jr., 
 J. E. Peralta, F. Ogliaro, M. Bearpark, J. J. Heyd, E. Brothers, 
 K. N. Kudin, V. N. Staroverov, T. Keith, R. Kobayashi, J. Normand, 
 K. Raghavachari, A. Rendell, J. C. Burant, S. S. Iyengar, J. Tomasi, 
 M. Cossi, N. Rega, J. M. Millam, M. Klene, J. E. Knox, J. B. Cross, 
 V. Bakken, C. Adamo, J. Jaramillo, R. Gomperts, R. E. Stratmann, 
 O. Yazyev, A. J. Austin, R. Cammi, C. Pomelli, J. W. Ochterski, 
 R. L. Martin, K. Morokuma, V. G. Zakrzewski, G. A. Voth, 
 P. Salvador, J. J. Dannenberg, S. Dapprich, A. D. Daniels, 
 O. Farkas, J. B. Foresman, J. V. Ortiz, J. Cioslowski, 
 and D. J. Fox, Gaussian, Inc., Wallingford CT, 2013.
 
 ******************************************
 Gaussian 09:  ES64L-G09RevD.01 24-Apr-2013
                16-Sep-2013 
 ******************************************
 %NProcShared=8
 Will use up to    8 processors via shared memory.
 %Mem=500MW
 ----------------------------------------------------------------------
 #p rB971/6-311+G(d,p) Opt=(Tight, NewEstmFC, MaxCyc=400) Freq GFInput 
 Population=None Integral(Grid=UltraFine) SCF=(MaxCyc=400, XQC) Guess=M
 ix NoSymmetry
 ----------------------------------------------------------------------
 1/6=400,7=10,10=7,14=-1,18=20,19=15,26=4,38=1/1,3;
 2/9=110,12=2,15=1,17=6,18=5,40=1/2;
 3/5=4,6=6,7=111,11=2,16=1,24=10,25=1,30=1,71=1,74=-20,75=-5,116=1/1,2,3;
 4/13=-1/1;
 5/5=2,7=400,8=3,13=1,38=5/2,8;
 7/29=1,30=1/1,2,3,16;
 1/6=400,7=10,10=7,14=-1,18=20,19=15,26=4/3(2);
 2/9=110,15=1/2;
 99//99;
 2/9=110,15=1/2;
 3/5=4,6=6,7=111,11=2,16=1,25=1,30=1,71=1,74=-20,75=-5,116=1/1,2,3;
 4/5=5,16=3,69=1/1;
 5/5=2,7=400,8=3,13=1,38=5/2,8;
 7/30=1/1,2,3,16;
 1/6=400,7=10,14=-1,18=20,19=15,26=4/3(-5);
 2/9=110,15=1/2;
 99/9=1/99;
 Leave Link    1 at Mon Sep 16 19:01:36 2013, MaxMem=   524288000 cpu:         0.6
 (Enter /opt/g09/l101.exe)
 ---------------
 a-fine-557-75-5
 ---------------
 Symbolic Z-matrix:
 Charge =  0 Multiplicity = 1
 C                    -0.01341  -0.00196   0. 
 C                     1.31876  -0.00571   0. 
 H                    -0.54628   0.94035   0. 
 H                    -0.58232  -0.92534   0. 
 O                     2.04664  -1.1628    0. 
 H                     1.89742   0.91675   0. 
 H                     2.98299  -0.95368   0. 
 
 NAtoms=      7 NQM=        7 NQMF=       0 NMMI=      0 NMMIF=      0
                NMic=       0 NMicF=      0.
                    Isotopes and Nuclear Properties:
 (Nuclear quadrupole moments (NQMom) in fm**2, nuclear magnetic moments (NMagM)
  in nuclear magnetons)

  Atom         1           2           3           4           5           6           7
 IAtWgt=          12          12           1           1          16           1           1
 AtmWgt=  12.0000000  12.0000000   1.0078250   1.0078250  15.9949146   1.0078250   1.0078250
 NucSpn=           0           0           1           1           0           1           1
 AtZEff=   0.0000000   0.0000000   0.0000000   0.0000000   0.0000000   0.0000000   0.0000000
 NQMom=    0.0000000   0.0000000   0.0000000   0.0000000   0.0000000   0.0000000   0.0000000
 NMagM=    0.0000000   0.0000000   2.7928460   2.7928460   0.0000000   2.7928460   2.7928460
 AtZNuc=   6.0000000   6.0000000   1.0000000   1.0000000   8.0000000   1.0000000   1.0000000
 Leave Link  101 at Mon Sep 16 19:01:36 2013, MaxMem=   524288000 cpu:         1.9
 (Enter /opt/g09/l103.exe)

 GradGradGradGradGradGradGradGradGradGradGradGradGradGradGradGradGradGrad
 Berny optimization.
 Initialization pass.
                           ----------------------------
                           !    Initial Parameters    !
                           ! (Angstroms and Degrees)  !
 --------------------------                            --------------------------
 ! Name  Definition              Value          Derivative Info.                !
 --------------------------------------------------------------------------------
 ! R1    R(1,2)                  1.3322         estimate D2E/DX2                !
 ! R2    R(1,3)                  1.0825         estimate D2E/DX2                !
 ! R3    R(1,4)                  1.0846         estimate D2E/DX2                !
 ! R4    R(2,5)                  1.367          estimate D2E/DX2                !
 ! R5    R(2,6)                  1.0889         estimate D2E/DX2                !
 ! R6    R(5,7)                  0.9594         estimate D2E/DX2                !
 ! A1    A(2,1,3)              119.6492         estimate D2E/DX2                !
 ! A2    A(2,1,4)              121.4766         estimate D2E/DX2                !
 ! A3    A(3,1,4)              118.8742         estimate D2E/DX2                !
 ! A4    A(1,2,5)              122.3337         estimate D2E/DX2                !
 ! A5    A(1,2,6)              121.9388         estimate D2E/DX2                !
 ! A6    A(5,2,6)              115.7275         estimate D2E/DX2                !
 ! A7    A(2,5,7)              109.5828         estimate D2E/DX2                !
 ! D1    D(3,1,2,5)            180.0            estimate D2E/DX2                !
 ! D2    D(3,1,2,6)              0.0            estimate D2E/DX2                !
 ! D3    D(4,1,2,5)              0.0            estimate D2E/DX2                !
 ! D4    D(4,1,2,6)            180.0            estimate D2E/DX2                !
 ! D5    D(1,2,5,7)            180.0            estimate D2E/DX2                !
 ! D6    D(6,2,5,7)              0.0            estimate D2E/DX2                !
 --------------------------------------------------------------------------------
 Trust Radius=3.00D-01 FncErr=1.00D-07 GrdErr=1.00D-06
 Number of steps in this run=    100 maximum allowed number of steps=    100.
 GradGradGradGradGradGradGradGradGradGradGradGradGradGradGradGradGradGrad

 Leave Link  103 at Mon Sep 16 19:01:36 2013, MaxMem=   524288000 cpu:         0.1
 (Enter /opt/g09/l202.exe)
                          Input orientation:                          
 ---------------------------------------------------------------------
 Center     Atomic      Atomic             Coordinates (Angstroms)
 Number     Number       Type             X           Y           Z
 ---------------------------------------------------------------------
      1          6           0       -0.013410   -0.001960    0.000000
      2          6           0        1.318760   -0.005710    0.000000
      3          1           0       -0.546280    0.940350    0.000000
      4          1           0       -0.582320   -0.925340    0.000000
      5          8           0        2.046640   -1.162800    0.000000
      6          1           0        1.897420    0.916750    0.000000
      7          1           0        2.982990   -0.953680    0.000000
 ---------------------------------------------------------------------
                    Distance matrix (angstroms):
                    1          2          3          4          5
     1  C    0.000000
     2  C    1.332175   0.000000
     3  H    1.082543   2.091268   0.000000
     4  H    1.084569   2.111830   1.866038   0.000000
     5  O    2.364605   1.366992   3.338634   2.639662   0.000000
     6  H    2.120212   1.088935   2.443814   3.089079   2.084897
     7  H    3.143912   1.915283   4.005383   3.565423   0.959418
                    6          7
     6  H    0.000000
     7  H    2.162630   0.000000
 Symmetry turned off by external request.
 Stoichiometry    C2H4O
 Framework group  CS[SG(C2H4O)]
 Deg. of freedom    11
 Full point group                 CS      NOp   2
 Rotational constants (GHZ):     63.9348481     10.4097286      8.9521582
 Leave Link  202 at Mon Sep 16 19:01:37 2013, MaxMem=   524288000 cpu:         0.3
 (Enter /opt/g09/l301.exe)
 Standard basis: 6-311+G(d,p) (5D, 7F)
 Ernie: Thresh=  0.10000D-02 Tol=  0.10000D-05 Strict=F.
 AO basis set in the form of general basis input (Overlap normalization):
      1 0
 S   6 1.00       0.000000000000
      0.4563240000D+04  0.1966650249D-02
      0.6820240000D+03  0.1523060193D-01
      0.1549730000D+03  0.7612690966D-01
      0.4445530000D+02  0.2608010331D+00
      0.1302900000D+02  0.6164620782D+00
      0.1827730000D+01  0.2210060280D+00
 SP   3 1.00       0.000000000000
      0.2096420000D+02  0.1146600807D+00  0.4024869267D-01
      0.4803310000D+01  0.9199996477D+00  0.2375939567D+00
      0.1459330000D+01 -0.3030682134D-02  0.8158538515D+00
 SP   1 1.00       0.000000000000
      0.4834560000D+00  0.1000000000D+01  0.1000000000D+01
 SP   1 1.00       0.000000000000
      0.1455850000D+00  0.1000000000D+01  0.1000000000D+01
 SP   1 1.00       0.000000000000
      0.4380000000D-01  0.1000000000D+01  0.1000000000D+01
 D   1 1.00       0.000000000000
      0.6260000000D+00  0.1000000000D+01
 ****
      2 0
 S   6 1.00       0.000000000000
      0.4563240000D+04  0.1966650249D-02
      0.6820240000D+03  0.1523060193D-01
      0.1549730000D+03  0.7612690966D-01
      0.4445530000D+02  0.2608010331D+00
      0.1302900000D+02  0.6164620782D+00
      0.1827730000D+01  0.2210060280D+00
 SP   3 1.00       0.000000000000
      0.2096420000D+02  0.1146600807D+00  0.4024869267D-01
      0.4803310000D+01  0.9199996477D+00  0.2375939567D+00
      0.1459330000D+01 -0.3030682134D-02  0.8158538515D+00
 SP   1 1.00       0.000000000000
      0.4834560000D+00  0.1000000000D+01  0.1000000000D+01
 SP   1 1.00       0.000000000000
      0.1455850000D+00  0.1000000000D+01  0.1000000000D+01
 SP   1 1.00       0.000000000000
      0.4380000000D-01  0.1000000000D+01  0.1000000000D+01
 D   1 1.00       0.000000000000
      0.6260000000D+00  0.1000000000D+01
 ****
      3 0
 S   3 1.00       0.000000000000
      0.3386500000D+02  0.2549381454D-01
      0.5094790000D+01  0.1903731086D+00
      0.1158790000D+01  0.8521614860D+00
 S   1 1.00       0.000000000000
      0.3258400000D+00  0.1000000000D+01
 S   1 1.00       0.000000000000
      0.1027410000D+00  0.1000000000D+01
 P   1 1.00       0.000000000000
      0.7500000000D+00  0.1000000000D+01
 ****
      4 0
 S   3 1.00       0.000000000000
      0.3386500000D+02  0.2549381454D-01
      0.5094790000D+01  0.1903731086D+00
      0.1158790000D+01  0.8521614860D+00
 S   1 1.00       0.000000000000
      0.3258400000D+00  0.1000000000D+01
 S   1 1.00       0.000000000000
      0.1027410000D+00  0.1000000000D+01
 P   1 1.00       0.000000000000
      0.7500000000D+00  0.1000000000D+01
 ****
      5 0
 S   6 1.00       0.000000000000
      0.8588500000D+04  0.1895150083D-02
      0.1297230000D+04  0.1438590063D-01
      0.2992960000D+03  0.7073200310D-01
      0.8737710000D+02  0.2400010105D+00
      0.2567890000D+02  0.5947970261D+00
      0.3740040000D+01  0.2808020123D+00
 SP   3 1.00       0.000000000000
      0.4211750000D+02  0.1138890124D+00  0.3651139738D-01
      0.9628370000D+01  0.9208111006D+00  0.2371529830D+00
      0.2853320000D+01 -0.3274470358D-02  0.8197019412D+00
 SP   1 1.00       0.000000000000
      0.9056610000D+00  0.1000000000D+01  0.1000000000D+01
 SP   1 1.00       0.000000000000
      0.2556110000D+00  0.1000000000D+01  0.1000000000D+01
 SP   1 1.00       0.000000000000
      0.8450000000D-01  0.1000000000D+01  0.1000000000D+01
 D   1 1.00       0.000000000000
      0.1292000000D+01  0.1000000000D+01
 ****
      6 0
 S   3 1.00       0.000000000000
      0.3386500000D+02  0.2549381454D-01
      0.5094790000D+01  0.1903731086D+00
      0.1158790000D+01  0.8521614860D+00
 S   1 1.00       0.000000000000
      0.3258400000D+00  0.1000000000D+01
 S   1 1.00       0.000000000000
      0.1027410000D+00  0.1000000000D+01
 P   1 1.00       0.000000000000
      0.7500000000D+00  0.1000000000D+01
 ****
      7 0
 S   3 1.00       0.000000000000
      0.3386500000D+02  0.2549381454D-01
      0.5094790000D+01  0.1903731086D+00
      0.1158790000D+01  0.8521614860D+00
 S   1 1.00       0.000000000000
      0.3258400000D+00  0.1000000000D+01
 S   1 1.00       0.000000000000
      0.1027410000D+00  0.1000000000D+01
 P   1 1.00       0.000000000000
      0.7500000000D+00  0.1000000000D+01
 ****

    90 basis functions,   140 primitive gaussians,    93 cartesian basis functions
    12 alpha electrons       12 beta electrons
       nuclear repulsion energy        70.0980282576 Hartrees.
 IExCor= 1614 DFT=T Ex+Corr=B971 ExCW=0 ScaHFX=  0.210000
 ScaDFX=  1.000000  1.000000  1.000000  1.000000 ScalE2=  1.000000  1.000000
 IRadAn=      5 IRanWt=     -1 IRanGd=            0 ICorTp=0 IEmpDi=  4
 NAtoms=    7 NActive=    7 NUniq=    7 SFac= 1.00D+00 NAtFMM=   60 NAOKFM=F Big=F
 Integral buffers will be    131072 words long.
 Raffenetti 2 integral format.
 Two-electron integral symmetry is turned off.
 Leave Link  301 at Mon Sep 16 19:01:37 2013, MaxMem=   524288000 cpu:         0.4
 (Enter /opt/g09/l302.exe)
 NPDir=0 NMtPBC=     1 NCelOv=     1 NCel=       1 NClECP=     1 NCelD=      1
         NCelK=      1 NCelE2=     1 NClLst=     1 CellRange=     0.0.
 One-electron integrals computed using PRISM.
 NBasis=    90 RedAO= T EigKep=  9.41D-05  NBF=    90
 NBsUse=    90 1.00D-06 EigRej= -1.00D+00 NBFU=    90
 Precomputing XC quadrature grid using
 IXCGrd= 4 IRadAn=           5 IRanWt=          -1 IRanGd=           0 AccXCQ= 0.00D+00.
 Generated NRdTot=       0 NPtTot=           0 NUsed=           0 NTot=          32
 NSgBfM=    93    93    93    93    93 MxSgAt=     7 MxSgA2=     7.
 Leave Link  302 at Mon Sep 16 19:01:37 2013, MaxMem=   524288000 cpu:         1.4
 (Enter /opt/g09/l303.exe)
 DipDrv:  MaxL=1.
 Leave Link  303 at Mon Sep 16 19:01:37 2013, MaxMem=   524288000 cpu:         0.3
 (Enter /opt/g09/l401.exe)
 ExpMin= 4.38D-02 ExpMax= 8.59D+03 ExpMxC= 1.30D+03 IAcc=3 IRadAn=         5 AccDes= 0.00D+00
 Harris functional with IExCor= 1614 and IRadAn=       5 diagonalized for initial guess.
 HarFok:  IExCor= 1614 AccDes= 0.00D+00 IRadAn=         5 IDoV= 1 UseB2=F ITyADJ=14
 ICtDFT=  3500011 ScaDFX=  1.000000  1.000000  1.000000  1.000000
 FoFCou: FMM=F IPFlag=           0 FMFlag=      100000 FMFlg1=           0
         NFxFlg=           0 DoJE=T BraDBF=F KetDBF=T FulRan=T
         wScrn=  0.000000 ICntrl=     500 IOpCl=  0 I1Cent=   200000004 NGrid=           0
         NMat0=    1 NMatS0=      1 NMatT0=    0 NMatD0=    1 NMtDS0=    0 NMtDT0=    0
 Symmetry not used in FoFCou.
 Harris En= -149.694969970768    
 JPrj=0 DoOrth=F DoCkMO=T.
 Mixing orbitals, IMix= 1 IMixAn=  0 NRI=1 NE=   12 Coef=  7.07106781D-01  7.07106781D-01
 Leave Link  401 at Mon Sep 16 19:01:37 2013, MaxMem=   524288000 cpu:         3.3
 (Enter /opt/g09/l502.exe)
 Closed shell SCF:
 Using DIIS extrapolation, IDIIS=  1040.
 Two-electron integral symmetry not used.
 Keep R1 ints in memory in canonical form, NReq=9349531.
 IVT=       45813 IEndB=       45813 NGot=   524288000 MDV=   515855628
 LenX=   515855628 LenY=   515846538
 Requested convergence on RMS density matrix=1.00D-08 within 128 cycles.
 Requested convergence on MAX density matrix=1.00D-06.
 Requested convergence on             energy=1.00D-06.
 No special actions if energy rises.
 FoFCou: FMM=F IPFlag=           0 FMFlag=           0 FMFlg1=           0
         NFxFlg=           0 DoJE=F BraDBF=F KetDBF=F FulRan=T
         wScrn=  0.000000 ICntrl=     600 IOpCl=  0 I1Cent=           0 NGrid=           0
         NMat0=    1 NMatS0=   4095 NMatT0=    0 NMatD0=    1 NMtDS0=    0 NMtDT0=    0
 Symmetry not used in FoFCou.

 Cycle   1  Pass 1  IDiag  1:
 E= -153.544395620780    
 DIIS: error= 8.41D-02 at cycle   1 NSaved=   1.
 NSaved= 1 IEnMin= 1 EnMin= -153.544395620780     IErMin= 1 ErrMin= 8.41D-02
 ErrMax= 8.41D-02  0.00D+00 EMaxC= 1.00D-01 BMatC= 3.04D-01 BMatP= 3.04D-01
 IDIUse=3 WtCom= 1.59D-01 WtEn= 8.41D-01
 Coeff-Com:  0.100D+01
 Coeff-En:   0.100D+01
 Coeff:      0.100D+01
 Gap=    -0.026 Goal=   None    Shift=    0.000
 GapD=   -0.026 DampG=0.250 DampE=0.500 DampFc=0.2500 IDamp=-1.
 Damping current iteration by 2.50D-01
 RMSDP=1.17D-02 MaxDP=2.67D-01              OVMax= 7.55D-01

 Cycle   2  Pass 1  IDiag  1:
 E= -153.619864212109     Delta-E=       -0.075468591329 Rises=F Damp=T
 DIIS: error= 6.18D-02 at cycle   2 NSaved=   2.
 NSaved= 2 IEnMin= 2 EnMin= -153.619864212109     IErMin= 2 ErrMin= 6.18D-02
 ErrMax= 6.18D-02  0.00D+00 EMaxC= 1.00D-01 BMatC= 1.47D-01 BMatP= 3.04D-01
 IDIUse=3 WtCom= 3.82D-01 WtEn= 6.18D-01
 Coeff-Com: -0.119D+01 0.219D+01
 Coeff-En:   0.000D+00 0.100D+01
 Coeff:     -0.456D+00 0.146D+01
 Gap=     0.246 Goal=   None    Shift=    0.000
 RMSDP=7.75D-03 MaxDP=1.53D-01 DE=-7.55D-02 OVMax= 2.31D-01

 Cycle   3  Pass 1  IDiag  1:
 E= -153.807547267633     Delta-E=       -0.187683055524 Rises=F Damp=F
 DIIS: error= 4.96D-03 at cycle   3 NSaved=   3.
 NSaved= 3 IEnMin= 3 EnMin= -153.807547267633     IErMin= 3 ErrMin= 4.96D-03
 ErrMax= 4.96D-03  0.00D+00 EMaxC= 1.00D-01 BMatC= 2.28D-03 BMatP= 1.47D-01
 IDIUse=3 WtCom= 9.50D-01 WtEn= 4.96D-02
 Coeff-Com:  0.131D+00-0.126D+00 0.995D+00
 Coeff-En:   0.000D+00 0.000D+00 0.100D+01
 Coeff:      0.125D+00-0.119D+00 0.995D+00
 Gap=     0.253 Goal=   None    Shift=    0.000
 RMSDP=7.60D-04 MaxDP=9.32D-03 DE=-1.88D-01 OVMax= 3.57D-02

 Cycle   4  Pass 1  IDiag  1:
 E= -153.807905004435     Delta-E=       -0.000357736802 Rises=F Damp=F
 DIIS: error= 5.65D-03 at cycle   4 NSaved=   4.
 NSaved= 4 IEnMin= 4 EnMin= -153.807905004435     IErMin= 3 ErrMin= 4.96D-03
 ErrMax= 5.65D-03  0.00D+00 EMaxC= 1.00D-01 BMatC= 2.46D-03 BMatP= 2.28D-03
 IDIUse=3 WtCom= 9.43D-01 WtEn= 5.65D-02
 Coeff-Com:  0.112D+00-0.130D+00 0.589D+00 0.428D+00
 Coeff-En:   0.000D+00 0.000D+00 0.437D+00 0.563D+00
 Coeff:      0.106D+00-0.122D+00 0.581D+00 0.436D+00
 Gap=     0.240 Goal=   None    Shift=    0.000
 RMSDP=3.92D-04 MaxDP=6.50D-03 DE=-3.58D-04 OVMax= 1.85D-02

 Cycle   5  Pass 1  IDiag  1:
 E= -153.809807266924     Delta-E=       -0.001902262489 Rises=F Damp=F
 DIIS: error= 1.61D-03 at cycle   5 NSaved=   5.
 NSaved= 5 IEnMin= 5 EnMin= -153.809807266924     IErMin= 5 ErrMin= 1.61D-03
 ErrMax= 1.61D-03  0.00D+00 EMaxC= 1.00D-01 BMatC= 1.18D-04 BMatP= 2.28D-03
 IDIUse=3 WtCom= 9.84D-01 WtEn= 1.61D-02
 Coeff-Com:  0.459D-01-0.584D-01 0.936D-01 0.176D+00 0.743D+00
 Coeff-En:   0.000D+00 0.000D+00 0.000D+00 0.000D+00 0.100D+01
 Coeff:      0.451D-01-0.575D-01 0.921D-01 0.174D+00 0.747D+00
 Gap=     0.238 Goal=   None    Shift=    0.000
 RMSDP=1.07D-04 MaxDP=1.77D-03 DE=-1.90D-03 OVMax= 5.85D-03

 Cycle   6  Pass 1  IDiag  1:
 E= -153.809879303243     Delta-E=       -0.000072036319 Rises=F Damp=F
 DIIS: error= 5.06D-04 at cycle   6 NSaved=   6.
 NSaved= 6 IEnMin= 6 EnMin= -153.809879303243     IErMin= 6 ErrMin= 5.06D-04
 ErrMax= 5.06D-04  0.00D+00 EMaxC= 1.00D-01 BMatC= 1.93D-05 BMatP= 1.18D-04
 IDIUse=3 WtCom= 9.95D-01 WtEn= 5.06D-03
 Coeff-Com:  0.199D-01-0.273D-01-0.337D-02 0.154D-01 0.292D+00 0.703D+00
 Coeff-En:   0.000D+00 0.000D+00 0.000D+00 0.000D+00 0.000D+00 0.100D+01
 Coeff:      0.198D-01-0.272D-01-0.336D-02 0.154D-01 0.291D+00 0.704D+00
 Gap=     0.239 Goal=   None    Shift=    0.000
 RMSDP=4.28D-05 MaxDP=8.19D-04 DE=-7.20D-05 OVMax= 1.11D-03

 Cycle   7  Pass 1  IDiag  1:
 E= -153.809896092068     Delta-E=       -0.000016788825 Rises=F Damp=F
 DIIS: error= 1.36D-04 at cycle   7 NSaved=   7.
 NSaved= 7 IEnMin= 7 EnMin= -153.809896092068     IErMin= 7 ErrMin= 1.36D-04
 ErrMax= 1.36D-04  0.00D+00 EMaxC= 1.00D-01 BMatC= 1.59D-06 BMatP= 1.93D-05
 IDIUse=3 WtCom= 9.99D-01 WtEn= 1.36D-03
 Coeff-Com:  0.480D-02-0.693D-02-0.132D-01-0.223D-01 0.337D-01 0.288D+00
 Coeff-Com:  0.716D+00
 Coeff-En:   0.000D+00 0.000D+00 0.000D+00 0.000D+00 0.000D+00 0.000D+00
 Coeff-En:   0.100D+01
 Coeff:      0.479D-02-0.692D-02-0.132D-01-0.223D-01 0.336D-01 0.288D+00
 Coeff:      0.716D+00
 Gap=     0.239 Goal=   None    Shift=    0.000
 RMSDP=1.26D-05 MaxDP=2.82D-04 DE=-1.68D-05 OVMax= 3.91D-04

 Cycle   8  Pass 1  IDiag  1:
 E= -153.809897659224     Delta-E=       -0.000001567156 Rises=F Damp=F
 DIIS: error= 1.29D-05 at cycle   8 NSaved=   8.
 NSaved= 8 IEnMin= 8 EnMin= -153.809897659224     IErMin= 8 ErrMin= 1.29D-05
 ErrMax= 1.29D-05  0.00D+00 EMaxC= 1.00D-01 BMatC= 1.51D-08 BMatP= 1.59D-06
 IDIUse=1 WtCom= 1.00D+00 WtEn= 0.00D+00
 Coeff-Com:  0.506D-03-0.723D-03-0.115D-02-0.414D-02 0.226D-02 0.354D-01
 Coeff-Com:  0.135D+00 0.833D+00
 Coeff:      0.506D-03-0.723D-03-0.115D-02-0.414D-02 0.226D-02 0.354D-01
 Coeff:      0.135D+00 0.833D+00
 Gap=     0.239 Goal=   None    Shift=    0.000
 RMSDP=1.48D-06 MaxDP=1.82D-05 DE=-1.57D-06 OVMax= 3.91D-05

 Cycle   9  Pass 1  IDiag  1:
 E= -153.809897672050     Delta-E=       -0.000000012827 Rises=F Damp=F
 DIIS: error= 2.82D-06 at cycle   9 NSaved=   9.
 NSaved= 9 IEnMin= 9 EnMin= -153.809897672050     IErMin= 9 ErrMin= 2.82D-06
 ErrMax= 2.82D-06  0.00D+00 EMaxC= 1.00D-01 BMatC= 8.20D-10 BMatP= 1.51D-08
 IDIUse=1 WtCom= 1.00D+00 WtEn= 0.00D+00
 Coeff-Com: -0.148D-04 0.266D-04 0.227D-03-0.250D-03-0.305D-03-0.152D-02
 Coeff-Com: -0.931D-04 0.186D+00 0.816D+00
 Coeff:     -0.148D-04 0.266D-04 0.227D-03-0.250D-03-0.305D-03-0.152D-02
 Coeff:     -0.931D-04 0.186D+00 0.816D+00
 Gap=     0.239 Goal=   None    Shift=    0.000
 RMSDP=3.27D-07 MaxDP=4.20D-06 DE=-1.28D-08 OVMax= 8.30D-06

 Cycle  10  Pass 1  IDiag  1:
 E= -153.809897672820     Delta-E=       -0.000000000769 Rises=F Damp=F
 DIIS: error= 4.30D-07 at cycle  10 NSaved=  10.
 NSaved=10 IEnMin=10 EnMin= -153.809897672820     IErMin=10 ErrMin= 4.30D-07
 ErrMax= 4.30D-07  0.00D+00 EMaxC= 1.00D-01 BMatC= 2.14D-11 BMatP= 8.20D-10
 IDIUse=1 WtCom= 1.00D+00 WtEn= 0.00D+00
 Coeff-Com: -0.419D-05 0.744D-05 0.500D-04 0.190D-04-0.111D-03-0.930D-03
 Coeff-Com: -0.411D-02 0.623D-02 0.121D+00 0.878D+00
 Coeff:     -0.419D-05 0.744D-05 0.500D-04 0.190D-04-0.111D-03-0.930D-03
 Coeff:     -0.411D-02 0.623D-02 0.121D+00 0.878D+00
 Gap=     0.239 Goal=   None    Shift=    0.000
 RMSDP=5.02D-08 MaxDP=8.89D-07 DE=-7.69D-10 OVMax= 1.36D-06

 Cycle  11  Pass 1  IDiag  1:
 E= -153.809897672840     Delta-E=       -0.000000000021 Rises=F Damp=F
 DIIS: error= 5.36D-08 at cycle  11 NSaved=  11.
 NSaved=11 IEnMin=11 EnMin= -153.809897672840     IErMin=11 ErrMin= 5.36D-08
 ErrMax= 5.36D-08  0.00D+00 EMaxC= 1.00D-01 BMatC= 2.20D-13 BMatP= 2.14D-11
 IDIUse=1 WtCom= 1.00D+00 WtEn= 0.00D+00
 Coeff-Com:  0.837D-06-0.103D-05 0.385D-05 0.525D-05-0.218D-04-0.122D-03
 Coeff-Com: -0.744D-03-0.157D-02 0.105D-01 0.169D+00 0.822D+00
 Coeff:      0.837D-06-0.103D-05 0.385D-05 0.525D-05-0.218D-04-0.122D-03
 Coeff:     -0.744D-03-0.157D-02 0.105D-01 0.169D+00 0.822D+00
 Gap=     0.239 Goal=   None    Shift=    0.000
 RMSDP=6.71D-09 MaxDP=7.02D-08 DE=-2.06D-11 OVMax= 1.64D-07

 SCF Done:  E(RB971) =  -153.809897673     A.U. after   11 cycles
            NFock= 11  Conv=0.67D-08     -V/T= 2.0033
 KE= 1.532964934781D+02 PE=-5.002321932156D+02 EE= 1.230277738071D+02
 Leave Link  502 at Mon Sep 16 19:01:42 2013, MaxMem=   524288000 cpu:        33.6
 (Enter /opt/g09/l508.exe)
 QCSCF skips out because SCF is already converged.
 Leave Link  508 at Mon Sep 16 19:01:42 2013, MaxMem=   524288000 cpu:         0.0
 (Enter /opt/g09/l701.exe)
 Compute integral first derivatives.
 ... and contract with generalized density number  0.
 Leave Link  701 at Mon Sep 16 19:01:42 2013, MaxMem=   524288000 cpu:         1.3
 (Enter /opt/g09/l702.exe)
 L702 exits ... SP integral derivatives will be done elsewhere.
 Leave Link  702 at Mon Sep 16 19:01:42 2013, MaxMem=   524288000 cpu:         0.3
 (Enter /opt/g09/l703.exe)
 Compute integral first derivatives, UseDBF=F ICtDFT=           0.
 Integral derivatives from FoFJK, PRISM(SPDF).
 Calling FoFJK, ICntrl=      2127 FMM=F ISym2X=0 I1Cent= 0 IOpClX= 0 NMat=1 NMatS=1 NMatT=0.
 FoFJK:  IHMeth= 1 ICntrl=    2127 DoSepK=F KAlg= 0 I1Cent=   0 FoldK=F
 IRaf=         0 NMat=   1 IRICut=       1 DoRegI=T DoRafI=F ISym2E= 0.
 FoFCou: FMM=F IPFlag=           0 FMFlag=      100000 FMFlg1=         800
         NFxFlg=           0 DoJE=F BraDBF=F KetDBF=F FulRan=T
         wScrn=  0.000000 ICntrl=    2127 IOpCl=  0 I1Cent=           0 NGrid=           0
         NMat0=    1 NMatS0=      1 NMatT0=    0 NMatD0=    1 NMtDS0=    0 NMtDT0=    0
 Symmetry not used in FoFCou.
 Leave Link  703 at Mon Sep 16 19:01:44 2013, MaxMem=   524288000 cpu:         9.5
 (Enter /opt/g09/l716.exe)
 Dipole        = 6.17052491D-01 4.73513485D-01 2.01141142D-15
 -------------------------------------------------------------------
 Center     Atomic                   Forces (Hartrees/Bohr)
 Number     Number              X              Y              Z
 -------------------------------------------------------------------
      1        6           0.000010669   -0.000000265    0.000000000
      2        6          -0.000004349    0.000001983    0.000000000
      3        1           0.000000271   -0.000001183    0.000000000
      4        1          -0.000003598    0.000000254    0.000000000
      5        8           0.000000180   -0.000008413    0.000000000
      6        1          -0.000001013    0.000003673    0.000000000
      7        1          -0.000002160    0.000003950    0.000000000
 -------------------------------------------------------------------
 Cartesian Forces:  Max     0.000010669 RMS     0.000003497
 Force constants in Cartesian coordinates: 
                1             2             3             4             5 
      1  0.943675D+00
      2  0.209466D-02  0.725449D+00
      3  0.000000D+00  0.000000D+00  0.889801D-01
      4 -0.589964D+00 -0.512828D-02  0.000000D+00  0.993411D+00
      5  0.590410D-03 -0.183632D+00  0.000000D+00 -0.654519D-01  0.837593D+00
      6  0.000000D+00  0.000000D+00 -0.509662D-01  0.000000D+00  0.000000D+00
      7 -0.172768D+00  0.110535D+00  0.000000D+00  0.761263D-04  0.270435D-01
      8  0.104119D+00 -0.294382D+00  0.000000D+00  0.430489D-04  0.152929D-01
      9  0.000000D+00  0.000000D+00 -0.264245D-01  0.000000D+00  0.000000D+00
     10 -0.180961D+00 -0.113877D+00  0.000000D+00 -0.743185D-04 -0.264013D-01
     11 -0.106908D+00 -0.284317D+00  0.000000D+00  0.457889D-04  0.162663D-01
     12  0.000000D+00  0.000000D+00 -0.279198D-01  0.000000D+00  0.000000D+00
     13  0.915980D-04  0.325398D-01  0.000000D+00 -0.222752D+00  0.178846D+00
     14  0.576207D-04  0.204695D-01  0.000000D+00  0.152027D+00 -0.423332D+00
     15  0.000000D+00  0.000000D+00  0.246111D-02  0.000000D+00  0.000000D+00
     16 -0.736503D-04 -0.261639D-01  0.000000D+00 -0.174393D+00 -0.110662D+00
     17  0.462009D-04  0.164126D-01  0.000000D+00 -0.109757D+00 -0.279941D+00
     18  0.000000D+00  0.000000D+00  0.801150D-02  0.000000D+00  0.000000D+00
     19  0.000000D+00  0.000000D+00  0.000000D+00 -0.630286D-02 -0.396488D-02
     20  0.000000D+00  0.000000D+00  0.000000D+00  0.282215D-01  0.177530D-01
     21  0.000000D+00  0.000000D+00  0.585782D-02  0.000000D+00  0.000000D+00
                6             7             8             9            10 
      6  0.996978D-01
      7  0.000000D+00  0.144411D+00
      8  0.000000D+00 -0.120154D+00  0.288942D+00
      9  0.945397D-02  0.000000D+00  0.000000D+00  0.188936D-01
     10  0.000000D+00  0.282808D-01  0.159926D-01  0.000000D+00  0.152754D+00
     11  0.000000D+00 -0.174243D-01 -0.985333D-02  0.000000D+00  0.124286D+00
     12  0.641813D-02  0.000000D+00  0.000000D+00  0.000000D+00  0.000000D+00
     13  0.000000D+00  0.000000D+00  0.000000D+00  0.000000D+00  0.000000D+00
     14  0.000000D+00  0.000000D+00  0.000000D+00  0.000000D+00  0.000000D+00
     15 -0.304944D-01  0.000000D+00  0.000000D+00  0.769464D-02  0.000000D+00
     16  0.000000D+00  0.000000D+00  0.000000D+00  0.000000D+00  0.000000D+00
     17  0.000000D+00  0.000000D+00  0.000000D+00  0.000000D+00  0.000000D+00
     18 -0.376758D-01  0.000000D+00  0.000000D+00 -0.961772D-02  0.000000D+00
     19  0.000000D+00  0.000000D+00  0.000000D+00  0.000000D+00  0.000000D+00
     20  0.000000D+00  0.000000D+00  0.000000D+00  0.000000D+00  0.000000D+00
     21  0.356651D-02  0.000000D+00  0.000000D+00  0.000000D+00  0.000000D+00
               11            12            13            14            15 
     11  0.277904D+00
     12  0.000000D+00  0.195457D-01
     13  0.000000D+00  0.000000D+00  0.726662D+00
     14  0.000000D+00  0.000000D+00 -0.617077D-01  0.501910D+00
     15  0.000000D+00 -0.782631D-02  0.000000D+00  0.000000D+00  0.350126D-01
     16  0.000000D+00  0.000000D+00  0.215825D-01  0.135767D-01  0.000000D+00
     17  0.000000D+00  0.000000D+00 -0.135387D-01 -0.851667D-02  0.000000D+00
     18  0.000000D+00  0.978230D-02  0.000000D+00  0.000000D+00  0.104443D-01
     19  0.000000D+00  0.000000D+00 -0.525583D+00 -0.103953D+00  0.000000D+00
     20  0.000000D+00  0.000000D+00 -0.136140D+00 -0.905301D-01  0.000000D+00
     21  0.000000D+00  0.000000D+00  0.000000D+00  0.000000D+00 -0.172919D-01
               16            17            18            19            20 
     16  0.152884D+00
     17  0.123249D+00  0.272045D+00
     18  0.000000D+00  0.000000D+00  0.257769D-01
     19  0.000000D+00  0.000000D+00  0.000000D+00  0.531886D+00
     20  0.000000D+00  0.000000D+00  0.000000D+00  0.107918D+00  0.727770D-01
     21  0.000000D+00  0.000000D+00 -0.672146D-02  0.000000D+00  0.000000D+00
               21 
     21  0.145890D-01
 FormGI is forming the generalized inverse of G from B-inverse, IUseBI=4.
 Force constants in internal coordinates: 
                1             2             3             4             5 
      1  0.589948D+00
      2  0.000000D+00  0.356889D+00
      3  0.000000D+00  0.000000D+00  0.354479D+00
      4  0.000000D+00  0.000000D+00  0.000000D+00  0.515590D+00
      5  0.000000D+00  0.000000D+00  0.000000D+00  0.000000D+00  0.349360D+00
      6  0.000000D+00  0.000000D+00  0.000000D+00  0.000000D+00  0.000000D+00
      7  0.000000D+00  0.000000D+00  0.000000D+00  0.000000D+00  0.000000D+00
      8  0.000000D+00  0.000000D+00  0.000000D+00  0.000000D+00  0.000000D+00
      9  0.000000D+00  0.000000D+00  0.000000D+00  0.000000D+00  0.000000D+00
     10  0.000000D+00  0.000000D+00  0.000000D+00  0.000000D+00  0.000000D+00
     11  0.000000D+00  0.000000D+00  0.000000D+00  0.000000D+00  0.000000D+00
     12  0.000000D+00  0.000000D+00  0.000000D+00  0.000000D+00  0.000000D+00
     13  0.000000D+00  0.000000D+00  0.000000D+00  0.000000D+00  0.000000D+00
     14  0.000000D+00  0.000000D+00  0.000000D+00  0.000000D+00  0.000000D+00
     15  0.000000D+00  0.000000D+00  0.000000D+00  0.000000D+00  0.000000D+00
     16  0.000000D+00  0.000000D+00  0.000000D+00  0.000000D+00  0.000000D+00
     17  0.000000D+00  0.000000D+00  0.000000D+00  0.000000D+00  0.000000D+00
     18  0.000000D+00  0.000000D+00  0.000000D+00  0.000000D+00  0.000000D+00
     19  0.000000D+00  0.000000D+00  0.000000D+00  0.000000D+00  0.000000D+00
                6             7             8             9            10 
      6  0.555988D+00
      7  0.000000D+00  0.106667D+00
      8  0.000000D+00 -0.533333D-01  0.106667D+00
      9  0.000000D+00 -0.533333D-01 -0.533333D-01  0.106667D+00
     10  0.000000D+00  0.000000D+00  0.000000D+00  0.000000D+00  0.146667D+00
     11  0.000000D+00  0.000000D+00  0.000000D+00  0.000000D+00 -0.733333D-01
     12  0.000000D+00  0.000000D+00  0.000000D+00  0.000000D+00 -0.733333D-01
     13  0.000000D+00  0.000000D+00  0.000000D+00  0.000000D+00  0.000000D+00
     14  0.000000D+00  0.000000D+00  0.000000D+00  0.000000D+00  0.000000D+00
     15  0.000000D+00  0.000000D+00  0.000000D+00  0.000000D+00  0.000000D+00
     16  0.000000D+00  0.000000D+00  0.000000D+00  0.000000D+00  0.000000D+00
     17  0.000000D+00  0.000000D+00  0.000000D+00  0.000000D+00  0.000000D+00
     18  0.000000D+00  0.000000D+00  0.000000D+00  0.000000D+00  0.000000D+00
     19  0.000000D+00  0.000000D+00  0.000000D+00  0.000000D+00  0.000000D+00
               11            12            13            14            15 
     11  0.116667D+00
     12 -0.433333D-01  0.116667D+00
     13  0.000000D+00  0.000000D+00  0.160000D+00
     14  0.000000D+00  0.000000D+00  0.000000D+00  0.196441D-01
     15  0.000000D+00  0.000000D+00  0.000000D+00  0.102154D-01  0.196441D-01
     16  0.000000D+00  0.000000D+00  0.000000D+00  0.471436D-02 -0.471436D-02
     17  0.000000D+00  0.000000D+00  0.000000D+00 -0.471436D-02  0.471436D-02
     18  0.000000D+00  0.000000D+00  0.000000D+00 -0.444090D-02  0.444090D-02
     19  0.000000D+00  0.000000D+00  0.000000D+00  0.444090D-02 -0.444090D-02
               16            17            18            19 
     16  0.196441D-01
     17  0.102154D-01  0.196441D-01
     18 -0.444090D-02  0.444090D-02  0.148254D-01
     19  0.444090D-02 -0.444090D-02  0.645877D-02  0.148254D-01
 Leave Link  716 at Mon Sep 16 19:01:44 2013, MaxMem=   524288000 cpu:         0.3
 (Enter /opt/g09/l103.exe)

 GradGradGradGradGradGradGradGradGradGradGradGradGradGradGradGradGradGrad
 Berny optimization.
 Red2BG is reusing G-inverse.
 Internal  Forces:  Max     0.000007815 RMS     0.000003058
 Search for a local minimum.
 Step number   1 out of a maximum of  100
 All quantities printed in internal units (Hartrees-Bohrs-Radians)
 RMS Force = .30579D-05 SwitMx=.10000D-02 MixMth= 2
 Mixed Optimization -- En-DIIS/RFO-DIIS
 Second derivative matrix not updated -- first step.
 The second derivative matrix:
                          R1        R2        R3        R4        R5
           R1           0.58995
           R2           0.00000   0.35689
           R3           0.00000   0.00000   0.35448
           R4           0.00000   0.00000   0.00000   0.51559
           R5           0.00000   0.00000   0.00000   0.00000   0.34936
           R6           0.00000   0.00000   0.00000   0.00000   0.00000
           A1           0.00000   0.00000   0.00000   0.00000   0.00000
           A2           0.00000   0.00000   0.00000   0.00000   0.00000
           A3           0.00000   0.00000   0.00000   0.00000   0.00000
           A4           0.00000   0.00000   0.00000   0.00000   0.00000
           A5           0.00000   0.00000   0.00000   0.00000   0.00000
           A6           0.00000   0.00000   0.00000   0.00000   0.00000
           A7           0.00000   0.00000   0.00000   0.00000   0.00000
           D1           0.00000   0.00000   0.00000   0.00000   0.00000
           D2           0.00000   0.00000   0.00000   0.00000   0.00000
           D3           0.00000   0.00000   0.00000   0.00000   0.00000
           D4           0.00000   0.00000   0.00000   0.00000   0.00000
           D5           0.00000   0.00000   0.00000   0.00000   0.00000
           D6           0.00000   0.00000   0.00000   0.00000   0.00000
                          R6        A1        A2        A3        A4
           R6           0.55599
           A1           0.00000   0.10667
           A2           0.00000  -0.05333   0.10667
           A3           0.00000  -0.05333  -0.05333   0.10667
           A4           0.00000   0.00000   0.00000   0.00000   0.14667
           A5           0.00000   0.00000   0.00000   0.00000  -0.07333
           A6           0.00000   0.00000   0.00000   0.00000  -0.07333
           A7           0.00000   0.00000   0.00000   0.00000   0.00000
           D1           0.00000   0.00000   0.00000   0.00000   0.00000
           D2           0.00000   0.00000   0.00000   0.00000   0.00000
           D3           0.00000   0.00000   0.00000   0.00000   0.00000
           D4           0.00000   0.00000   0.00000   0.00000   0.00000
           D5           0.00000   0.00000   0.00000   0.00000   0.00000
           D6           0.00000   0.00000   0.00000   0.00000   0.00000
                          A5        A6        A7        D1        D2
           A5           0.11667
           A6          -0.04333   0.11667
           A7           0.00000   0.00000   0.16000
           D1           0.00000   0.00000   0.00000   0.01964
           D2           0.00000   0.00000   0.00000   0.01022   0.01964
           D3           0.00000   0.00000   0.00000   0.00471  -0.00471
           D4           0.00000   0.00000   0.00000  -0.00471   0.00471
           D5           0.00000   0.00000   0.00000  -0.00444   0.00444
           D6           0.00000   0.00000   0.00000   0.00444  -0.00444
                          D3        D4        D5        D6
           D3           0.01964
           D4           0.01022   0.01964
           D5          -0.00444   0.00444   0.01483
           D6           0.00444  -0.00444   0.00646   0.01483
 ITU=  0
     Eigenvalues ---    0.02128   0.02722   0.02986   0.02986   0.16000
     Eigenvalues ---    0.16000   0.16000   0.16000   0.22000   0.34936
     Eigenvalues ---    0.35448   0.35689   0.51559   0.55599   0.58995
 RFO step:  Lambda= 0.00000000D+00 EMin= 2.12841560D-02
 Linear search not attempted -- first point.
 Iteration  1 RMS(Cart)=  0.00002124 RMS(Int)=  0.00000000
 Iteration  2 RMS(Cart)=  0.00000000 RMS(Int)=  0.00000000
 ITry= 1 IFail=0 DXMaxC= 5.31D-05 DCOld= 1.00D+10 DXMaxT= 3.00D-01 DXLimC= 3.00D+00 Rises=F
 Variable       Old X    -DE/DX   Delta X   Delta X   Delta X     New X
                                 (Linear)    (Quad)   (Total)
    R1        2.51745  -0.00001   0.00000  -0.00001  -0.00001   2.51743
    R2        2.04571   0.00000   0.00000   0.00000   0.00000   2.04571
    R3        2.04954   0.00000   0.00000   0.00000   0.00000   2.04954
    R4        2.58324   0.00000   0.00000   0.00001   0.00001   2.58325
    R5        2.05779   0.00000   0.00000   0.00001   0.00001   2.05780
    R6        1.81304   0.00000   0.00000   0.00000   0.00000   1.81303
    A1        2.08827   0.00000   0.00000  -0.00001  -0.00001   2.08826
    A2        2.12017   0.00000   0.00000   0.00003   0.00003   2.12019
    A3        2.07475   0.00000   0.00000  -0.00002  -0.00002   2.07473
    A4        2.13513   0.00000   0.00000   0.00000   0.00000   2.13513
    A5        2.12823   0.00000   0.00000  -0.00002  -0.00002   2.12822
    A6        2.01983   0.00000   0.00000   0.00002   0.00002   2.01984
    A7        1.91258  -0.00001   0.00000  -0.00005  -0.00005   1.91253
    D1        3.14159   0.00000   0.00000   0.00000   0.00000   3.14159
    D2        0.00000   0.00000   0.00000   0.00000   0.00000   0.00000
    D3        0.00000   0.00000   0.00000   0.00000   0.00000   0.00000
    D4        3.14159   0.00000   0.00000   0.00000   0.00000   3.14159
    D5        3.14159   0.00000   0.00000   0.00000   0.00000   3.14159
    D6        0.00000   0.00000   0.00000   0.00000   0.00000   0.00000
         Item               Value     Threshold  Converged?
 Maximum Force            0.000008     0.000015     YES
 RMS     Force            0.000003     0.000010     YES
 Maximum Displacement     0.000053     0.000060     YES
 RMS     Displacement     0.000021     0.000040     YES
 Predicted change in Energy=-3.942343D-10
 Optimization completed.
    -- Stationary point found.
                           ----------------------------
                           !   Optimized Parameters   !
                           ! (Angstroms and Degrees)  !
 --------------------------                            --------------------------
 ! Name  Definition              Value          Derivative Info.                !
 --------------------------------------------------------------------------------
 ! R1    R(1,2)                  1.3322         -DE/DX =    0.0                 !
 ! R2    R(1,3)                  1.0825         -DE/DX =    0.0                 !
 ! R3    R(1,4)                  1.0846         -DE/DX =    0.0                 !
 ! R4    R(2,5)                  1.367          -DE/DX =    0.0                 !
 ! R5    R(2,6)                  1.0889         -DE/DX =    0.0                 !
 ! R6    R(5,7)                  0.9594         -DE/DX =    0.0                 !
 ! A1    A(2,1,3)              119.6492         -DE/DX =    0.0                 !
 ! A2    A(2,1,4)              121.4766         -DE/DX =    0.0                 !
 ! A3    A(3,1,4)              118.8742         -DE/DX =    0.0                 !
 ! A4    A(1,2,5)              122.3337         -DE/DX =    0.0                 !
 ! A5    A(1,2,6)              121.9388         -DE/DX =    0.0                 !
 ! A6    A(5,2,6)              115.7275         -DE/DX =    0.0                 !
 ! A7    A(2,5,7)              109.5828         -DE/DX =    0.0                 !
 ! D1    D(3,1,2,5)            180.0            -DE/DX =    0.0                 !
 ! D2    D(3,1,2,6)              0.0            -DE/DX =    0.0                 !
 ! D3    D(4,1,2,5)              0.0            -DE/DX =    0.0                 !
 ! D4    D(4,1,2,6)            180.0            -DE/DX =    0.0                 !
 ! D5    D(1,2,5,7)            180.0            -DE/DX =    0.0                 !
 ! D6    D(6,2,5,7)              0.0            -DE/DX =    0.0                 !
 --------------------------------------------------------------------------------
 Lowest energy point so far.  Saving SCF results.
 GradGradGradGradGradGradGradGradGradGradGradGradGradGradGradGradGradGrad

 Largest change from initial coordinates is atom    0       0.000 Angstoms.
 Leave Link  103 at Mon Sep 16 19:01:44 2013, MaxMem=   524288000 cpu:         0.0
 (Enter /opt/g09/l202.exe)
                          Input orientation:                          
 ---------------------------------------------------------------------
 Center     Atomic      Atomic             Coordinates (Angstroms)
 Number     Number       Type             X           Y           Z
 ---------------------------------------------------------------------
      1          6           0       -0.013410   -0.001960    0.000000
      2          6           0        1.318760   -0.005710    0.000000
      3          1           0       -0.546280    0.940350    0.000000
      4          1           0       -0.582320   -0.925340    0.000000
      5          8           0        2.046640   -1.162800    0.000000
      6          1           0        1.897420    0.916750    0.000000
      7          1           0        2.982990   -0.953680    0.000000
 ---------------------------------------------------------------------
                    Distance matrix (angstroms):
                    1          2          3          4          5
     1  C    0.000000
     2  C    1.332175   0.000000
     3  H    1.082543   2.091268   0.000000
     4  H    1.084569   2.111830   1.866038   0.000000
     5  O    2.364605   1.366992   3.338634   2.639662   0.000000
     6  H    2.120212   1.088935   2.443814   3.089079   2.084897
     7  H    3.143912   1.915283   4.005383   3.565423   0.959418
                    6          7
     6  H    0.000000
     7  H    2.162630   0.000000
 Symmetry turned off by external request.
 Stoichiometry    C2H4O
 Framework group  CS[SG(C2H4O)]
 Deg. of freedom    11
 Full point group                 CS      NOp   2
 Rotational constants (GHZ):     63.9348481     10.4097286      8.9521582
 Leave Link  202 at Mon Sep 16 19:01:44 2013, MaxMem=   524288000 cpu:         0.0
 (Enter /opt/g09/l9999.exe)
 1\1\GINC-MANET\FOpt\RB971\6-311+G(d,p)\C2H4O1\PB556\16-Sep-2013\0\\#p 
 rB971/6-311+G(d,p) Opt=(Tight, NewEstmFC, MaxCyc=400) Freq GFInput Pop
 ulation=None Integral(Grid=UltraFine) SCF=(MaxCyc=400, XQC) Guess=Mix 
 NoSymmetry\\a-fine-557-75-5\\0,1\C,-0.01341,-0.00196,0.\C,1.31876,-0.0
 0571,0.\H,-0.54628,0.94035,0.\H,-0.58232,-0.92534,0.\O,2.04664,-1.1628
 ,0.\H,1.89742,0.91675,0.\H,2.98299,-0.95368,0.\\Version=ES64L-G09RevD.
 01\HF=-153.8098977\RMSD=6.712e-09\RMSF=3.497e-06\Dipole=0.6170525,0.47
 35135,0.\PG=CS [SG(C2H4O1)]\\@


 ALL THINGS ARE POSSIBLE EXCEPT SKIING THROUGH A REVOLVING DOOR.
 Leave Link 9999 at Mon Sep 16 19:01:44 2013, MaxMem=   524288000 cpu:         0.3
 Job cpu time:       0 days  0 hours  0 minutes 56.7 seconds.
 File lengths (MBytes):  RWF=      5 Int=      0 D2E=      0 Chk=      2 Scr=      1
 Normal termination of Gaussian 09 at Mon Sep 16 19:01:44 2013.
 (Enter /opt/g09/l1.exe)
 Link1:  Proceeding to internal job step number  2.
 ----------------------------------------------------------------------
 #P Geom=AllCheck Guess=TCheck SCRF=Check GenChk RB971/6-311+G(d,p) Fre
 q
 ----------------------------------------------------------------------
 1/6=400,7=10,10=4,29=7,30=1,38=1,40=1/1,3;
 2/12=2,15=1,40=1/2;
 3/5=4,6=6,7=111,11=2,14=-4,16=1,24=10,25=1,30=1,70=2,71=2,74=-20,75=-5,116=1,140=1/1,2,3;
 4/5=101/1;
 5/5=2,7=400,8=3,13=1,98=1/2,8;
 8/6=4,10=90,11=11/1;
 11/6=1,8=1,9=11,15=111,16=1,31=1/1,2,10;
 10/6=1,31=1/2;
 7/8=1,10=1,25=1,30=1/1,2,3,16;
 1/6=400,7=10,10=4,30=1/3;
 99//99;
 Leave Link    1 at Mon Sep 16 19:01:44 2013, MaxMem=   524288000 cpu:         0.4
 (Enter /opt/g09/l101.exe)
 Structure from the checkpoint file:  "/scratch/pb556/g09_runs//Gau-27599.chk"
 ---------------
 a-fine-557-75-5
 ---------------
 Charge =  0 Multiplicity = 1
 Redundant internal coordinates found in file.
 C,0,-0.01341,-0.00196,0.
 C,0,1.31876,-0.00571,0.
 H,0,-0.54628,0.94035,0.
 H,0,-0.58232,-0.92534,0.
 O,0,2.04664,-1.1628,0.
 H,0,1.89742,0.91675,0.
 H,0,2.98299,-0.95368,0.
 Recover connectivity data from disk.
 NAtoms=      7 NQM=        7 NQMF=       0 NMMI=      0 NMMIF=      0
                NMic=       0 NMicF=      0.
                    Isotopes and Nuclear Properties:
 (Nuclear quadrupole moments (NQMom) in fm**2, nuclear magnetic moments (NMagM)
  in nuclear magnetons)

  Atom         1           2           3           4           5           6           7
 IAtWgt=          12          12           1           1          16           1           1
 AtmWgt=  12.0000000  12.0000000   1.0078250   1.0078250  15.9949146   1.0078250   1.0078250
 NucSpn=           0           0           1           1           0           1           1
 AtZEff=  -3.6000000  -3.6000000  -1.0000000  -1.0000000  -5.6000000  -1.0000000  -1.0000000
 NQMom=    0.0000000   0.0000000   0.0000000   0.0000000   0.0000000   0.0000000   0.0000000
 NMagM=    0.0000000   0.0000000   2.7928460   2.7928460   0.0000000   2.7928460   2.7928460
 AtZNuc=   6.0000000   6.0000000   1.0000000   1.0000000   8.0000000   1.0000000   1.0000000
 Leave Link  101 at Mon Sep 16 19:01:44 2013, MaxMem=   524288000 cpu:         1.8
 (Enter /opt/g09/l103.exe)

 GradGradGradGradGradGradGradGradGradGradGradGradGradGradGradGradGradGrad
 Berny optimization.
 Initialization pass.
                           ----------------------------
                           !    Initial Parameters    !
                           ! (Angstroms and Degrees)  !
 --------------------------                            --------------------------
 ! Name  Definition              Value          Derivative Info.                !
 --------------------------------------------------------------------------------
 ! R1    R(1,2)                  1.3322         calculate D2E/DX2 analytically  !
 ! R2    R(1,3)                  1.0825         calculate D2E/DX2 analytically  !
 ! R3    R(1,4)                  1.0846         calculate D2E/DX2 analytically  !
 ! R4    R(2,5)                  1.367          calculate D2E/DX2 analytically  !
 ! R5    R(2,6)                  1.0889         calculate D2E/DX2 analytically  !
 ! R6    R(5,7)                  0.9594         calculate D2E/DX2 analytically  !
 ! A1    A(2,1,3)              119.6492         calculate D2E/DX2 analytically  !
 ! A2    A(2,1,4)              121.4766         calculate D2E/DX2 analytically  !
 ! A3    A(3,1,4)              118.8742         calculate D2E/DX2 analytically  !
 ! A4    A(1,2,5)              122.3337         calculate D2E/DX2 analytically  !
 ! A5    A(1,2,6)              121.9388         calculate D2E/DX2 analytically  !
 ! A6    A(5,2,6)              115.7275         calculate D2E/DX2 analytically  !
 ! A7    A(2,5,7)              109.5828         calculate D2E/DX2 analytically  !
 ! D1    D(3,1,2,5)            180.0            calculate D2E/DX2 analytically  !
 ! D2    D(3,1,2,6)              0.0            calculate D2E/DX2 analytically  !
 ! D3    D(4,1,2,5)              0.0            calculate D2E/DX2 analytically  !
 ! D4    D(4,1,2,6)            180.0            calculate D2E/DX2 analytically  !
 ! D5    D(1,2,5,7)            180.0            calculate D2E/DX2 analytically  !
 ! D6    D(6,2,5,7)              0.0            calculate D2E/DX2 analytically  !
 --------------------------------------------------------------------------------
 Trust Radius=3.00D-01 FncErr=1.00D-07 GrdErr=1.00D-07
 Number of steps in this run=      2 maximum allowed number of steps=      2.
 GradGradGradGradGradGradGradGradGradGradGradGradGradGradGradGradGradGrad

 Leave Link  103 at Mon Sep 16 19:01:44 2013, MaxMem=   524288000 cpu:         0.1
 (Enter /opt/g09/l202.exe)
                          Input orientation:                          
 ---------------------------------------------------------------------
 Center     Atomic      Atomic             Coordinates (Angstroms)
 Number     Number       Type             X           Y           Z
 ---------------------------------------------------------------------
      1          6           0       -0.013410   -0.001960    0.000000
      2          6           0        1.318760   -0.005710    0.000000
      3          1           0       -0.546280    0.940350    0.000000
      4          1           0       -0.582320   -0.925340    0.000000
      5          8           0        2.046640   -1.162800    0.000000
      6          1           0        1.897420    0.916750    0.000000
      7          1           0        2.982990   -0.953680    0.000000
 ---------------------------------------------------------------------
                    Distance matrix (angstroms):
                    1          2          3          4          5
     1  C    0.000000
     2  C    1.332175   0.000000
     3  H    1.082543   2.091268   0.000000
     4  H    1.084569   2.111830   1.866038   0.000000
     5  O    2.364605   1.366992   3.338634   2.639662   0.000000
     6  H    2.120212   1.088935   2.443814   3.089079   2.084897
     7  H    3.143912   1.915283   4.005383   3.565423   0.959418
                    6          7
     6  H    0.000000
     7  H    2.162630   0.000000
 Symmetry turned off by external request.
 Stoichiometry    C2H4O
 Framework group  CS[SG(C2H4O)]
 Deg. of freedom    11
 Full point group                 CS      NOp   2
 Rotational constants (GHZ):     63.9348481     10.4097286      8.9521582
 Leave Link  202 at Mon Sep 16 19:01:44 2013, MaxMem=   524288000 cpu:         0.0
 (Enter /opt/g09/l301.exe)
 Standard basis: 6-311+G(d,p) (5D, 7F)
 Ernie: Thresh=  0.10000D-02 Tol=  0.10000D-05 Strict=F.
 AO basis set in the form of general basis input (Overlap normalization):
      1 0
 S   6 1.00       0.000000000000
      0.4563240000D+04  0.1966650249D-02
      0.6820240000D+03  0.1523060193D-01
      0.1549730000D+03  0.7612690966D-01
      0.4445530000D+02  0.2608010331D+00
      0.1302900000D+02  0.6164620782D+00
      0.1827730000D+01  0.2210060280D+00
 SP   3 1.00       0.000000000000
      0.2096420000D+02  0.1146600807D+00  0.4024869267D-01
      0.4803310000D+01  0.9199996477D+00  0.2375939567D+00
      0.1459330000D+01 -0.3030682134D-02  0.8158538515D+00
 SP   1 1.00       0.000000000000
      0.4834560000D+00  0.1000000000D+01  0.1000000000D+01
 SP   1 1.00       0.000000000000
      0.1455850000D+00  0.1000000000D+01  0.1000000000D+01
 SP   1 1.00       0.000000000000
      0.4380000000D-01  0.1000000000D+01  0.1000000000D+01
 D   1 1.00       0.000000000000
      0.6260000000D+00  0.1000000000D+01
 ****
      2 0
 S   6 1.00       0.000000000000
      0.4563240000D+04  0.1966650249D-02
      0.6820240000D+03  0.1523060193D-01
      0.1549730000D+03  0.7612690966D-01
      0.4445530000D+02  0.2608010331D+00
      0.1302900000D+02  0.6164620782D+00
      0.1827730000D+01  0.2210060280D+00
 SP   3 1.00       0.000000000000
      0.2096420000D+02  0.1146600807D+00  0.4024869267D-01
      0.4803310000D+01  0.9199996477D+00  0.2375939567D+00
      0.1459330000D+01 -0.3030682134D-02  0.8158538515D+00
 SP   1 1.00       0.000000000000
      0.4834560000D+00  0.1000000000D+01  0.1000000000D+01
 SP   1 1.00       0.000000000000
      0.1455850000D+00  0.1000000000D+01  0.1000000000D+01
 SP   1 1.00       0.000000000000
      0.4380000000D-01  0.1000000000D+01  0.1000000000D+01
 D   1 1.00       0.000000000000
      0.6260000000D+00  0.1000000000D+01
 ****
      3 0
 S   3 1.00       0.000000000000
      0.3386500000D+02  0.2549381454D-01
      0.5094790000D+01  0.1903731086D+00
      0.1158790000D+01  0.8521614860D+00
 S   1 1.00       0.000000000000
      0.3258400000D+00  0.1000000000D+01
 S   1 1.00       0.000000000000
      0.1027410000D+00  0.1000000000D+01
 P   1 1.00       0.000000000000
      0.7500000000D+00  0.1000000000D+01
 ****
      4 0
 S   3 1.00       0.000000000000
      0.3386500000D+02  0.2549381454D-01
      0.5094790000D+01  0.1903731086D+00
      0.1158790000D+01  0.8521614860D+00
 S   1 1.00       0.000000000000
      0.3258400000D+00  0.1000000000D+01
 S   1 1.00       0.000000000000
      0.1027410000D+00  0.1000000000D+01
 P   1 1.00       0.000000000000
      0.7500000000D+00  0.1000000000D+01
 ****
      5 0
 S   6 1.00       0.000000000000
      0.8588500000D+04  0.1895150083D-02
      0.1297230000D+04  0.1438590063D-01
      0.2992960000D+03  0.7073200310D-01
      0.8737710000D+02  0.2400010105D+00
      0.2567890000D+02  0.5947970261D+00
      0.3740040000D+01  0.2808020123D+00
 SP   3 1.00       0.000000000000
      0.4211750000D+02  0.1138890124D+00  0.3651139738D-01
      0.9628370000D+01  0.9208111006D+00  0.2371529830D+00
      0.2853320000D+01 -0.3274470358D-02  0.8197019412D+00
 SP   1 1.00       0.000000000000
      0.9056610000D+00  0.1000000000D+01  0.1000000000D+01
 SP   1 1.00       0.000000000000
      0.2556110000D+00  0.1000000000D+01  0.1000000000D+01
 SP   1 1.00       0.000000000000
      0.8450000000D-01  0.1000000000D+01  0.1000000000D+01
 D   1 1.00       0.000000000000
      0.1292000000D+01  0.1000000000D+01
 ****
      6 0
 S   3 1.00       0.000000000000
      0.3386500000D+02  0.2549381454D-01
      0.5094790000D+01  0.1903731086D+00
      0.1158790000D+01  0.8521614860D+00
 S   1 1.00       0.000000000000
      0.3258400000D+00  0.1000000000D+01
 S   1 1.00       0.000000000000
      0.1027410000D+00  0.1000000000D+01
 P   1 1.00       0.000000000000
      0.7500000000D+00  0.1000000000D+01
 ****
      7 0
 S   3 1.00       0.000000000000
      0.3386500000D+02  0.2549381454D-01
      0.5094790000D+01  0.1903731086D+00
      0.1158790000D+01  0.8521614860D+00
 S   1 1.00       0.000000000000
      0.3258400000D+00  0.1000000000D+01
 S   1 1.00       0.000000000000
      0.1027410000D+00  0.1000000000D+01
 P   1 1.00       0.000000000000
      0.7500000000D+00  0.1000000000D+01
 ****

    90 basis functions,   140 primitive gaussians,    93 cartesian basis functions
    12 alpha electrons       12 beta electrons
       nuclear repulsion energy        70.0980282576 Hartrees.
 IExCor= 1614 DFT=T Ex+Corr=B971 ExCW=0 ScaHFX=  0.210000
 ScaDFX=  1.000000  1.000000  1.000000  1.000000 ScalE2=  1.000000  1.000000
 IRadAn=      5 IRanWt=     -1 IRanGd=            0 ICorTp=0 IEmpDi=  4
 NAtoms=    7 NActive=    7 NUniq=    7 SFac= 1.00D+00 NAtFMM=   60 NAOKFM=F Big=F
 Integral buffers will be    131072 words long.
 Raffenetti 2 integral format.
 Two-electron integral symmetry is turned off.
 Leave Link  301 at Mon Sep 16 19:01:45 2013, MaxMem=   524288000 cpu:         0.4
 (Enter /opt/g09/l302.exe)
 NPDir=0 NMtPBC=     1 NCelOv=     1 NCel=       1 NClECP=     1 NCelD=      1
         NCelK=      1 NCelE2=     1 NClLst=     1 CellRange=     0.0.
 One-electron integrals computed using PRISM.
 NBasis=    90 RedAO= T EigKep=  9.41D-05  NBF=    90
 NBsUse=    90 1.00D-06 EigRej= -1.00D+00 NBFU=    90
 Precomputing XC quadrature grid using
 IXCGrd= 4 IRadAn=           5 IRanWt=          -1 IRanGd=           0 AccXCQ= 0.00D+00.
 Generated NRdTot=       0 NPtTot=           0 NUsed=           0 NTot=          32
 NSgBfM=    93    93    93    93    93 MxSgAt=     7 MxSgA2=     7.
 Leave Link  302 at Mon Sep 16 19:01:45 2013, MaxMem=   524288000 cpu:         1.4
 (Enter /opt/g09/l303.exe)
 DipDrv:  MaxL=1.
 Leave Link  303 at Mon Sep 16 19:01:45 2013, MaxMem=   524288000 cpu:         0.3
 (Enter /opt/g09/l401.exe)
 Initial guess from the checkpoint file:  "/scratch/pb556/g09_runs//Gau-27599.chk"
 B after Tr=     0.000000    0.000000    0.000000
         Rot=    1.000000    0.000000    0.000000    0.000000 Ang=   0.00 deg.
 Guess basis will be translated and rotated to current coordinates.
 JPrj=2 DoOrth=T DoCkMO=T.
 Leave Link  401 at Mon Sep 16 19:01:45 2013, MaxMem=   524288000 cpu:         0.8
 (Enter /opt/g09/l502.exe)
 Closed shell SCF:
 Using DIIS extrapolation, IDIIS=  1040.
 Two-electron integral symmetry not used.
 Keep R1 ints in memory in canonical form, NReq=9349531.
 IVT=       45813 IEndB=       45813 NGot=   524288000 MDV=   515855628
 LenX=   515855628 LenY=   515846538
 Requested convergence on RMS density matrix=1.00D-08 within 128 cycles.
 Requested convergence on MAX density matrix=1.00D-06.
 Requested convergence on             energy=1.00D-06.
 No special actions if energy rises.
 FoFCou: FMM=F IPFlag=           0 FMFlag=           0 FMFlg1=           0
         NFxFlg=           0 DoJE=F BraDBF=F KetDBF=F FulRan=T
         wScrn=  0.000000 ICntrl=     600 IOpCl=  0 I1Cent=           0 NGrid=           0
         NMat0=    1 NMatS0=   4095 NMatT0=    0 NMatD0=    1 NMtDS0=    0 NMtDT0=    0
 Symmetry not used in FoFCou.

 Cycle   1  Pass 1  IDiag  1:
 E= -153.809897672841    
 DIIS: error= 5.05D-09 at cycle   1 NSaved=   1.
 NSaved= 1 IEnMin= 1 EnMin= -153.809897672841     IErMin= 1 ErrMin= 5.05D-09
 ErrMax= 5.05D-09  0.00D+00 EMaxC= 1.00D-01 BMatC= 2.61D-15 BMatP= 2.61D-15
 IDIUse=1 WtCom= 1.00D+00 WtEn= 0.00D+00
 Coeff-Com:  0.100D+01
 Coeff:      0.100D+01
 Gap=     0.239 Goal=   None    Shift=    0.000
 RMSDP=1.24D-09 MaxDP=1.96D-08              OVMax= 6.58D-08

 SCF Done:  E(RB971) =  -153.809897673     A.U. after    1 cycles
            NFock=  1  Conv=0.12D-08     -V/T= 2.0033
 KE= 1.532964934230D+02 PE=-5.002321927988D+02 EE= 1.230277734454D+02
 Leave Link  502 at Mon Sep 16 19:01:46 2013, MaxMem=   524288000 cpu:         5.3
 (Enter /opt/g09/l508.exe)
 QCSCF skips out because SCF is already converged.
 Leave Link  508 at Mon Sep 16 19:01:46 2013, MaxMem=   524288000 cpu:         0.0
 (Enter /opt/g09/l801.exe)
 DoSCS=F DFT=T ScalE2(SS,OS)=  1.000000  1.000000
 Range of M.O.s used for correlation:     1    90
 NBasis=    90 NAE=    12 NBE=    12 NFC=     0 NFV=     0
 NROrb=     90 NOA=    12 NOB=    12 NVA=    78 NVB=    78

 **** Warning!!: The largest alpha MO coefficient is  0.37861612D+02

 Leave Link  801 at Mon Sep 16 19:01:46 2013, MaxMem=   524288000 cpu:         4.0
 (Enter /opt/g09/l1101.exe)
 Using compressed storage, NAtomX=     7.
 Will process      8 centers per pass.
 Leave Link 1101 at Mon Sep 16 19:01:47 2013, MaxMem=   524288000 cpu:         1.5
 (Enter /opt/g09/l1102.exe)
 Symmetrizing basis deriv contribution to polar:
 IMax=3 JMax=2 DiffMx= 0.00D+00
 Leave Link 1102 at Mon Sep 16 19:01:47 2013, MaxMem=   524288000 cpu:         0.3
 (Enter /opt/g09/l1110.exe)
 Forming Gx(P) for the SCF density, NAtomX=     7.
 Integral derivatives from FoFJK, PRISM(SPDF).
 Do as many integral derivatives as possible in FoFJK.
 G2DrvN: MDV=     524287840.
 G2DrvN: will do     8 centers at a time, making    1 passes.
 Calling FoFCou, ICntrl=  3107 FMM=F I1Cent=   0 AccDes= 0.00D+00.
 FoFJK:  IHMeth= 1 ICntrl=    3107 DoSepK=F KAlg= 0 I1Cent=   0 FoldK=F
 IRaf=         0 NMat=   1 IRICut=       1 DoRegI=T DoRafI=F ISym2E= 0.
 FoFCou: FMM=F IPFlag=           0 FMFlag=      100000 FMFlg1=           0
         NFxFlg=           0 DoJE=F BraDBF=F KetDBF=F FulRan=T
         wScrn=  0.000000 ICntrl=    3107 IOpCl=  0 I1Cent=           0 NGrid=           0
         NMat0=    1 NMatS0=      1 NMatT0=    0 NMatD0=    1 NMtDS0=    0 NMtDT0=    0
 Symmetry not used in FoFCou.
 End of G2Drv F.D. properties file   721 does not exist.
 End of G2Drv F.D. properties file   722 does not exist.
 End of G2Drv F.D. properties file   788 does not exist.
 Leave Link 1110 at Mon Sep 16 19:01:53 2013, MaxMem=   524288000 cpu:        52.1
 (Enter /opt/g09/l1002.exe)
 Minotr:  Closed shell wavefunction.
          IDoAtm=1111111
          Direct CPHF calculation.
          Differentiating once with respect to electric field.
                with respect to dipole field.
          Differentiating once with respect to nuclear coordinates.
          Requested convergence is 1.0D-08 RMS, and 1.0D-07 maximum.
          Secondary convergence is 1.0D-12 RMS, and 1.0D-12 maximum.
          NewPWx=T KeepS1=F KeepF1=F KeepIn=T MapXYZ=F SortEE=F KeepMc=T.
          MDV=     524287836 using IRadAn=       1.
 Generate precomputed XC quadrature information.
 Keep R1 ints in memory in canonical form, NReq=9303553.
 FoFCou: FMM=F IPFlag=           0 FMFlag=           0 FMFlg1=           0
         NFxFlg=           0 DoJE=F BraDBF=F KetDBF=F FulRan=T
         wScrn=  0.000000 ICntrl=     600 IOpCl=  0 I1Cent=           0 NGrid=           0
         NMat0=    1 NMatS0=   4095 NMatT0=    0 NMatD0=    1 NMtDS0=    0 NMtDT0=    0
 Symmetry not used in FoFCou.
          Solving linear equations simultaneously, MaxMat=       0.
          There are    24 degrees of freedom in the 1st order CPHF.  IDoFFX=6 NUNeed=     3.
     21 vectors produced by pass  0 Test12= 3.90D-15 4.17D-09 XBig12= 4.35D+01 5.58D+00.
 AX will form    21 AO Fock derivatives at one time.
     21 vectors produced by pass  1 Test12= 3.90D-15 4.17D-09 XBig12= 5.85D+00 7.64D-01.
     21 vectors produced by pass  2 Test12= 3.90D-15 4.17D-09 XBig12= 6.32D-02 5.42D-02.
     21 vectors produced by pass  3 Test12= 3.90D-15 4.17D-09 XBig12= 1.96D-04 5.08D-03.
     21 vectors produced by pass  4 Test12= 3.90D-15 4.17D-09 XBig12= 2.46D-07 1.10D-04.
     15 vectors produced by pass  5 Test12= 3.90D-15 4.17D-09 XBig12= 1.94D-10 2.43D-06.
      3 vectors produced by pass  6 Test12= 3.90D-15 4.17D-09 XBig12= 1.38D-13 1.12D-07.
 InvSVY:  IOpt=1 It=  1 EMax= 1.22D-15
 Solved reduced A of dimension   123 with    24 vectors.
 FullF1:  Do perturbations    1 to     3.
 Isotropic polarizability for W=    0.000000       30.24 Bohr**3.
 End of Minotr F.D. properties file   721 does not exist.
 End of Minotr F.D. properties file   722 does not exist.
 End of Minotr F.D. properties file   788 does not exist.
 Leave Link 1002 at Mon Sep 16 19:02:01 2013, MaxMem=   524288000 cpu:        60.5
 (Enter /opt/g09/l701.exe)
 Compute integral second derivatives.
 ... and contract with generalized density number  0.
 Leave Link  701 at Mon Sep 16 19:02:02 2013, MaxMem=   524288000 cpu:         2.2
 (Enter /opt/g09/l702.exe)
 L702 exits ... SP integral derivatives will be done elsewhere.
 Leave Link  702 at Mon Sep 16 19:02:02 2013, MaxMem=   524288000 cpu:         0.3
 (Enter /opt/g09/l703.exe)
 Compute integral second derivatives, UseDBF=F ICtDFT=           0.
 Integral derivatives from FoFJK, PRISM(SPDF).
 Calling FoFJK, ICntrl=    100127 FMM=F ISym2X=0 I1Cent= 0 IOpClX= 0 NMat=1 NMatS=1 NMatT=0.
 FoFJK:  IHMeth= 1 ICntrl=  100127 DoSepK=F KAlg= 0 I1Cent=   0 FoldK=F
 IRaf=         0 NMat=   1 IRICut=       1 DoRegI=T DoRafI=F ISym2E= 0.
 FoFCou: FMM=F IPFlag=           0 FMFlag=      100000 FMFlg1=         800
         NFxFlg=           0 DoJE=F BraDBF=F KetDBF=F FulRan=T
         wScrn=  0.000000 ICntrl=  100127 IOpCl=  0 I1Cent=           0 NGrid=           0
         NMat0=    1 NMatS0=      1 NMatT0=    0 NMatD0=    1 NMtDS0=    0 NMtDT0=    0
 Symmetry not used in FoFCou.
 Leave Link  703 at Mon Sep 16 19:02:12 2013, MaxMem=   524288000 cpu:        77.5
 (Enter /opt/g09/l716.exe)
 Dipole        = 6.17052844D-01 4.73513535D-01 1.31926644D-16
 Polarizability= 4.22955290D+01-2.78661662D+00 2.66458404D+01
                -1.87360240D-10-3.69194022D-10 2.17855029D+01
 Full mass-weighted force constant matrix:
 Low frequencies ---   -2.4509   -0.0006   -0.0002    0.0007    4.7450    7.7691
 Low frequencies ---  247.6166  480.6604  712.1570
 Diagonal vibrational polarizability:
        4.3243488       3.1810479      54.1536479
 Harmonic frequencies (cm**-1), IR intensities (KM/Mole), Raman scattering
 activities (A**4/AMU), depolarization ratios for plane and unpolarized
 incident light, reduced masses (AMU), force constants (mDyne/A),
 and normal coordinates:
                      1                      2                      3
                      A                      A                      A
 Frequencies --    247.6165               480.6604               712.1570
 Red. masses --      1.1023                 2.2287                 1.4302
 Frc consts  --      0.0398                 0.3034                 0.4274
 IR Inten    --    112.5650                 4.4848                25.7012
  Atom  AN      X      Y      Z        X      Y      Z        X      Y      Z
     1   6     0.00   0.00   0.04     0.12  -0.11   0.00     0.00   0.00  -0.02
     2   6     0.00   0.00  -0.02     0.10   0.18   0.00     0.00   0.00   0.18
     3   1     0.00   0.00  -0.12    -0.33  -0.37   0.00     0.00   0.00  -0.85
     4   1     0.00   0.00   0.18     0.58  -0.40   0.00     0.00   0.00   0.36
     5   8     0.00   0.00  -0.07    -0.18   0.01   0.00     0.00   0.00  -0.06
     6   1     0.00   0.00  -0.13     0.18   0.12   0.00     0.00   0.00  -0.22
     7   1     0.00   0.00   0.96    -0.11  -0.32   0.00     0.00   0.00  -0.23
                      4                      5                      6
                      A                      A                      A
 Frequencies --    849.1433               955.6555               968.7315
 Red. masses --      1.4081                 1.8921                 1.1248
 Frc consts  --      0.5982                 1.0181                 0.6219
 IR Inten    --     69.4944                51.5951                27.5661
  Atom  AN      X      Y      Z        X      Y      Z        X      Y      Z
     1   6     0.00   0.00   0.17    -0.10   0.16   0.00     0.00   0.00  -0.01
     2   6     0.00   0.00  -0.08    -0.04   0.04   0.00     0.00   0.00   0.10
     3   1     0.00   0.00  -0.60    -0.75  -0.21   0.00     0.00   0.00   0.29
     4   1     0.00   0.00  -0.77     0.47  -0.21   0.00     0.00   0.00  -0.45
     5   8     0.00   0.00   0.01     0.11  -0.13   0.00     0.00   0.00  -0.01
     6   1     0.00   0.00   0.06     0.17  -0.09   0.00     0.00   0.00  -0.84
     7   1     0.00   0.00  -0.01     0.06   0.15   0.00     0.00   0.00   0.02
                      7                      8                      9
                      A                      A                      A
 Frequencies --   1140.0102              1285.6074              1344.5812
 Red. masses --      1.8110                 1.6416                 1.1667
 Frc consts  --      1.3867                 1.5986                 1.2428
 IR Inten    --     15.1233               234.0409                 1.2964
  Atom  AN      X      Y      Z        X      Y      Z        X      Y      Z
     1   6     0.09   0.06   0.00    -0.06   0.05   0.00    -0.06  -0.06   0.00
     2   6    -0.01  -0.20   0.00     0.04  -0.15   0.00     0.06   0.06   0.00
     3   1    -0.04  -0.04   0.00    -0.32  -0.09   0.00    -0.16  -0.10   0.00
     4   1     0.43  -0.15   0.00     0.04  -0.02   0.00    -0.44   0.16   0.00
     5   8    -0.08   0.09   0.00     0.01   0.14   0.00    -0.01   0.01   0.00
     6   1     0.21  -0.34   0.00     0.14  -0.21   0.00     0.74  -0.37   0.00
     7   1    -0.23   0.71   0.00     0.21  -0.85   0.00    -0.05   0.20   0.00
                     10                     11                     12
                      A                      A                      A
 Frequencies --   1430.8860              1715.2331              3138.2152
 Red. masses --      1.1828                 4.1206                 1.0822
 Frc consts  --      1.4268                 7.1427                 6.2793
 IR Inten    --      0.4039               119.4522                17.1137
  Atom  AN      X      Y      Z        X      Y      Z        X      Y      Z
     1   6     0.08   0.02   0.00     0.33  -0.01   0.00     0.02   0.00   0.00
     2   6     0.08  -0.05   0.00    -0.41   0.07   0.00     0.05   0.07   0.00
     3   1    -0.58  -0.35   0.00    -0.14  -0.33   0.00    -0.13   0.24   0.00
     4   1    -0.44   0.33   0.00    -0.16   0.36   0.00    -0.11  -0.18   0.00
     5   8    -0.03   0.00   0.00     0.05   0.00   0.00     0.00   0.00   0.00
     6   1    -0.37   0.24   0.00     0.28  -0.45   0.00    -0.50  -0.79   0.00
     7   1    -0.06   0.16   0.00     0.13  -0.37   0.00     0.01   0.01   0.00
                     13                     14                     15
                      A                      A                      A
 Frequencies --   3158.5740              3253.3601              3901.0306
 Red. masses --      1.0705                 1.1169                 1.0671
 Frc consts  --      6.2924                 6.9654                 9.5676
 IR Inten    --      0.9405                 4.2280                91.3106
  Atom  AN      X      Y      Z        X      Y      Z        X      Y      Z
     1   6     0.07   0.01   0.00    -0.01   0.10   0.00     0.00   0.00   0.00
     2   6    -0.03  -0.02   0.00     0.00   0.01   0.00     0.00   0.00   0.00
     3   1    -0.28   0.50   0.00     0.39  -0.67   0.00     0.00   0.00   0.00
     4   1    -0.39  -0.64   0.00    -0.33  -0.52   0.00     0.00   0.00   0.00
     5   8     0.00   0.00   0.00     0.00   0.00   0.00     0.06   0.01   0.00
     6   1     0.18   0.27   0.00    -0.05  -0.07   0.00    -0.01   0.00   0.00
     7   1     0.00  -0.01   0.00     0.00   0.00   0.00    -0.98  -0.21   0.00

 -------------------
 - Thermochemistry -
 -------------------
 Temperature   298.150 Kelvin.  Pressure   1.00000 Atm.
 Atom     1 has atomic number  6 and mass  12.00000
 Atom     2 has atomic number  6 and mass  12.00000
 Atom     3 has atomic number  1 and mass   1.00783
 Atom     4 has atomic number  1 and mass   1.00783
 Atom     5 has atomic number  8 and mass  15.99491
 Atom     6 has atomic number  1 and mass   1.00783
 Atom     7 has atomic number  1 and mass   1.00783
 Molecular mass:    44.02621 amu.
 Principal axes and moments of inertia in atomic units:
                           1         2         3
     Eigenvalues --    28.22782 173.37063 201.59845
           X            0.87836   0.47800   0.00000
           Y           -0.47800   0.87836   0.00000
           Z            0.00000   0.00000   1.00000
 This molecule is an asymmetric top.
 Rotational symmetry number  1.
 Rotational temperatures (Kelvin)      3.06839     0.49959     0.42964
 Rotational constants (GHZ):          63.93485    10.40973     8.95216
 Zero-point vibrational energy     147029.8 (Joules/Mol)
                                   35.14096 (Kcal/Mol)
 Warning -- explicit consideration of   2 degrees of freedom as
           vibrations may cause significant error
 Vibrational temperatures:    356.26   691.56  1024.63  1221.73  1374.97
          (Kelvin)           1393.79  1640.22  1849.70  1934.55  2058.72
                             2467.83  4515.19  4544.48  4680.85  5612.71
 
 Zero-point correction=                           0.056001 (Hartree/Particle)
 Thermal correction to Energy=                    0.059871
 Thermal correction to Enthalpy=                  0.060816
 Thermal correction to Gibbs Free Energy=         0.031333
 Sum of electronic and zero-point Energies=           -153.753897
 Sum of electronic and thermal Energies=              -153.750026
 Sum of electronic and thermal Enthalpies=            -153.749082
 Sum of electronic and thermal Free Energies=         -153.778564
 
                     E (Thermal)             CV                S
                      KCal/Mol        Cal/Mol-Kelvin    Cal/Mol-Kelvin
 Total                   37.570             11.902             62.051
 Electronic               0.000              0.000              0.000
 Translational            0.889              2.981             37.273
 Rotational               0.889              2.981             21.517
 Vibrational             35.792              5.941              3.262
 Vibration     1          0.661              1.767              1.747
 Vibration     2          0.837              1.293              0.708
                       Q            Log10(Q)             Ln(Q)
 Total Bot       0.387040D-14        -14.412244        -33.185418
 Total V=0       0.221938D+12         11.346231         26.125662
 Vib (Bot)       0.299790D-25        -25.523183        -58.769300
 Vib (Bot)    1  0.789088D+00         -0.102875         -0.236877
 Vib (Bot)    2  0.347755D+00         -0.458727         -1.056258
 Vib (V=0)       0.171906D+01          0.235292          0.541780
 Vib (V=0)    1  0.143416D+01          0.156598          0.360581
 Vib (V=0)    2  0.110904D+01          0.044948          0.103497
 Electronic      0.100000D+01          0.000000          0.000000
 Translational   0.114821D+08          7.060022         16.256302
 Rotational      0.112439D+05          4.050916          9.327580
 
                                                           a-fine-557-75-5
                                                             IR Spectrum
 
     3                     3 33                                              1        1  1 1   1                                     
     9                     2 11                                              7        4  3 2   1    99   8   7       4      2        
     0                     5 53                                              1        3  4 8   4    65   4   1       8      4        
     1                     3 98                                              5        1  5 6   0    96   9   2       1      8        
 
     X                     X XX                                              X        X  X X   X    XX   X   X       X      X        
     X                                                                       X             X        XX   X   X              X        
     X                                                                       X             X         X   X                  X        
     X                                                                       X             X         X   X                  X        
     X                                                                       X             X             X                  X        
     X                                                                       X             X             X                  X        
     X                                                                       X             X                                X        
     X                                                                       X             X                                X        
                                                                             X             X                                X        
                                                                             X             X                                X        
                                                                                           X                                         
                                                                                           X                                         
                                                                                           X                                         
                                                                                           X                                         
                                                                                           X                                         
                                                                                           X                                         
                                                                                           X                                         
                                                                                           X                                         
                                                                                           X                                         
                                                                                           X                                         
 
 -------------------------------------------------------------------
 Center     Atomic                   Forces (Hartrees/Bohr)
 Number     Number              X              Y              Z
 -------------------------------------------------------------------
      1        6           0.000010676   -0.000000265    0.000000000
      2        6          -0.000004317    0.000001975    0.000000000
      3        1           0.000000265   -0.000001173    0.000000000
      4        1          -0.000003607    0.000000243    0.000000000
      5        8           0.000000175   -0.000008392    0.000000000
      6        1          -0.000001021    0.000003664    0.000000000
      7        1          -0.000002171    0.000003948    0.000000000
 -------------------------------------------------------------------
 Cartesian Forces:  Max     0.000010676 RMS     0.000003494
 Force constants in Cartesian coordinates: 
                1             2             3             4             5 
      1  0.839903D+00
      2 -0.573327D-02  0.654836D+00
      3  0.000000D+00  0.000000D+00  0.858901D-01
      4 -0.540612D+00 -0.226104D-01  0.000000D+00  0.891443D+00
      5 -0.211483D-01 -0.110809D+00  0.000000D+00  0.463855D-01  0.606214D+00
      6  0.000000D+00  0.000000D+00 -0.507567D-01  0.000000D+00  0.000000D+00
      7 -0.122214D+00  0.120486D+00  0.000000D+00 -0.920473D-02  0.295401D-01
      8  0.127716D+00 -0.277591D+00  0.000000D+00 -0.478909D-02  0.103086D-02
      9  0.000000D+00  0.000000D+00 -0.231996D-01  0.000000D+00  0.000000D+00
     10 -0.132593D+00 -0.124349D+00  0.000000D+00 -0.119274D-01 -0.304376D-01
     11 -0.129485D+00 -0.262239D+00  0.000000D+00  0.254388D-02  0.184693D-02
     12  0.000000D+00  0.000000D+00 -0.303016D-01  0.000000D+00  0.000000D+00
     13 -0.346393D-01  0.551893D-01  0.000000D+00 -0.162862D+00  0.113768D+00
     14  0.249884D-01 -0.102377D-02  0.000000D+00  0.559902D-01 -0.259960D+00
     15  0.000000D+00  0.000000D+00  0.996054D-02  0.000000D+00  0.000000D+00
     16 -0.113214D-01 -0.278532D-01  0.000000D+00 -0.142545D+00 -0.126812D+00
     17  0.201427D-02  0.343067D-02  0.000000D+00 -0.123685D+00 -0.240967D+00
     18  0.000000D+00  0.000000D+00  0.708671D-02  0.000000D+00  0.000000D+00
     19  0.147761D-02  0.487061D-02  0.000000D+00 -0.242917D-01 -0.112957D-01
     20  0.164759D-02 -0.660496D-02  0.000000D+00  0.461647D-01  0.264439D-02
     21  0.000000D+00  0.000000D+00  0.132052D-02  0.000000D+00  0.000000D+00
                6             7             8             9            10 
      6  0.128131D+00
      7  0.000000D+00  0.127221D+00
      8  0.000000D+00 -0.135146D+00  0.287236D+00
      9 -0.277897D-02  0.000000D+00  0.000000D+00  0.197889D-01
     10  0.000000D+00  0.100005D-01  0.131245D-01  0.000000D+00  0.136035D+00
     11  0.000000D+00 -0.138015D-01 -0.137024D-01  0.000000D+00  0.140282D+00
     12  0.712117D-02  0.000000D+00  0.000000D+00  0.718929D-03  0.000000D+00
     13  0.000000D+00 -0.571409D-02 -0.105465D-02  0.000000D+00  0.281795D-02
     14  0.000000D+00 -0.232108D-02  0.208798D-02  0.000000D+00  0.416537D-03
     15 -0.351709D-01  0.000000D+00  0.000000D+00  0.865532D-02  0.000000D+00
     16  0.000000D+00  0.555885D-03  0.404470D-03  0.000000D+00 -0.496794D-02
     17  0.000000D+00 -0.252566D-03  0.772343D-03  0.000000D+00  0.892393D-03
     18 -0.403474D-01  0.000000D+00  0.000000D+00 -0.586600D-02  0.000000D+00
     19  0.000000D+00 -0.644958D-03 -0.255761D-03  0.000000D+00  0.635334D-03
     20  0.000000D+00  0.149520D-02  0.166182D-03  0.000000D+00  0.707118D-04
     21 -0.619864D-02  0.000000D+00  0.000000D+00  0.268146D-02  0.000000D+00
               11            12            13            14            15 
     11  0.272309D+00
     12  0.000000D+00  0.201433D-01
     13 -0.373565D-03  0.000000D+00  0.700209D+00
     14  0.503671D-03  0.000000D+00 -0.144416D-01  0.361230D+00
     15  0.000000D+00 -0.671584D-02  0.000000D+00  0.000000D+00  0.166824D-01
     16  0.752089D-03  0.000000D+00  0.746398D-02  0.250827D-01  0.000000D+00
     17  0.113497D-02  0.000000D+00 -0.509283D-02 -0.314384D-01  0.000000D+00
     18  0.000000D+00  0.100219D-01  0.000000D+00  0.000000D+00  0.596204D-02
     19  0.818933D-04  0.000000D+00 -0.507276D+00 -0.897152D-01  0.000000D+00
     20  0.146781D-03  0.000000D+00 -0.147995D+00 -0.713992D-01  0.000000D+00
     21  0.000000D+00 -0.987852D-03  0.000000D+00  0.000000D+00  0.626455D-03
               16            17            18            19            20 
     16  0.147020D+00
     17  0.127558D+00  0.266703D+00
     18  0.000000D+00  0.000000D+00  0.233013D-01
     19  0.379436D-02 -0.143435D-02  0.000000D+00  0.526305D+00
     20  0.868442D-03  0.364286D-03  0.000000D+00  0.977485D-01  0.746825D-01
     21  0.000000D+00  0.000000D+00 -0.158607D-03  0.000000D+00  0.000000D+00
               21 
     21  0.271666D-02
 FormGI is forming the generalized inverse of G from B-inverse, IUseBI=4.
 Force constants in internal coordinates: 
                1             2             3             4             5 
      1  0.613580D+00
      2  0.245951D-02  0.364277D+00
      3  0.445911D-02  0.960509D-03  0.360110D+00
      4  0.415631D-01 -0.946594D-03 -0.145820D-03  0.409284D+00
      5  0.608483D-02  0.717115D-03 -0.171311D-03  0.108514D-01  0.347749D+00
      6 -0.212441D-02 -0.353247D-04 -0.429989D-03 -0.318156D-02  0.948775D-03
      7  0.128989D-01  0.711161D-02 -0.124525D-01  0.602652D-02 -0.226636D-02
      8  0.681633D-02 -0.119885D-01  0.850641D-02 -0.463991D-02  0.350978D-02
      9 -0.197152D-01  0.487694D-02  0.394607D-02 -0.138661D-02 -0.124342D-02
     10  0.152027D-01  0.459452D-02 -0.477205D-02  0.340327D-01 -0.112664D-01
     11  0.748927D-02 -0.266505D-02  0.488445D-02 -0.434207D-01  0.732313D-02
     12 -0.226920D-01 -0.192948D-02 -0.112394D-03  0.938796D-02  0.394332D-02
     13  0.514147D-02  0.108427D-02  0.127447D-03  0.535733D-01 -0.104380D-02
     14  0.000000D+00  0.000000D+00  0.000000D+00  0.000000D+00  0.000000D+00
     15  0.000000D+00  0.000000D+00  0.000000D+00  0.000000D+00  0.000000D+00
     16  0.000000D+00  0.000000D+00  0.000000D+00  0.000000D+00  0.000000D+00
     17  0.000000D+00  0.000000D+00  0.000000D+00  0.000000D+00  0.000000D+00
     18  0.000000D+00  0.000000D+00  0.000000D+00  0.000000D+00  0.000000D+00
     19  0.000000D+00  0.000000D+00  0.000000D+00  0.000000D+00  0.000000D+00
                6             7             8             9            10 
      6  0.546433D+00
      7  0.828319D-03  0.734431D-01
      8 -0.905831D-03 -0.386900D-01  0.709801D-01
      9  0.775123D-04 -0.347531D-01 -0.322902D-01  0.670433D-01
     10  0.699886D-02  0.146826D-01 -0.146860D-01  0.335308D-05  0.136765D+00
     11  0.617632D-03 -0.108452D-01  0.133153D-01 -0.247005D-02 -0.595316D-01
     12 -0.761649D-02 -0.383741D-02  0.137072D-02  0.246670D-02 -0.772335D-01
     13  0.138056D-01  0.386316D-02 -0.216477D-02 -0.169839D-02  0.181798D-01
     14  0.000000D+00  0.000000D+00  0.000000D+00  0.000000D+00  0.000000D+00
     15  0.000000D+00  0.000000D+00  0.000000D+00  0.000000D+00  0.000000D+00
     16  0.000000D+00  0.000000D+00  0.000000D+00  0.000000D+00  0.000000D+00
     17  0.000000D+00  0.000000D+00  0.000000D+00  0.000000D+00  0.000000D+00
     18  0.000000D+00  0.000000D+00  0.000000D+00  0.000000D+00  0.000000D+00
     19  0.000000D+00  0.000000D+00  0.000000D+00  0.000000D+00  0.000000D+00
               11            12            13            14            15 
     11  0.951811D-01
     12 -0.356496D-01  0.112883D+00
     13 -0.846108D-02 -0.971871D-02  0.179319D+00
     14  0.000000D+00  0.000000D+00  0.000000D+00  0.281333D-01
     15  0.000000D+00  0.000000D+00  0.000000D+00  0.859949D-02  0.172104D-01
     16  0.000000D+00  0.000000D+00  0.000000D+00  0.928259D-02 -0.494105D-02
     17  0.000000D+00  0.000000D+00  0.000000D+00 -0.102512D-01  0.366982D-02
     18  0.000000D+00  0.000000D+00  0.000000D+00 -0.127598D-01  0.354354D-02
     19  0.000000D+00  0.000000D+00  0.000000D+00  0.564097D-02 -0.456786D-02
               16            17            18            19 
     16  0.225727D-01
     17  0.834904D-02  0.222701D-01
     18 -0.895895D-02  0.734439D-02  0.110959D-01
     19  0.443965D-02 -0.576918D-02 -0.426175D-02  0.535492D-02
 Leave Link  716 at Mon Sep 16 19:02:12 2013, MaxMem=   524288000 cpu:         0.3
 (Enter /opt/g09/l103.exe)

 GradGradGradGradGradGradGradGradGradGradGradGradGradGradGradGradGradGrad
 Berny optimization.
 Red2BG is reusing G-inverse.
 Internal  Forces:  Max     0.000007817 RMS     0.000003056
 Search for a local minimum.
 Step number   1 out of a maximum of    2
 All quantities printed in internal units (Hartrees-Bohrs-Radians)
 Second derivative matrix not updated -- analytic derivatives used.
 The second derivative matrix:
                          R1        R2        R3        R4        R5
           R1           0.61358
           R2           0.00246   0.36428
           R3           0.00446   0.00096   0.36011
           R4           0.04156  -0.00095  -0.00015   0.40928
           R5           0.00608   0.00072  -0.00017   0.01085   0.34775
           R6          -0.00212  -0.00004  -0.00043  -0.00318   0.00095
           A1           0.01290   0.00711  -0.01245   0.00603  -0.00227
           A2           0.00682  -0.01199   0.00851  -0.00464   0.00351
           A3          -0.01972   0.00488   0.00395  -0.00139  -0.00124
           A4           0.01520   0.00459  -0.00477   0.03403  -0.01127
           A5           0.00749  -0.00267   0.00488  -0.04342   0.00732
           A6          -0.02269  -0.00193  -0.00011   0.00939   0.00394
           A7           0.00514   0.00108   0.00013   0.05357  -0.00104
           D1           0.00000   0.00000   0.00000   0.00000   0.00000
           D2           0.00000   0.00000   0.00000   0.00000   0.00000
           D3           0.00000   0.00000   0.00000   0.00000   0.00000
           D4           0.00000   0.00000   0.00000   0.00000   0.00000
           D5           0.00000   0.00000   0.00000   0.00000   0.00000
           D6           0.00000   0.00000   0.00000   0.00000   0.00000
                          R6        A1        A2        A3        A4
           R6           0.54643
           A1           0.00083   0.07344
           A2          -0.00091  -0.03869   0.07098
           A3           0.00008  -0.03475  -0.03229   0.06704
           A4           0.00700   0.01468  -0.01469   0.00000   0.13677
           A5           0.00062  -0.01085   0.01332  -0.00247  -0.05953
           A6          -0.00762  -0.00384   0.00137   0.00247  -0.07723
           A7           0.01381   0.00386  -0.00216  -0.00170   0.01818
           D1           0.00000   0.00000   0.00000   0.00000   0.00000
           D2           0.00000   0.00000   0.00000   0.00000   0.00000
           D3           0.00000   0.00000   0.00000   0.00000   0.00000
           D4           0.00000   0.00000   0.00000   0.00000   0.00000
           D5           0.00000   0.00000   0.00000   0.00000   0.00000
           D6           0.00000   0.00000   0.00000   0.00000   0.00000
                          A5        A6        A7        D1        D2
           A5           0.09518
           A6          -0.03565   0.11288
           A7          -0.00846  -0.00972   0.17932
           D1           0.00000   0.00000   0.00000   0.02813
           D2           0.00000   0.00000   0.00000   0.00860   0.01721
           D3           0.00000   0.00000   0.00000   0.00928  -0.00494
           D4           0.00000   0.00000   0.00000  -0.01025   0.00367
           D5           0.00000   0.00000   0.00000  -0.01276   0.00354
           D6           0.00000   0.00000   0.00000   0.00564  -0.00457
                          D3        D4        D5        D6
           D3           0.02257
           D4           0.00835   0.02227
           D5          -0.00896   0.00734   0.01110
           D6           0.00444  -0.00577  -0.00426   0.00535
 ITU=  0
     Eigenvalues ---    0.00287   0.02539   0.03105   0.04733   0.09540
     Eigenvalues ---    0.10171   0.13326   0.16305   0.20870   0.34898
     Eigenvalues ---    0.36130   0.36540   0.42595   0.54731   0.62599
 Angle between quadratic step and forces=  31.70 degrees.
 Linear search not attempted -- first point.
 Iteration  1 RMS(Cart)=  0.00002915 RMS(Int)=  0.00000000
 Iteration  2 RMS(Cart)=  0.00000000 RMS(Int)=  0.00000000
 ITry= 1 IFail=0 DXMaxC= 6.87D-05 DCOld= 1.00D+10 DXMaxT= 3.00D-01 DXLimC= 3.00D+00 Rises=F
 Variable       Old X    -DE/DX   Delta X   Delta X   Delta X     New X
                                 (Linear)    (Quad)   (Total)
    R1        2.51745  -0.00001   0.00000  -0.00001  -0.00001   2.51743
    R2        2.04571   0.00000   0.00000   0.00000   0.00000   2.04571
    R3        2.04954   0.00000   0.00000   0.00000   0.00000   2.04954
    R4        2.58324   0.00000   0.00000   0.00001   0.00001   2.58325
    R5        2.05779   0.00000   0.00000   0.00001   0.00001   2.05780
    R6        1.81304   0.00000   0.00000   0.00000   0.00000   1.81304
    A1        2.08827   0.00000   0.00000  -0.00001  -0.00001   2.08826
    A2        2.12017   0.00000   0.00000   0.00004   0.00004   2.12021
    A3        2.07475   0.00000   0.00000  -0.00003  -0.00003   2.07472
    A4        2.13513   0.00000   0.00000   0.00001   0.00001   2.13514
    A5        2.12823   0.00000   0.00000  -0.00003  -0.00003   2.12821
    A6        2.01983   0.00000   0.00000   0.00002   0.00002   2.01984
    A7        1.91258  -0.00001   0.00000  -0.00005  -0.00005   1.91253
    D1        3.14159   0.00000   0.00000   0.00000   0.00000   3.14159
    D2        0.00000   0.00000   0.00000   0.00000   0.00000   0.00000
    D3        0.00000   0.00000   0.00000   0.00000   0.00000   0.00000
    D4        3.14159   0.00000   0.00000   0.00000   0.00000   3.14159
    D5        3.14159   0.00000   0.00000   0.00000   0.00000   3.14159
    D6        0.00000   0.00000   0.00000   0.00000   0.00000   0.00000
         Item               Value     Threshold  Converged?
 Maximum Force            0.000008     0.000015     YES
 RMS     Force            0.000003     0.000010     YES
 Maximum Displacement     0.000069     0.000060     NO 
 RMS     Displacement     0.000029     0.000040     YES
 Predicted change in Energy=-4.591175D-10
 GradGradGradGradGradGradGradGradGradGradGradGradGradGradGradGradGradGrad

 Leave Link  103 at Mon Sep 16 19:02:12 2013, MaxMem=   524288000 cpu:         0.0
 (Enter /opt/g09/l9999.exe)
 1\1\GINC-MANET\Freq\RB971\6-311+G(d,p)\C2H4O1\PB556\16-Sep-2013\0\\#P 
 Geom=AllCheck Guess=TCheck SCRF=Check GenChk RB971/6-311+G(d,p) Freq\\
 a-fine-557-75-5\\0,1\C,-0.01341,-0.00196,0.\C,1.31876,-0.00571,0.\H,-0
 .54628,0.94035,0.\H,-0.58232,-0.92534,0.\O,2.04664,-1.1628,0.\H,1.8974
 2,0.91675,0.\H,2.98299,-0.95368,0.\\Version=ES64L-G09RevD.01\HF=-153.8
 098977\RMSD=1.238e-09\RMSF=3.494e-06\ZeroPoint=0.0560007\Thermal=0.059
 8714\Dipole=0.6170528,0.4735135,0.\DipoleDeriv=-0.4986364,0.1736188,0.
 ,0.0121204,-0.0142747,0.,0.,0.,-0.4354419,1.0343905,-0.453745,0.,-0.77
 87299,0.7436463,0.,0.,0.,-0.0992813,0.0455268,0.0247625,0.,0.0537795,-
 0.0341002,0.,0.,0.,0.1795708,0.0463532,-0.0319196,0.,-0.0562277,-0.029
 4846,0.,0.,0.,0.1887289,-0.8956889,0.4109945,0.,0.874055,-0.8227935,0.
 ,0.,0.,-0.3812226,-0.0242882,-0.0674676,0.,-0.0303213,-0.0869879,0.,0.
 ,0.,0.1785175,0.292343,-0.0562436,0.,-0.0746759,0.2439946,0.,0.,0.,0.3
 691286\Polar=42.295529,-2.7866166,26.6458404,0.,0.,21.7855029\PG=CS [S
 G(C2H4O1)]\NImag=0\\0.83990257,-0.00573327,0.65483613,0.,0.,0.08589015
 ,-0.54061227,-0.02261042,0.,0.89144285,-0.02114835,-0.11080895,0.,0.04
 638549,0.60621421,0.,0.,-0.05075670,0.,0.,0.12813140,-0.12221397,0.120
 48574,0.,-0.00920473,0.02954007,0.,0.12722135,0.12771645,-0.27759060,0
 .,-0.00478909,0.00103086,0.,-0.13514591,0.28723560,0.,0.,-0.02319962,0
 .,0.,-0.00277897,0.,0.,0.01978888,-0.13259324,-0.12434877,0.,-0.011927
 38,-0.03043763,0.,0.01000051,0.01312449,0.,0.13603476,-0.12948512,-0.2
 6223853,0.,0.00254388,0.00184693,0.,-0.01380145,-0.01370236,0.,0.14028
 228,0.27230855,0.,0.,-0.03030160,0.,0.,0.00712117,0.,0.,0.00071893,0.,
 0.,0.02014325,-0.03463934,0.05518930,0.,-0.16286216,0.11376848,0.,-0.0
 0571409,-0.00105465,0.,0.00281795,-0.00037357,0.,0.70020926,0.02498843
 ,-0.00102377,0.,0.05599022,-0.25996008,0.,-0.00232108,0.00208798,0.,0.
 00041654,0.00050367,0.,-0.01444158,0.36122977,0.,0.,0.00996054,0.,0.,-
 0.03517088,0.,0.,0.00865532,0.,0.,-0.00671584,0.,0.,0.01668236,-0.0113
 2137,-0.02785319,0.,-0.14254462,-0.12681238,0.,0.00055588,0.00040447,0
 .,-0.00496794,0.00075209,0.,0.00746398,0.02508268,0.,0.14701970,0.0020
 1427,0.00343067,0.,-0.12368480,-0.24096737,0.,-0.00025257,0.00077234,0
 .,0.00089239,0.00113497,0.,-0.00509283,-0.03143836,0.,0.12755788,0.266
 70347,0.,0.,0.00708671,0.,0.,-0.04034738,0.,0.,-0.00586600,0.,0.,0.010
 02194,0.,0.,0.00596204,0.,0.,0.02330129,0.00147761,0.00487061,0.,-0.02
 429169,-0.01129567,0.,-0.00064496,-0.00025576,0.,0.00063533,0.00008189
 ,0.,-0.50727560,-0.08971521,0.,0.00379436,-0.00143435,0.,0.52630495,0.
 00164759,-0.00660496,0.,0.04616471,0.00264439,0.,0.00149520,0.00016618
 ,0.,0.00007071,0.00014678,0.,-0.14799515,-0.07139922,0.,0.00086844,0.0
 0036429,0.,0.09774849,0.07468254,0.,0.,0.00132052,0.,0.,-0.00619864,0.
 ,0.,0.00268146,0.,0.,-0.00098785,0.,0.,0.00062646,0.,0.,-0.00015861,0.
 ,0.,0.00271666\\-0.00001068,0.00000026,0.,0.00000432,-0.00000197,0.,-0
 .00000026,0.00000117,0.,0.00000361,-0.00000024,0.,-0.00000018,0.000008
 39,0.,0.00000102,-0.00000366,0.,0.00000217,-0.00000395,0.\\\@


 ERROR IS THE FORCE THAT WELDS MEN TOGETHER....
 TRUTH IS COMMUNICATED TO MEN ONLY BY DEEDS OF TRUTH.
           TOLSTOI,MY RELIGION
 Job cpu time:       0 days  0 hours  3 minutes 34.0 seconds.
 File lengths (MBytes):  RWF=     10 Int=      0 D2E=      0 Chk=      2 Scr=      1
 Normal termination of Gaussian 09 at Mon Sep 16 19:02:12 2013.
