 Entering Gaussian System, Link 0=g09
 Input=a-freq-fine-64-17-5.gau
 Output=a-freq-fine-64-17-5.log
 Initial command:
 /opt/g09/l1.exe "/scratch/pb556/g09_runs//Gau-5656.inp" -scrdir="/scratch/pb556/g09_runs//"
 Entering Link 1 = /opt/g09/l1.exe PID=      5665.
  
 Copyright (c) 1988,1990,1992,1993,1995,1998,2003,2009,2013,
            Gaussian, Inc.  All Rights Reserved.
  
 This is part of the Gaussian(R) 09 program.  It is based on
 the Gaussian(R) 03 system (copyright 2003, Gaussian, Inc.),
 the Gaussian(R) 98 system (copyright 1998, Gaussian, Inc.),
 the Gaussian(R) 94 system (copyright 1995, Gaussian, Inc.),
 the Gaussian 92(TM) system (copyright 1992, Gaussian, Inc.),
 the Gaussian 90(TM) system (copyright 1990, Gaussian, Inc.),
 the Gaussian 88(TM) system (copyright 1988, Gaussian, Inc.),
 the Gaussian 86(TM) system (copyright 1986, Carnegie Mellon
 University), and the Gaussian 82(TM) system (copyright 1983,
 Carnegie Mellon University). Gaussian is a federally registered
 trademark of Gaussian, Inc.
  
 This software contains proprietary and confidential information,
 including trade secrets, belonging to Gaussian, Inc.
  
 This software is provided under written license and may be
 used, copied, transmitted, or stored only in accord with that
 written license.
  
 The following legend is applicable only to US Government
 contracts under FAR:
  
                    RESTRICTED RIGHTS LEGEND
  
 Use, reproduction and disclosure by the US Government is
 subject to restrictions as set forth in subparagraphs (a)
 and (c) of the Commercial Computer Software - Restricted
 Rights clause in FAR 52.227-19.
  
 Gaussian, Inc.
 340 Quinnipiac St., Bldg. 40, Wallingford CT 06492
  
  
 ---------------------------------------------------------------
 Warning -- This program may not be used in any manner that
 competes with the business of Gaussian, Inc. or will provide
 assistance to any competitor of Gaussian, Inc.  The licensee
 of this program is prohibited from giving any competitor of
 Gaussian, Inc. access to this program.  By using this program,
 the user acknowledges that Gaussian, Inc. is engaged in the
 business of creating and licensing software in the field of
 computational chemistry and represents and warrants to the
 licensee that it is not a competitor of Gaussian, Inc. and that
 it will not use this program in any manner prohibited above.
 ---------------------------------------------------------------
  

 Cite this work as:
 Gaussian 09, Revision D.01,
 M. J. Frisch, G. W. Trucks, H. B. Schlegel, G. E. Scuseria, 
 M. A. Robb, J. R. Cheeseman, G. Scalmani, V. Barone, B. Mennucci, 
 G. A. Petersson, H. Nakatsuji, M. Caricato, X. Li, H. P. Hratchian, 
 A. F. Izmaylov, J. Bloino, G. Zheng, J. L. Sonnenberg, M. Hada, 
 M. Ehara, K. Toyota, R. Fukuda, J. Hasegawa, M. Ishida, T. Nakajima, 
 Y. Honda, O. Kitao, H. Nakai, T. Vreven, J. A. Montgomery, Jr., 
 J. E. Peralta, F. Ogliaro, M. Bearpark, J. J. Heyd, E. Brothers, 
 K. N. Kudin, V. N. Staroverov, T. Keith, R. Kobayashi, J. Normand, 
 K. Raghavachari, A. Rendell, J. C. Burant, S. S. Iyengar, J. Tomasi, 
 M. Cossi, N. Rega, J. M. Millam, M. Klene, J. E. Knox, J. B. Cross, 
 V. Bakken, C. Adamo, J. Jaramillo, R. Gomperts, R. E. Stratmann, 
 O. Yazyev, A. J. Austin, R. Cammi, C. Pomelli, J. W. Ochterski, 
 R. L. Martin, K. Morokuma, V. G. Zakrzewski, G. A. Voth, 
 P. Salvador, J. J. Dannenberg, S. Dapprich, A. D. Daniels, 
 O. Farkas, J. B. Foresman, J. V. Ortiz, J. Cioslowski, 
 and D. J. Fox, Gaussian, Inc., Wallingford CT, 2013.
 
 ******************************************
 Gaussian 09:  ES64L-G09RevD.01 24-Apr-2013
                16-Sep-2013 
 ******************************************
 %NProcShared=8
 Will use up to    8 processors via shared memory.
 %Mem=500MW
 ----------------------------------------------------------------------
 #p rB971/6-311+G(d,p) Opt=(Tight, NewEstmFC, MaxCyc=400) Freq GFInput 
 Population=None Integral(Grid=UltraFine) SCF=(MaxCyc=400, XQC) Guess=M
 ix NoSymmetry
 ----------------------------------------------------------------------
 1/6=400,7=10,10=7,14=-1,18=20,19=15,26=4,38=1/1,3;
 2/9=110,12=2,15=1,17=6,18=5,40=1/2;
 3/5=4,6=6,7=111,11=2,16=1,24=10,25=1,30=1,71=1,74=-20,75=-5,116=1/1,2,3;
 4/13=-1/1;
 5/5=2,7=400,8=3,13=1,38=5/2,8;
 7/29=1,30=1/1,2,3,16;
 1/6=400,7=10,10=7,14=-1,18=20,19=15,26=4/3(2);
 2/9=110,15=1/2;
 99//99;
 2/9=110,15=1/2;
 3/5=4,6=6,7=111,11=2,16=1,25=1,30=1,71=1,74=-20,75=-5,116=1/1,2,3;
 4/5=5,16=3,69=1/1;
 5/5=2,7=400,8=3,13=1,38=5/2,8;
 7/30=1/1,2,3,16;
 1/6=400,7=10,14=-1,18=20,19=15,26=4/3(-5);
 2/9=110,15=1/2;
 99/9=1/99;
 Leave Link    1 at Mon Sep 16 07:21:36 2013, MaxMem=   524288000 cpu:         0.6
 (Enter /opt/g09/l101.exe)
 --------------
 a-fine-64-17-5
 --------------
 Symbolic Z-matrix:
 Charge =  0 Multiplicity = 1
 C                     1.01959   0.88434   0.97338 
 C                     1.87547   1.99049   1.5708 
 H                    -0.00765   1.23401   0.825 
 H                     0.9989    0.01532   1.63818 
 H                     1.42294   0.56858   0.00634 
 O                     3.19792   1.48117   1.74171 
 H                     1.88215   2.86471   0.90197 
 H                     1.45722   2.31018   2.53749 
 H                     3.74725   2.173     2.11892 
 
 NAtoms=      9 NQM=        9 NQMF=       0 NMMI=      0 NMMIF=      0
                NMic=       0 NMicF=      0.
                    Isotopes and Nuclear Properties:
 (Nuclear quadrupole moments (NQMom) in fm**2, nuclear magnetic moments (NMagM)
  in nuclear magnetons)

  Atom         1           2           3           4           5           6           7           8           9
 IAtWgt=          12          12           1           1           1          16           1           1           1
 AtmWgt=  12.0000000  12.0000000   1.0078250   1.0078250   1.0078250  15.9949146   1.0078250   1.0078250   1.0078250
 NucSpn=           0           0           1           1           1           0           1           1           1
 AtZEff=   0.0000000   0.0000000   0.0000000   0.0000000   0.0000000   0.0000000   0.0000000   0.0000000   0.0000000
 NQMom=    0.0000000   0.0000000   0.0000000   0.0000000   0.0000000   0.0000000   0.0000000   0.0000000   0.0000000
 NMagM=    0.0000000   0.0000000   2.7928460   2.7928460   2.7928460   0.0000000   2.7928460   2.7928460   2.7928460
 AtZNuc=   6.0000000   6.0000000   1.0000000   1.0000000   1.0000000   8.0000000   1.0000000   1.0000000   1.0000000
 Leave Link  101 at Mon Sep 16 07:21:36 2013, MaxMem=   524288000 cpu:         1.9
 (Enter /opt/g09/l103.exe)

 GradGradGradGradGradGradGradGradGradGradGradGradGradGradGradGradGradGrad
 Berny optimization.
 Initialization pass.
                           ----------------------------
                           !    Initial Parameters    !
                           ! (Angstroms and Degrees)  !
 --------------------------                            --------------------------
 ! Name  Definition              Value          Derivative Info.                !
 --------------------------------------------------------------------------------
 ! R1    R(1,2)                  1.5209         estimate D2E/DX2                !
 ! R2    R(1,3)                  1.0952         estimate D2E/DX2                !
 ! R3    R(1,4)                  1.0943         estimate D2E/DX2                !
 ! R4    R(1,5)                  1.0943         estimate D2E/DX2                !
 ! R5    R(2,6)                  1.4274         estimate D2E/DX2                !
 ! R6    R(2,7)                  1.1007         estimate D2E/DX2                !
 ! R7    R(2,8)                  1.1007         estimate D2E/DX2                !
 ! R8    R(6,9)                  0.9606         estimate D2E/DX2                !
 ! A1    A(2,1,3)              110.4163         estimate D2E/DX2                !
 ! A2    A(2,1,4)              110.4613         estimate D2E/DX2                !
 ! A3    A(2,1,5)              110.4607         estimate D2E/DX2                !
 ! A4    A(3,1,4)              108.5482         estimate D2E/DX2                !
 ! A5    A(3,1,5)              108.5484         estimate D2E/DX2                !
 ! A6    A(4,1,5)              108.3405         estimate D2E/DX2                !
 ! A7    A(1,2,6)              107.9928         estimate D2E/DX2                !
 ! A8    A(1,2,7)              110.0217         estimate D2E/DX2                !
 ! A9    A(1,2,8)              110.0222         estimate D2E/DX2                !
 ! A10   A(6,2,7)              110.5188         estimate D2E/DX2                !
 ! A11   A(6,2,8)              110.5185         estimate D2E/DX2                !
 ! A12   A(7,2,8)              107.774          estimate D2E/DX2                !
 ! A13   A(2,6,9)              108.6546         estimate D2E/DX2                !
 ! D1    D(3,1,2,6)           -179.9979         estimate D2E/DX2                !
 ! D2    D(3,1,2,7)            -59.2945         estimate D2E/DX2                !
 ! D3    D(3,1,2,8)             59.2988         estimate D2E/DX2                !
 ! D4    D(4,1,2,6)             59.9252         estimate D2E/DX2                !
 ! D5    D(4,1,2,7)           -179.3714         estimate D2E/DX2                !
 ! D6    D(4,1,2,8)            -60.7781         estimate D2E/DX2                !
 ! D7    D(5,1,2,6)            -59.9212         estimate D2E/DX2                !
 ! D8    D(5,1,2,7)             60.7822         estimate D2E/DX2                !
 ! D9    D(5,1,2,8)            179.3755         estimate D2E/DX2                !
 ! D10   D(1,2,6,9)            179.9951         estimate D2E/DX2                !
 ! D11   D(7,2,6,9)             59.6028         estimate D2E/DX2                !
 ! D12   D(8,2,6,9)            -59.6122         estimate D2E/DX2                !
 --------------------------------------------------------------------------------
 Trust Radius=3.00D-01 FncErr=1.00D-07 GrdErr=1.00D-06
 Number of steps in this run=    100 maximum allowed number of steps=    100.
 GradGradGradGradGradGradGradGradGradGradGradGradGradGradGradGradGradGrad

 Leave Link  103 at Mon Sep 16 07:21:36 2013, MaxMem=   524288000 cpu:         0.1
 (Enter /opt/g09/l202.exe)
                          Input orientation:                          
 ---------------------------------------------------------------------
 Center     Atomic      Atomic             Coordinates (Angstroms)
 Number     Number       Type             X           Y           Z
 ---------------------------------------------------------------------
      1          6           0        1.019590    0.884340    0.973380
      2          6           0        1.875470    1.990490    1.570800
      3          1           0       -0.007650    1.234010    0.825000
      4          1           0        0.998900    0.015320    1.638180
      5          1           0        1.422940    0.568580    0.006340
      6          8           0        3.197920    1.481170    1.741710
      7          1           0        1.882150    2.864710    0.901970
      8          1           0        1.457220    2.310180    2.537490
      9          1           0        3.747250    2.173000    2.118920
 ---------------------------------------------------------------------
                    Distance matrix (angstroms):
                    1          2          3          4          5
     1  C    0.000000
     2  C    1.520858   0.000000
     3  H    1.095220   2.162087   0.000000
     4  H    1.094341   2.161992   1.777529   0.000000
     5  H    1.094332   2.161977   1.777523   1.774488   0.000000
     6  O    2.385720   1.427407   3.343221   2.644830   2.644784
     7  H    2.161244   1.100745   2.497289   3.072647   2.507038
     8  H    2.161245   1.100738   2.497320   2.507030   3.072632
     9  H    3.226924   1.958904   4.081079   3.527056   3.526978
                    6          7          8          9
     6  O    0.000000
     7  H    2.085808   0.000000
     8  H    2.085800   1.778481   0.000000
     9  H    0.960562   2.331958   2.332007   0.000000
 Symmetry turned off by external request.
 Stoichiometry    C2H6O
 Framework group  C1[X(C2H6O)]
 Deg. of freedom    21
 Full point group                 C1      NOp   1
 Rotational constants (GHZ):     35.0714835      9.3119604      8.1093141
 Leave Link  202 at Mon Sep 16 07:21:36 2013, MaxMem=   524288000 cpu:         0.3
 (Enter /opt/g09/l301.exe)
 Standard basis: 6-311+G(d,p) (5D, 7F)
 Ernie: Thresh=  0.10000D-02 Tol=  0.10000D-05 Strict=F.
 AO basis set in the form of general basis input (Overlap normalization):
      1 0
 S   6 1.00       0.000000000000
      0.4563240000D+04  0.1966650249D-02
      0.6820240000D+03  0.1523060193D-01
      0.1549730000D+03  0.7612690966D-01
      0.4445530000D+02  0.2608010331D+00
      0.1302900000D+02  0.6164620782D+00
      0.1827730000D+01  0.2210060280D+00
 SP   3 1.00       0.000000000000
      0.2096420000D+02  0.1146600807D+00  0.4024869267D-01
      0.4803310000D+01  0.9199996477D+00  0.2375939567D+00
      0.1459330000D+01 -0.3030682134D-02  0.8158538515D+00
 SP   1 1.00       0.000000000000
      0.4834560000D+00  0.1000000000D+01  0.1000000000D+01
 SP   1 1.00       0.000000000000
      0.1455850000D+00  0.1000000000D+01  0.1000000000D+01
 SP   1 1.00       0.000000000000
      0.4380000000D-01  0.1000000000D+01  0.1000000000D+01
 D   1 1.00       0.000000000000
      0.6260000000D+00  0.1000000000D+01
 ****
      2 0
 S   6 1.00       0.000000000000
      0.4563240000D+04  0.1966650249D-02
      0.6820240000D+03  0.1523060193D-01
      0.1549730000D+03  0.7612690966D-01
      0.4445530000D+02  0.2608010331D+00
      0.1302900000D+02  0.6164620782D+00
      0.1827730000D+01  0.2210060280D+00
 SP   3 1.00       0.000000000000
      0.2096420000D+02  0.1146600807D+00  0.4024869267D-01
      0.4803310000D+01  0.9199996477D+00  0.2375939567D+00
      0.1459330000D+01 -0.3030682134D-02  0.8158538515D+00
 SP   1 1.00       0.000000000000
      0.4834560000D+00  0.1000000000D+01  0.1000000000D+01
 SP   1 1.00       0.000000000000
      0.1455850000D+00  0.1000000000D+01  0.1000000000D+01
 SP   1 1.00       0.000000000000
      0.4380000000D-01  0.1000000000D+01  0.1000000000D+01
 D   1 1.00       0.000000000000
      0.6260000000D+00  0.1000000000D+01
 ****
      3 0
 S   3 1.00       0.000000000000
      0.3386500000D+02  0.2549381454D-01
      0.5094790000D+01  0.1903731086D+00
      0.1158790000D+01  0.8521614860D+00
 S   1 1.00       0.000000000000
      0.3258400000D+00  0.1000000000D+01
 S   1 1.00       0.000000000000
      0.1027410000D+00  0.1000000000D+01
 P   1 1.00       0.000000000000
      0.7500000000D+00  0.1000000000D+01
 ****
      4 0
 S   3 1.00       0.000000000000
      0.3386500000D+02  0.2549381454D-01
      0.5094790000D+01  0.1903731086D+00
      0.1158790000D+01  0.8521614860D+00
 S   1 1.00       0.000000000000
      0.3258400000D+00  0.1000000000D+01
 S   1 1.00       0.000000000000
      0.1027410000D+00  0.1000000000D+01
 P   1 1.00       0.000000000000
      0.7500000000D+00  0.1000000000D+01
 ****
      5 0
 S   3 1.00       0.000000000000
      0.3386500000D+02  0.2549381454D-01
      0.5094790000D+01  0.1903731086D+00
      0.1158790000D+01  0.8521614860D+00
 S   1 1.00       0.000000000000
      0.3258400000D+00  0.1000000000D+01
 S   1 1.00       0.000000000000
      0.1027410000D+00  0.1000000000D+01
 P   1 1.00       0.000000000000
      0.7500000000D+00  0.1000000000D+01
 ****
      6 0
 S   6 1.00       0.000000000000
      0.8588500000D+04  0.1895150083D-02
      0.1297230000D+04  0.1438590063D-01
      0.2992960000D+03  0.7073200310D-01
      0.8737710000D+02  0.2400010105D+00
      0.2567890000D+02  0.5947970261D+00
      0.3740040000D+01  0.2808020123D+00
 SP   3 1.00       0.000000000000
      0.4211750000D+02  0.1138890124D+00  0.3651139738D-01
      0.9628370000D+01  0.9208111006D+00  0.2371529830D+00
      0.2853320000D+01 -0.3274470358D-02  0.8197019412D+00
 SP   1 1.00       0.000000000000
      0.9056610000D+00  0.1000000000D+01  0.1000000000D+01
 SP   1 1.00       0.000000000000
      0.2556110000D+00  0.1000000000D+01  0.1000000000D+01
 SP   1 1.00       0.000000000000
      0.8450000000D-01  0.1000000000D+01  0.1000000000D+01
 D   1 1.00       0.000000000000
      0.1292000000D+01  0.1000000000D+01
 ****
      7 0
 S   3 1.00       0.000000000000
      0.3386500000D+02  0.2549381454D-01
      0.5094790000D+01  0.1903731086D+00
      0.1158790000D+01  0.8521614860D+00
 S   1 1.00       0.000000000000
      0.3258400000D+00  0.1000000000D+01
 S   1 1.00       0.000000000000
      0.1027410000D+00  0.1000000000D+01
 P   1 1.00       0.000000000000
      0.7500000000D+00  0.1000000000D+01
 ****
      8 0
 S   3 1.00       0.000000000000
      0.3386500000D+02  0.2549381454D-01
      0.5094790000D+01  0.1903731086D+00
      0.1158790000D+01  0.8521614860D+00
 S   1 1.00       0.000000000000
      0.3258400000D+00  0.1000000000D+01
 S   1 1.00       0.000000000000
      0.1027410000D+00  0.1000000000D+01
 P   1 1.00       0.000000000000
      0.7500000000D+00  0.1000000000D+01
 ****
      9 0
 S   3 1.00       0.000000000000
      0.3386500000D+02  0.2549381454D-01
      0.5094790000D+01  0.1903731086D+00
      0.1158790000D+01  0.8521614860D+00
 S   1 1.00       0.000000000000
      0.3258400000D+00  0.1000000000D+01
 S   1 1.00       0.000000000000
      0.1027410000D+00  0.1000000000D+01
 P   1 1.00       0.000000000000
      0.7500000000D+00  0.1000000000D+01
 ****

   102 basis functions,   156 primitive gaussians,   105 cartesian basis functions
    13 alpha electrons       13 beta electrons
       nuclear repulsion energy        81.5863692560 Hartrees.
 IExCor= 1614 DFT=T Ex+Corr=B971 ExCW=0 ScaHFX=  0.210000
 ScaDFX=  1.000000  1.000000  1.000000  1.000000 ScalE2=  1.000000  1.000000
 IRadAn=      5 IRanWt=     -1 IRanGd=            0 ICorTp=0 IEmpDi=  4
 NAtoms=    9 NActive=    9 NUniq=    9 SFac= 1.00D+00 NAtFMM=   60 NAOKFM=F Big=F
 Integral buffers will be    131072 words long.
 Raffenetti 2 integral format.
 Two-electron integral symmetry is turned off.
 Leave Link  301 at Mon Sep 16 07:21:36 2013, MaxMem=   524288000 cpu:         0.4
 (Enter /opt/g09/l302.exe)
 NPDir=0 NMtPBC=     1 NCelOv=     1 NCel=       1 NClECP=     1 NCelD=      1
         NCelK=      1 NCelE2=     1 NClLst=     1 CellRange=     0.0.
 One-electron integrals computed using PRISM.
 NBasis=   102 RedAO= T EigKep=  1.31D-04  NBF=   102
 NBsUse=   102 1.00D-06 EigRej= -1.00D+00 NBFU=   102
 Precomputing XC quadrature grid using
 IXCGrd= 4 IRadAn=           5 IRanWt=          -1 IRanGd=           0 AccXCQ= 0.00D+00.
 Generated NRdTot=       0 NPtTot=           0 NUsed=           0 NTot=          32
 NSgBfM=   105   105   105   105   105 MxSgAt=     9 MxSgA2=     9.
 Leave Link  302 at Mon Sep 16 07:21:36 2013, MaxMem=   524288000 cpu:         1.6
 (Enter /opt/g09/l303.exe)
 DipDrv:  MaxL=1.
 Leave Link  303 at Mon Sep 16 07:21:36 2013, MaxMem=   524288000 cpu:         0.3
 (Enter /opt/g09/l401.exe)
 ExpMin= 4.38D-02 ExpMax= 8.59D+03 ExpMxC= 1.30D+03 IAcc=3 IRadAn=         5 AccDes= 0.00D+00
 Harris functional with IExCor= 1614 and IRadAn=       5 diagonalized for initial guess.
 HarFok:  IExCor= 1614 AccDes= 0.00D+00 IRadAn=         5 IDoV= 1 UseB2=F ITyADJ=14
 ICtDFT=  3500011 ScaDFX=  1.000000  1.000000  1.000000  1.000000
 FoFCou: FMM=F IPFlag=           0 FMFlag=      100000 FMFlg1=           0
         NFxFlg=           0 DoJE=T BraDBF=F KetDBF=T FulRan=T
         wScrn=  0.000000 ICntrl=     500 IOpCl=  0 I1Cent=   200000004 NGrid=           0
         NMat0=    1 NMatS0=      1 NMatT0=    0 NMatD0=    1 NMtDS0=    0 NMtDT0=    0
 Symmetry not used in FoFCou.
 Harris En= -150.776386220632    
 JPrj=0 DoOrth=F DoCkMO=T.
 Mixing orbitals, IMix= 1 IMixAn=  0 NRI=1 NE=   13 Coef=  7.07106781D-01  7.07106781D-01
 Leave Link  401 at Mon Sep 16 07:21:37 2013, MaxMem=   524288000 cpu:         4.4
 (Enter /opt/g09/l502.exe)
 Closed shell SCF:
 Using DIIS extrapolation, IDIIS=  1040.
 Two-electron integral symmetry not used.
 Keep R1 ints in memory in canonical form, NReq=14782490.
 IVT=       53113 IEndB=       53113 NGot=   524288000 MDV=   510435257
 LenX=   510435257 LenY=   510423791
 Requested convergence on RMS density matrix=1.00D-08 within 128 cycles.
 Requested convergence on MAX density matrix=1.00D-06.
 Requested convergence on             energy=1.00D-06.
 No special actions if energy rises.
 FoFCou: FMM=F IPFlag=           0 FMFlag=           0 FMFlg1=           0
         NFxFlg=           0 DoJE=F BraDBF=F KetDBF=F FulRan=T
         wScrn=  0.000000 ICntrl=     600 IOpCl=  0 I1Cent=           0 NGrid=           0
         NMat0=    1 NMatS0=   5253 NMatT0=    0 NMatD0=    1 NMtDS0=    0 NMtDT0=    0
 Symmetry not used in FoFCou.

 Cycle   1  Pass 1  IDiag  1:
 E= -154.596918296210    
 DIIS: error= 8.84D-02 at cycle   1 NSaved=   1.
 NSaved= 1 IEnMin= 1 EnMin= -154.596918296210     IErMin= 1 ErrMin= 8.84D-02
 ErrMax= 8.84D-02  0.00D+00 EMaxC= 1.00D-01 BMatC= 4.83D-01 BMatP= 4.83D-01
 IDIUse=3 WtCom= 1.16D-01 WtEn= 8.84D-01
 Coeff-Com:  0.100D+01
 Coeff-En:   0.100D+01
 Coeff:      0.100D+01
 Gap=     0.039 Goal=   None    Shift=    0.000
 GapD=    0.039 DampG=0.250 DampE=0.500 DampFc=0.2500 IDamp=-1.
 Damping current iteration by 2.50D-01
 RMSDP=3.51D-02 MaxDP=1.82D+00              OVMax= 5.25D-01

 Cycle   2  Pass 1  IDiag  1:
 E= -154.742064512818     Delta-E=       -0.145146216608 Rises=F Damp=T
 DIIS: error= 6.26D-02 at cycle   2 NSaved=   2.
 NSaved= 2 IEnMin= 2 EnMin= -154.742064512818     IErMin= 2 ErrMin= 6.26D-02
 ErrMax= 6.26D-02  0.00D+00 EMaxC= 1.00D-01 BMatC= 1.64D-01 BMatP= 4.83D-01
 IDIUse=3 WtCom= 3.74D-01 WtEn= 6.26D-01
 Coeff-Com: -0.752D+00 0.175D+01
 Coeff-En:   0.000D+00 0.100D+01
 Coeff:     -0.281D+00 0.128D+01
 Gap=     0.335 Goal=   None    Shift=    0.000
 RMSDP=2.59D-02 MaxDP=1.37D+00 DE=-1.45D-01 OVMax= 1.27D-01

 Cycle   3  Pass 1  IDiag  1:
 E= -155.003165112671     Delta-E=       -0.261100599853 Rises=F Damp=F
 DIIS: error= 2.71D-02 at cycle   3 NSaved=   3.
 NSaved= 3 IEnMin= 3 EnMin= -155.003165112671     IErMin= 3 ErrMin= 2.71D-02
 ErrMax= 2.71D-02  0.00D+00 EMaxC= 1.00D-01 BMatC= 3.99D-02 BMatP= 1.64D-01
 IDIUse=3 WtCom= 7.29D-01 WtEn= 2.71D-01
 Coeff-Com:  0.633D+00-0.783D+00 0.115D+01
 Coeff-En:   0.000D+00 0.000D+00 0.100D+01
 Coeff:      0.461D+00-0.571D+00 0.111D+01
 Gap=     0.302 Goal=   None    Shift=    0.000
 RMSDP=2.68D-03 MaxDP=4.48D-02 DE=-2.61D-01 OVMax= 9.16D-02

 Cycle   4  Pass 1  IDiag  1:
 E= -155.022293591519     Delta-E=       -0.019128478848 Rises=F Damp=F
 DIIS: error= 1.81D-02 at cycle   4 NSaved=   4.
 NSaved= 4 IEnMin= 4 EnMin= -155.022293591519     IErMin= 4 ErrMin= 1.81D-02
 ErrMax= 1.81D-02  0.00D+00 EMaxC= 1.00D-01 BMatC= 2.21D-02 BMatP= 3.99D-02
 IDIUse=3 WtCom= 8.19D-01 WtEn= 1.81D-01
 Coeff-Com: -0.604D-01 0.967D-01 0.369D+00 0.594D+00
 Coeff-En:   0.000D+00 0.000D+00 0.330D+00 0.670D+00
 Coeff:     -0.494D-01 0.791D-01 0.362D+00 0.608D+00
 Gap=     0.292 Goal=   None    Shift=    0.000
 RMSDP=9.93D-04 MaxDP=2.27D-02 DE=-1.91D-02 OVMax= 3.71D-02

 Cycle   5  Pass 1  IDiag  1:
 E= -155.038295603222     Delta-E=       -0.016002011703 Rises=F Damp=F
 DIIS: error= 1.46D-03 at cycle   5 NSaved=   5.
 NSaved= 5 IEnMin= 5 EnMin= -155.038295603222     IErMin= 5 ErrMin= 1.46D-03
 ErrMax= 1.46D-03  0.00D+00 EMaxC= 1.00D-01 BMatC= 1.42D-04 BMatP= 2.21D-02
 IDIUse=3 WtCom= 9.85D-01 WtEn= 1.46D-02
 Coeff-Com: -0.499D-02 0.742D-02 0.482D-01 0.128D+00 0.821D+00
 Coeff-En:   0.000D+00 0.000D+00 0.000D+00 0.000D+00 0.100D+01
 Coeff:     -0.492D-02 0.731D-02 0.475D-01 0.126D+00 0.824D+00
 Gap=     0.287 Goal=   None    Shift=    0.000
 RMSDP=1.19D-04 MaxDP=1.82D-03 DE=-1.60D-02 OVMax= 4.14D-03

 Cycle   6  Pass 1  IDiag  1:
 E= -155.038383732256     Delta-E=       -0.000088129033 Rises=F Damp=F
 DIIS: error= 5.49D-04 at cycle   6 NSaved=   6.
 NSaved= 6 IEnMin= 6 EnMin= -155.038383732256     IErMin= 6 ErrMin= 5.49D-04
 ErrMax= 5.49D-04  0.00D+00 EMaxC= 1.00D-01 BMatC= 2.20D-05 BMatP= 1.42D-04
 IDIUse=3 WtCom= 9.95D-01 WtEn= 5.49D-03
 Coeff-Com: -0.121D-02 0.154D-02-0.416D-02 0.213D-01 0.406D+00 0.576D+00
 Coeff-En:   0.000D+00 0.000D+00 0.000D+00 0.000D+00 0.359D-01 0.964D+00
 Coeff:     -0.120D-02 0.153D-02-0.414D-02 0.212D-01 0.404D+00 0.579D+00
 Gap=     0.288 Goal=   None    Shift=    0.000
 RMSDP=3.56D-05 MaxDP=9.90D-04 DE=-8.81D-05 OVMax= 1.22D-03

 Cycle   7  Pass 1  IDiag  1:
 E= -155.038403588262     Delta-E=       -0.000019856007 Rises=F Damp=F
 DIIS: error= 9.11D-05 at cycle   7 NSaved=   7.
 NSaved= 7 IEnMin= 7 EnMin= -155.038403588262     IErMin= 7 ErrMin= 9.11D-05
 ErrMax= 9.11D-05  0.00D+00 EMaxC= 1.00D-01 BMatC= 6.35D-07 BMatP= 2.20D-05
 IDIUse=1 WtCom= 1.00D+00 WtEn= 0.00D+00
 Coeff-Com: -0.457D-03 0.476D-03-0.573D-02-0.249D-02 0.580D-01 0.179D+00
 Coeff-Com:  0.771D+00
 Coeff:     -0.457D-03 0.476D-03-0.573D-02-0.249D-02 0.580D-01 0.179D+00
 Coeff:      0.771D+00
 Gap=     0.288 Goal=   None    Shift=    0.000
 RMSDP=8.11D-06 MaxDP=1.56D-04 DE=-1.99D-05 OVMax= 3.70D-04

 Cycle   8  Pass 1  IDiag  1:
 E= -155.038404214047     Delta-E=       -0.000000625785 Rises=F Damp=F
 DIIS: error= 1.59D-05 at cycle   8 NSaved=   8.
 NSaved= 8 IEnMin= 8 EnMin= -155.038404214047     IErMin= 8 ErrMin= 1.59D-05
 ErrMax= 1.59D-05  0.00D+00 EMaxC= 1.00D-01 BMatC= 1.21D-08 BMatP= 6.35D-07
 IDIUse=1 WtCom= 1.00D+00 WtEn= 0.00D+00
 Coeff-Com: -0.514D-04 0.243D-04-0.678D-03-0.866D-03-0.808D-02 0.440D-02
 Coeff-Com:  0.112D+00 0.893D+00
 Coeff:     -0.514D-04 0.243D-04-0.678D-03-0.866D-03-0.808D-02 0.440D-02
 Coeff:      0.112D+00 0.893D+00
 Gap=     0.288 Goal=   None    Shift=    0.000
 RMSDP=1.94D-06 MaxDP=4.64D-05 DE=-6.26D-07 OVMax= 9.06D-05

 Cycle   9  Pass 1  IDiag  1:
 E= -155.038404226345     Delta-E=       -0.000000012298 Rises=F Damp=F
 DIIS: error= 6.00D-06 at cycle   9 NSaved=   9.
 NSaved= 9 IEnMin= 9 EnMin= -155.038404226345     IErMin= 9 ErrMin= 6.00D-06
 ErrMax= 6.00D-06  0.00D+00 EMaxC= 1.00D-01 BMatC= 2.20D-09 BMatP= 1.21D-08
 IDIUse=1 WtCom= 1.00D+00 WtEn= 0.00D+00
 Coeff-Com:  0.142D-04-0.396D-04-0.146D-03-0.390D-03-0.510D-02-0.300D-02
 Coeff-Com:  0.257D-01 0.384D+00 0.599D+00
 Coeff:      0.142D-04-0.396D-04-0.146D-03-0.390D-03-0.510D-02-0.300D-02
 Coeff:      0.257D-01 0.384D+00 0.599D+00
 Gap=     0.288 Goal=   None    Shift=    0.000
 RMSDP=4.35D-07 MaxDP=1.04D-05 DE=-1.23D-08 OVMax= 1.34D-05

 Cycle  10  Pass 1  IDiag  1:
 E= -155.038404228418     Delta-E=       -0.000000002073 Rises=F Damp=F
 DIIS: error= 1.73D-06 at cycle  10 NSaved=  10.
 NSaved=10 IEnMin=10 EnMin= -155.038404228418     IErMin=10 ErrMin= 1.73D-06
 ErrMax= 1.73D-06  0.00D+00 EMaxC= 1.00D-01 BMatC= 1.86D-10 BMatP= 2.20D-09
 IDIUse=1 WtCom= 1.00D+00 WtEn= 0.00D+00
 Coeff-Com: -0.491D-06 0.109D-05 0.527D-04-0.441D-05-0.667D-03-0.141D-02
 Coeff-Com: -0.442D-02 0.246D-01 0.223D+00 0.759D+00
 Coeff:     -0.491D-06 0.109D-05 0.527D-04-0.441D-05-0.667D-03-0.141D-02
 Coeff:     -0.442D-02 0.246D-01 0.223D+00 0.759D+00
 Gap=     0.288 Goal=   None    Shift=    0.000
 RMSDP=1.21D-07 MaxDP=2.48D-06 DE=-2.07D-09 OVMax= 3.45D-06

 Cycle  11  Pass 1  IDiag  1:
 E= -155.038404228594     Delta-E=       -0.000000000176 Rises=F Damp=F
 DIIS: error= 1.17D-07 at cycle  11 NSaved=  11.
 NSaved=11 IEnMin=11 EnMin= -155.038404228594     IErMin=11 ErrMin= 1.17D-07
 ErrMax= 1.17D-07  0.00D+00 EMaxC= 1.00D-01 BMatC= 1.33D-12 BMatP= 1.86D-10
 IDIUse=1 WtCom= 1.00D+00 WtEn= 0.00D+00
 Coeff-Com:  0.236D-06 0.264D-06 0.111D-04 0.537D-05 0.256D-04-0.226D-03
 Coeff-Com: -0.164D-02-0.770D-02 0.214D-01 0.136D+00 0.852D+00
 Coeff:      0.236D-06 0.264D-06 0.111D-04 0.537D-05 0.256D-04-0.226D-03
 Coeff:     -0.164D-02-0.770D-02 0.214D-01 0.136D+00 0.852D+00
 Gap=     0.288 Goal=   None    Shift=    0.000
 RMSDP=1.52D-08 MaxDP=2.36D-07 DE=-1.76D-10 OVMax= 6.21D-07

 Cycle  12  Pass 1  IDiag  1:
 E= -155.038404228597     Delta-E=       -0.000000000003 Rises=F Damp=F
 DIIS: error= 2.31D-08 at cycle  12 NSaved=  12.
 NSaved=12 IEnMin=12 EnMin= -155.038404228597     IErMin=12 ErrMin= 2.31D-08
 ErrMax= 2.31D-08  0.00D+00 EMaxC= 1.00D-01 BMatC= 4.49D-14 BMatP= 1.33D-12
 IDIUse=1 WtCom= 1.00D+00 WtEn= 0.00D+00
 Coeff-Com: -0.202D-07 0.131D-06 0.146D-06 0.150D-05 0.225D-04 0.188D-05
 Coeff-Com: -0.163D-03-0.179D-02-0.144D-02 0.543D-02 0.131D+00 0.867D+00
 Coeff:     -0.202D-07 0.131D-06 0.146D-06 0.150D-05 0.225D-04 0.188D-05
 Coeff:     -0.163D-03-0.179D-02-0.144D-02 0.543D-02 0.131D+00 0.867D+00
 Gap=     0.288 Goal=   None    Shift=    0.000
 RMSDP=3.12D-09 MaxDP=5.18D-08 DE=-2.84D-12 OVMax= 9.88D-08

 SCF Done:  E(RB971) =  -155.038404229     A.U. after   12 cycles
            NFock= 12  Conv=0.31D-08     -V/T= 2.0036
 KE= 1.544793971363D+02 PE=-5.258474096279D+02 EE= 1.347432390070D+02
 Leave Link  502 at Mon Sep 16 07:21:45 2013, MaxMem=   524288000 cpu:        53.9
 (Enter /opt/g09/l508.exe)
 QCSCF skips out because SCF is already converged.
 Leave Link  508 at Mon Sep 16 07:21:45 2013, MaxMem=   524288000 cpu:         0.0
 (Enter /opt/g09/l701.exe)
 Compute integral first derivatives.
 ... and contract with generalized density number  0.
 Leave Link  701 at Mon Sep 16 07:21:45 2013, MaxMem=   524288000 cpu:         1.3
 (Enter /opt/g09/l702.exe)
 L702 exits ... SP integral derivatives will be done elsewhere.
 Leave Link  702 at Mon Sep 16 07:21:45 2013, MaxMem=   524288000 cpu:         0.3
 (Enter /opt/g09/l703.exe)
 Compute integral first derivatives, UseDBF=F ICtDFT=           0.
 Integral derivatives from FoFJK, PRISM(SPDF).
 Calling FoFJK, ICntrl=      2127 FMM=F ISym2X=0 I1Cent= 0 IOpClX= 0 NMat=1 NMatS=1 NMatT=0.
 FoFJK:  IHMeth= 1 ICntrl=    2127 DoSepK=F KAlg= 0 I1Cent=   0 FoldK=F
 IRaf=         0 NMat=   1 IRICut=       1 DoRegI=T DoRafI=F ISym2E= 0.
 FoFCou: FMM=F IPFlag=           0 FMFlag=      100000 FMFlg1=         800
         NFxFlg=           0 DoJE=F BraDBF=F KetDBF=F FulRan=T
         wScrn=  0.000000 ICntrl=    2127 IOpCl=  0 I1Cent=           0 NGrid=           0
         NMat0=    1 NMatS0=      1 NMatT0=    0 NMatD0=    1 NMtDS0=    0 NMtDT0=    0
 Symmetry not used in FoFCou.
 Leave Link  703 at Mon Sep 16 07:21:47 2013, MaxMem=   524288000 cpu:        14.4
 (Enter /opt/g09/l716.exe)
 Dipole        =-2.30192050D-01 6.25845700D-01 1.52328900D-01
 -------------------------------------------------------------------
 Center     Atomic                   Forces (Hartrees/Bohr)
 Number     Number              X              Y              Z
 -------------------------------------------------------------------
      1        6          -0.000002729   -0.000000993    0.000004415
      2        6           0.000002320   -0.000000568   -0.000001806
      3        1          -0.000000299   -0.000000518   -0.000000200
      4        1           0.000000866    0.000002622   -0.000002381
      5        1           0.000000941   -0.000001145   -0.000001759
      6        8           0.000000281   -0.000000138   -0.000000389
      7        1           0.000000155   -0.000000495    0.000000482
      8        1          -0.000000824    0.000001120    0.000001691
      9        1          -0.000000711    0.000000113   -0.000000054
 -------------------------------------------------------------------
 Cartesian Forces:  Max     0.000004415 RMS     0.000001515
 Force constants in Cartesian coordinates: 
                1             2             3             4             5 
      1  0.650745D+00
      2 -0.125639D-01  0.645230D+00
      3 -0.408897D-02 -0.490488D-02  0.647352D+00
      4 -0.162702D+00 -0.831337D-01 -0.469847D-01  0.699736D+00
      5 -0.784771D-01 -0.209271D+00 -0.607096D-01 -0.592209D-01  0.673575D+00
      6 -0.454057D-01 -0.619193D-01 -0.123144D+00  0.234955D-02  0.501415D-02
      7 -0.312743D+00  0.811876D-01 -0.337435D-01 -0.527290D-02  0.423509D-02
      8  0.705837D-01 -0.976838D-01  0.113148D-01 -0.189475D-01  0.148495D-01
      9 -0.373390D-01  0.140704D-01 -0.818907D-01 -0.814696D-02  0.567431D-02
     10 -0.759693D-01 -0.826128D-02  0.857978D-02  0.359800D-02 -0.959788D-02
     11 -0.302162D-02 -0.248342D+00  0.132996D+00  0.219066D-02 -0.726489D-02
     12  0.436563D-02  0.123685D+00 -0.169039D+00  0.297559D-02 -0.979530D-02
     13 -0.108059D+00  0.277741D-01  0.794776D-01  0.123556D-01 -0.104237D-02
     14  0.330725D-01 -0.996159D-01 -0.745134D-01  0.104175D-01 -0.276923D-03
     15  0.872647D-01 -0.679407D-01 -0.285688D+00  0.175192D-02 -0.344347D-03
     16 -0.754643D-02  0.556961D-02  0.498826D-03 -0.357008D+00  0.133062D+00
     17 -0.226360D-01  0.171483D-01  0.678096D-03  0.107944D+00 -0.142699D+00
     18 -0.906434D-02  0.800673D-02 -0.183900D-02 -0.413319D-01  0.553890D-02
     19  0.378498D-02 -0.954943D-02  0.122587D-01 -0.733579D-01  0.275107D-02
     20  0.229650D-02 -0.739852D-02  0.104087D-01  0.814399D-03 -0.244510D+00
     21  0.303953D-02 -0.976590D-02  0.137275D-01  0.368764D-02  0.119611D+00
     22  0.123274D-01 -0.123359D-02 -0.153765D-01 -0.110132D+00  0.305574D-01
     23  0.105353D-01 -0.342174D-03 -0.144596D-01  0.337301D-01 -0.102650D+00
     24  0.184949D-02 -0.420567D-03 -0.187094D-02  0.865723D-01 -0.639514D-01
     25  0.161403D-03  0.210626D-03 -0.621214D-03 -0.721572D-02 -0.222673D-01
     26  0.210597D-03  0.274822D-03 -0.810552D-03  0.620566D-02  0.182468D-01
     27 -0.621300D-03 -0.810777D-03  0.239128D-02 -0.873383D-03 -0.103808D-02
                6             7             8             9            10 
      6  0.615723D+00
      7 -0.287357D-03  0.307976D+00
      8 -0.349689D-03 -0.851824D-01  0.865562D-01
      9  0.116531D-02  0.359361D-01 -0.126372D-01  0.635954D-01
     10  0.126163D-01  0.124556D-01  0.271890D-01 -0.221578D-01  0.583894D-01
     11  0.103129D-01 -0.879642D-03 -0.192014D-02  0.156483D-02  0.391078D-02
     12  0.138735D-01 -0.762213D-03 -0.166381D-02  0.135593D-02 -0.375045D-02
     13 -0.157709D-01 -0.239688D-02  0.638227D-02  0.316341D-01  0.146172D-02
     14 -0.144117D-01  0.664385D-03 -0.176908D-02 -0.876855D-02 -0.133248D-01
     15 -0.187228D-02 -0.121667D-02  0.323967D-02  0.160576D-01  0.496052D-02
     16 -0.328181D-01  0.562263D-04  0.733592D-04 -0.216379D-03 -0.189509D-03
     17 -0.986396D-03  0.733734D-04  0.957314D-04 -0.282368D-03 -0.247303D-03
     18 -0.659231D-01 -0.216405D-03 -0.282347D-03  0.832807D-03  0.729390D-03
     19  0.194137D-02 -0.247865D-03 -0.323393D-03  0.953875D-03  0.835423D-03
     20  0.127599D+00  0.113205D-03  0.147700D-03 -0.435655D-03 -0.381555D-03
     21 -0.169196D+00  0.145494D-03  0.189828D-03 -0.559913D-03 -0.490383D-03
     22  0.878994D-01  0.172496D-03  0.225058D-03 -0.663827D-03 -0.581393D-03
     23 -0.716181D-01 -0.211564D-03 -0.276030D-03  0.814175D-03  0.713071D-03
     24 -0.274291D+00  0.144598D-03  0.188659D-03 -0.556465D-03 -0.487364D-03
     25 -0.105246D-01  0.000000D+00  0.000000D+00  0.000000D+00  0.000000D+00
     26  0.635879D-02  0.000000D+00  0.000000D+00  0.000000D+00  0.000000D+00
     27  0.366444D-02  0.000000D+00  0.000000D+00  0.000000D+00  0.000000D+00
               11            12            13            14            15 
     11  0.237782D+00
     12 -0.137624D+00  0.163140D+00
     13 -0.217028D-02 -0.279148D-02  0.966834D-01
     14  0.197839D-01  0.254467D-01 -0.308846D-01  0.818063D-01
     15 -0.736511D-02 -0.947322D-02 -0.927236D-01  0.724586D-01  0.280834D+00
     16  0.878181D-04  0.108897D-03  0.133092D-03 -0.161429D-03  0.108222D-03
     17  0.114600D-03  0.142107D-03  0.173680D-03 -0.210660D-03  0.141227D-03
     18 -0.337997D-03 -0.419126D-03 -0.512248D-03  0.621314D-03 -0.416530D-03
     19 -0.387133D-03 -0.480056D-03 -0.586715D-03  0.711636D-03 -0.477082D-03
     20  0.176812D-03  0.219252D-03  0.267965D-03 -0.325019D-03  0.217894D-03
     21  0.227242D-03  0.281787D-03  0.344394D-03 -0.417721D-03  0.280041D-03
     22  0.269416D-03  0.334084D-03  0.408311D-03 -0.495246D-03  0.332014D-03
     23 -0.330435D-03 -0.409749D-03 -0.500787D-03  0.607413D-03 -0.407211D-03
     24  0.225843D-03  0.280052D-03  0.342274D-03 -0.415149D-03  0.278317D-03
     25  0.000000D+00  0.000000D+00  0.000000D+00  0.000000D+00  0.000000D+00
     26  0.000000D+00  0.000000D+00  0.000000D+00  0.000000D+00  0.000000D+00
     27  0.000000D+00  0.000000D+00  0.000000D+00  0.000000D+00  0.000000D+00
               16            17            18            19            20 
     16  0.559991D+00
     17  0.724903D-01  0.452243D+00
     18  0.155613D+00  0.153291D+00  0.147952D+00
     19  0.985310D-02  0.200793D-01 -0.164031D-01  0.579009D-01
     20 -0.146271D-02 -0.226782D-02  0.455979D-02  0.170364D-03  0.234248D+00
     21 -0.181348D-02 -0.276370D-02  0.579622D-02 -0.255485D-02 -0.132996D+00
     22 -0.865537D-03  0.514622D-02  0.220333D-01  0.169492D-02 -0.238861D-02
     23  0.183737D-02  0.804338D-03 -0.118201D-01 -0.136131D-01  0.191846D-01
     24 -0.982114D-03  0.196058D-02  0.134419D-01  0.523526D-02 -0.737792D-02
     25 -0.204424D+00 -0.183023D+00 -0.110847D+00  0.123176D-03  0.570445D-03
     26 -0.211496D+00 -0.325228D+00 -0.159577D+00  0.160719D-03  0.744309D-03
     27 -0.120498D+00 -0.152180D+00 -0.994248D-01 -0.474151D-03 -0.219585D-02
               21            22            23            24            25 
     21  0.162137D+00
     22 -0.310520D-02  0.973286D-01
     23  0.249400D-01 -0.316210D-01  0.841363D-01
     24 -0.959130D-02 -0.928095D-01  0.696137D-01  0.272829D+00
     25  0.746852D-03 -0.352325D-03 -0.869476D-03  0.135103D-03  0.211707D+00
     26  0.974483D-03 -0.459709D-03 -0.113448D-02  0.176281D-03  0.205379D+00
     27 -0.287491D-02  0.135623D-02  0.334694D-02 -0.520062D-03  0.121111D+00
               26            27 
     26  0.307096D+00
     27  0.152878D+00  0.967641D-01
 FormGI is forming the generalized inverse of G from B-inverse, IUseBI=4.
 Force constants in internal coordinates: 
                1             2             3             4             5 
      1  0.302841D+00
      2  0.000000D+00  0.342163D+00
      3  0.000000D+00  0.000000D+00  0.343157D+00
      4  0.000000D+00  0.000000D+00  0.000000D+00  0.343168D+00
      5  0.000000D+00  0.000000D+00  0.000000D+00  0.000000D+00  0.413641D+00
      6  0.000000D+00  0.000000D+00  0.000000D+00  0.000000D+00  0.000000D+00
      7  0.000000D+00  0.000000D+00  0.000000D+00  0.000000D+00  0.000000D+00
      8  0.000000D+00  0.000000D+00  0.000000D+00  0.000000D+00  0.000000D+00
      9  0.000000D+00  0.000000D+00  0.000000D+00  0.000000D+00  0.000000D+00
     10  0.000000D+00  0.000000D+00  0.000000D+00  0.000000D+00  0.000000D+00
     11  0.000000D+00  0.000000D+00  0.000000D+00  0.000000D+00  0.000000D+00
     12  0.000000D+00  0.000000D+00  0.000000D+00  0.000000D+00  0.000000D+00
     13  0.000000D+00  0.000000D+00  0.000000D+00  0.000000D+00  0.000000D+00
     14  0.000000D+00  0.000000D+00  0.000000D+00  0.000000D+00  0.000000D+00
     15  0.000000D+00  0.000000D+00  0.000000D+00  0.000000D+00  0.000000D+00
     16  0.000000D+00  0.000000D+00  0.000000D+00  0.000000D+00  0.000000D+00
     17  0.000000D+00  0.000000D+00  0.000000D+00  0.000000D+00  0.000000D+00
     18  0.000000D+00  0.000000D+00  0.000000D+00  0.000000D+00  0.000000D+00
     19  0.000000D+00  0.000000D+00  0.000000D+00  0.000000D+00  0.000000D+00
     20  0.000000D+00  0.000000D+00  0.000000D+00  0.000000D+00  0.000000D+00
     21  0.000000D+00  0.000000D+00  0.000000D+00  0.000000D+00  0.000000D+00
     22  0.000000D+00  0.000000D+00  0.000000D+00  0.000000D+00  0.000000D+00
     23  0.000000D+00  0.000000D+00  0.000000D+00  0.000000D+00  0.000000D+00
     24  0.000000D+00  0.000000D+00  0.000000D+00  0.000000D+00  0.000000D+00
     25  0.000000D+00  0.000000D+00  0.000000D+00  0.000000D+00  0.000000D+00
     26  0.000000D+00  0.000000D+00  0.000000D+00  0.000000D+00  0.000000D+00
     27  0.000000D+00  0.000000D+00  0.000000D+00  0.000000D+00  0.000000D+00
     28  0.000000D+00  0.000000D+00  0.000000D+00  0.000000D+00  0.000000D+00
     29  0.000000D+00  0.000000D+00  0.000000D+00  0.000000D+00  0.000000D+00
     30  0.000000D+00  0.000000D+00  0.000000D+00  0.000000D+00  0.000000D+00
     31  0.000000D+00  0.000000D+00  0.000000D+00  0.000000D+00  0.000000D+00
     32  0.000000D+00  0.000000D+00  0.000000D+00  0.000000D+00  0.000000D+00
     33  0.000000D+00  0.000000D+00  0.000000D+00  0.000000D+00  0.000000D+00
                6             7             8             9            10 
      6  0.335999D+00
      7  0.000000D+00  0.336006D+00
      8  0.000000D+00  0.000000D+00  0.553527D+00
      9  0.000000D+00  0.000000D+00  0.000000D+00  0.112494D+00
     10  0.000000D+00  0.000000D+00  0.000000D+00 -0.177053D-01  0.112607D+00
     11  0.000000D+00  0.000000D+00  0.000000D+00 -0.177047D-01 -0.176091D-01
     12  0.000000D+00  0.000000D+00  0.000000D+00 -0.458265D-01 -0.458330D-01
     13  0.000000D+00  0.000000D+00  0.000000D+00 -0.458258D-01  0.116751D-01
     14  0.000000D+00  0.000000D+00  0.000000D+00  0.116673D-01 -0.457769D-01
     15  0.000000D+00  0.000000D+00  0.000000D+00  0.000000D+00  0.000000D+00
     16  0.000000D+00  0.000000D+00  0.000000D+00  0.000000D+00  0.000000D+00
     17  0.000000D+00  0.000000D+00  0.000000D+00  0.000000D+00  0.000000D+00
     18  0.000000D+00  0.000000D+00  0.000000D+00  0.000000D+00  0.000000D+00
     19  0.000000D+00  0.000000D+00  0.000000D+00  0.000000D+00  0.000000D+00
     20  0.000000D+00  0.000000D+00  0.000000D+00  0.000000D+00  0.000000D+00
     21  0.000000D+00  0.000000D+00  0.000000D+00  0.000000D+00  0.000000D+00
     22  0.000000D+00  0.000000D+00  0.000000D+00  0.000000D+00  0.413120D-02
     23  0.000000D+00  0.000000D+00  0.000000D+00  0.000000D+00  0.413120D-02
     24  0.000000D+00  0.000000D+00  0.000000D+00  0.000000D+00  0.413120D-02
     25  0.000000D+00  0.000000D+00  0.000000D+00 -0.413359D-02  0.000000D+00
     26  0.000000D+00  0.000000D+00  0.000000D+00 -0.413359D-02  0.000000D+00
     27  0.000000D+00  0.000000D+00  0.000000D+00 -0.413359D-02  0.000000D+00
     28  0.000000D+00  0.000000D+00  0.000000D+00  0.413358D-02 -0.413125D-02
     29  0.000000D+00  0.000000D+00  0.000000D+00  0.413358D-02 -0.413125D-02
     30  0.000000D+00  0.000000D+00  0.000000D+00  0.413358D-02 -0.413125D-02
     31  0.000000D+00  0.000000D+00  0.000000D+00  0.000000D+00  0.000000D+00
     32  0.000000D+00  0.000000D+00  0.000000D+00  0.000000D+00  0.000000D+00
     33  0.000000D+00  0.000000D+00  0.000000D+00  0.000000D+00  0.000000D+00
               11            12            13            14            15 
     11  0.112606D+00
     12  0.116751D-01  0.602762D-01
     13 -0.458329D-01  0.113127D-01  0.602755D-01
     14 -0.457774D-01  0.112547D-01  0.112548D-01  0.601354D-01
     15  0.000000D+00  0.000000D+00  0.000000D+00  0.000000D+00  0.151767D+00
     16  0.000000D+00  0.000000D+00  0.000000D+00  0.000000D+00 -0.395456D-01
     17  0.000000D+00  0.000000D+00  0.000000D+00  0.000000D+00 -0.395456D-01
     18  0.000000D+00  0.000000D+00  0.000000D+00  0.000000D+00 -0.517332D-01
     19  0.000000D+00  0.000000D+00  0.000000D+00  0.000000D+00 -0.517338D-01
     20  0.000000D+00  0.000000D+00  0.000000D+00  0.000000D+00  0.280484D-01
     21  0.000000D+00  0.000000D+00  0.000000D+00  0.000000D+00  0.000000D+00
     22 -0.413119D-02  0.797648D-02 -0.797660D-02  0.000000D+00  0.000000D+00
     23 -0.413119D-02  0.797648D-02 -0.797660D-02  0.000000D+00  0.703736D-02
     24 -0.413119D-02  0.797648D-02 -0.797660D-02  0.000000D+00 -0.703746D-02
     25  0.413125D-02 -0.797560D-02  0.000000D+00  0.799362D-02  0.000000D+00
     26  0.413125D-02 -0.797560D-02  0.000000D+00  0.799362D-02  0.703736D-02
     27  0.413125D-02 -0.797560D-02  0.000000D+00  0.799362D-02 -0.703746D-02
     28  0.000000D+00  0.000000D+00  0.797577D-02 -0.799366D-02  0.000000D+00
     29  0.000000D+00  0.000000D+00  0.797577D-02 -0.799366D-02  0.703736D-02
     30  0.000000D+00  0.000000D+00  0.797577D-02 -0.799366D-02 -0.703746D-02
     31  0.000000D+00  0.000000D+00  0.000000D+00  0.000000D+00  0.000000D+00
     32  0.000000D+00  0.000000D+00  0.000000D+00  0.000000D+00 -0.155667D-01
     33  0.000000D+00  0.000000D+00  0.000000D+00  0.000000D+00  0.155664D-01
               16            17            18            19            20 
     16  0.748111D-01
     17 -0.899011D-02  0.748114D-01
     18 -0.229786D-01  0.225360D-01  0.534307D-01
     19  0.225362D-01 -0.229786D-01  0.628448D-02  0.534311D-01
     20 -0.245684D-01 -0.245682D-01 -0.687638D-02 -0.687657D-02  0.337923D-01
     21  0.000000D+00  0.000000D+00  0.000000D+00  0.000000D+00  0.000000D+00
     22  0.189676D-02 -0.189679D-02 -0.101422D-01  0.101421D-01  0.000000D+00
     23 -0.605201D-02 -0.415523D-02  0.943099D-02 -0.711251D-03 -0.568170D-02
     24  0.415525D-02  0.605202D-02  0.711239D-03 -0.943086D-02  0.568168D-02
     25  0.189676D-02 -0.189679D-02 -0.101422D-01  0.101421D-01  0.000000D+00
     26 -0.605201D-02 -0.415523D-02  0.943099D-02 -0.711251D-03 -0.568170D-02
     27  0.415525D-02  0.605202D-02  0.711239D-03 -0.943086D-02  0.568168D-02
     28  0.189676D-02 -0.189679D-02 -0.101422D-01  0.101421D-01  0.000000D+00
     29 -0.605201D-02 -0.415523D-02  0.943099D-02 -0.711251D-03 -0.568170D-02
     30  0.415525D-02  0.605202D-02  0.711239D-03 -0.943086D-02  0.568168D-02
     31  0.251156D-01 -0.251158D-01 -0.918541D-02  0.918530D-02  0.000000D+00
     32 -0.279790D-01 -0.286329D-02  0.193680D-01  0.101827D-01  0.166289D-01
     33  0.286338D-02  0.279790D-01 -0.101826D-01 -0.193680D-01 -0.166289D-01
               21            22            23            24            25 
     21  0.160000D+00
     22  0.000000D+00  0.164497D-01
     23  0.000000D+00  0.521404D-02  0.174538D-01
     24  0.000000D+00  0.521405D-02  0.420991D-02  0.174538D-01
     25  0.000000D+00  0.382752D-02 -0.740809D-02 -0.740808D-02  0.164522D-01
     26  0.000000D+00 -0.740809D-02  0.483167D-02 -0.841223D-02  0.521658D-02
     27  0.000000D+00 -0.740808D-02 -0.841223D-02  0.483166D-02  0.521659D-02
     28  0.000000D+00  0.382749D-02 -0.740812D-02 -0.740811D-02  0.382495D-02
     29  0.000000D+00 -0.740812D-02  0.483163D-02 -0.841226D-02 -0.741066D-02
     30  0.000000D+00 -0.740811D-02 -0.841226D-02  0.483162D-02 -0.741065D-02
     31  0.000000D+00 -0.248374D-02  0.124188D-02  0.124186D-02 -0.248374D-02
     32  0.000000D+00  0.124186D-02 -0.137261D-02  0.130746D-03  0.124186D-02
     33  0.000000D+00  0.124188D-02  0.130724D-03 -0.137260D-02  0.124188D-02
               26            27            28            29            30 
     26  0.174563D-01
     27  0.421245D-02  0.174563D-01
     28 -0.741066D-02 -0.741065D-02  0.164522D-01
     29  0.482910D-02 -0.841479D-02  0.521661D-02  0.174564D-01
     30 -0.841479D-02  0.482909D-02  0.521662D-02  0.421248D-02  0.174564D-01
     31  0.124188D-02  0.124186D-02 -0.248374D-02  0.124188D-02  0.124186D-02
     32 -0.137261D-02  0.130746D-03  0.124186D-02 -0.137261D-02  0.130746D-03
     33  0.130724D-03 -0.137260D-02  0.124188D-02  0.130724D-03 -0.137260D-02
               31            32            33 
     31  0.212558D-01
     32 -0.398176D-02  0.284073D-01
     33 -0.398167D-02 -0.111332D-01  0.284072D-01
 Leave Link  716 at Mon Sep 16 07:21:47 2013, MaxMem=   524288000 cpu:         0.3
 (Enter /opt/g09/l103.exe)

 GradGradGradGradGradGradGradGradGradGradGradGradGradGradGradGradGradGrad
 Berny optimization.
 Red2BG is reusing G-inverse.
 Internal  Forces:  Max     0.000003598 RMS     0.000000935
 Search for a local minimum.
 Step number   1 out of a maximum of  100
 All quantities printed in internal units (Hartrees-Bohrs-Radians)
 RMS Force = .93460D-06 SwitMx=.10000D-02 MixMth= 2
 Mixed Optimization -- En-DIIS/RFO-DIIS
 Second derivative matrix not updated -- first step.
 ITU=  0
     Eigenvalues ---    0.00490   0.01329   0.05358   0.05705   0.05710
     Eigenvalues ---    0.05962   0.11105   0.13632   0.16000   0.16000
     Eigenvalues ---    0.16000   0.16000   0.21970   0.30284   0.33600
     Eigenvalues ---    0.33601   0.34216   0.34316   0.34317   0.41364
     Eigenvalues ---    0.55353
 RFO step:  Lambda= 0.00000000D+00 EMin= 4.90036097D-03
 Linear search not attempted -- first point.
 Iteration  1 RMS(Cart)=  0.00000926 RMS(Int)=  0.00000000
 Iteration  2 RMS(Cart)=  0.00000000 RMS(Int)=  0.00000000
 ITry= 1 IFail=0 DXMaxC= 2.43D-05 DCOld= 1.00D+10 DXMaxT= 3.00D-01 DXLimC= 3.00D+00 Rises=F
 Variable       Old X    -DE/DX   Delta X   Delta X   Delta X     New X
                                 (Linear)    (Quad)   (Total)
    R1        2.87401   0.00000   0.00000   0.00000   0.00000   2.87401
    R2        2.06967   0.00000   0.00000   0.00000   0.00000   2.06967
    R3        2.06801   0.00000   0.00000  -0.00001  -0.00001   2.06799
    R4        2.06799   0.00000   0.00000   0.00001   0.00001   2.06799
    R5        2.69741   0.00000   0.00000   0.00000   0.00000   2.69741
    R6        2.08011   0.00000   0.00000   0.00000   0.00000   2.08010
    R7        2.08009   0.00000   0.00000   0.00001   0.00001   2.08010
    R8        1.81520   0.00000   0.00000   0.00000   0.00000   1.81520
    A1        1.92713   0.00000   0.00000   0.00001   0.00001   1.92714
    A2        1.92791   0.00000   0.00000   0.00000   0.00000   1.92791
    A3        1.92790   0.00000   0.00000   0.00000   0.00000   1.92790
    A4        1.89452   0.00000   0.00000   0.00000   0.00000   1.89453
    A5        1.89453   0.00000   0.00000   0.00000   0.00000   1.89453
    A6        1.89090   0.00000   0.00000  -0.00001  -0.00001   1.89089
    A7        1.88483   0.00000   0.00000   0.00000   0.00000   1.88483
    A8        1.92024   0.00000   0.00000   0.00000   0.00000   1.92024
    A9        1.92025   0.00000   0.00000   0.00000   0.00000   1.92025
   A10        1.92892   0.00000   0.00000   0.00000   0.00000   1.92892
   A11        1.92891   0.00000   0.00000   0.00000   0.00000   1.92891
   A12        1.88101   0.00000   0.00000   0.00000   0.00000   1.88101
   A13        1.89638   0.00000   0.00000  -0.00001  -0.00001   1.89637
    D1       -3.14156   0.00000   0.00000  -0.00001  -0.00001  -3.14157
    D2       -1.03488   0.00000   0.00000  -0.00001  -0.00001  -1.03490
    D3        1.03496   0.00000   0.00000  -0.00002  -0.00002   1.03494
    D4        1.04589   0.00000   0.00000  -0.00002  -0.00002   1.04587
    D5       -3.13062   0.00000   0.00000  -0.00002  -0.00002  -3.13064
    D6       -1.06078   0.00000   0.00000  -0.00002  -0.00002  -1.06080
    D7       -1.04582   0.00000   0.00000  -0.00001  -0.00001  -1.04583
    D8        1.06085   0.00000   0.00000  -0.00001  -0.00001   1.06084
    D9        3.13069   0.00000   0.00000  -0.00001  -0.00001   3.13068
   D10        3.14151   0.00000   0.00000   0.00001   0.00001   3.14152
   D11        1.04026   0.00000   0.00000   0.00001   0.00001   1.04027
   D12       -1.04043   0.00000   0.00000   0.00001   0.00001  -1.04042
         Item               Value     Threshold  Converged?
 Maximum Force            0.000004     0.000015     YES
 RMS     Force            0.000001     0.000010     YES
 Maximum Displacement     0.000024     0.000060     YES
 RMS     Displacement     0.000009     0.000040     YES
 Predicted change in Energy=-6.525332D-11
 Optimization completed.
    -- Stationary point found.
                           ----------------------------
                           !   Optimized Parameters   !
                           ! (Angstroms and Degrees)  !
 --------------------------                            --------------------------
 ! Name  Definition              Value          Derivative Info.                !
 --------------------------------------------------------------------------------
 ! R1    R(1,2)                  1.5209         -DE/DX =    0.0                 !
 ! R2    R(1,3)                  1.0952         -DE/DX =    0.0                 !
 ! R3    R(1,4)                  1.0943         -DE/DX =    0.0                 !
 ! R4    R(1,5)                  1.0943         -DE/DX =    0.0                 !
 ! R5    R(2,6)                  1.4274         -DE/DX =    0.0                 !
 ! R6    R(2,7)                  1.1007         -DE/DX =    0.0                 !
 ! R7    R(2,8)                  1.1007         -DE/DX =    0.0                 !
 ! R8    R(6,9)                  0.9606         -DE/DX =    0.0                 !
 ! A1    A(2,1,3)              110.4163         -DE/DX =    0.0                 !
 ! A2    A(2,1,4)              110.4613         -DE/DX =    0.0                 !
 ! A3    A(2,1,5)              110.4607         -DE/DX =    0.0                 !
 ! A4    A(3,1,4)              108.5482         -DE/DX =    0.0                 !
 ! A5    A(3,1,5)              108.5484         -DE/DX =    0.0                 !
 ! A6    A(4,1,5)              108.3405         -DE/DX =    0.0                 !
 ! A7    A(1,2,6)              107.9928         -DE/DX =    0.0                 !
 ! A8    A(1,2,7)              110.0217         -DE/DX =    0.0                 !
 ! A9    A(1,2,8)              110.0222         -DE/DX =    0.0                 !
 ! A10   A(6,2,7)              110.5188         -DE/DX =    0.0                 !
 ! A11   A(6,2,8)              110.5185         -DE/DX =    0.0                 !
 ! A12   A(7,2,8)              107.774          -DE/DX =    0.0                 !
 ! A13   A(2,6,9)              108.6546         -DE/DX =    0.0                 !
 ! D1    D(3,1,2,6)           -179.9979         -DE/DX =    0.0                 !
 ! D2    D(3,1,2,7)            -59.2945         -DE/DX =    0.0                 !
 ! D3    D(3,1,2,8)             59.2988         -DE/DX =    0.0                 !
 ! D4    D(4,1,2,6)             59.9252         -DE/DX =    0.0                 !
 ! D5    D(4,1,2,7)           -179.3714         -DE/DX =    0.0                 !
 ! D6    D(4,1,2,8)            -60.7781         -DE/DX =    0.0                 !
 ! D7    D(5,1,2,6)            -59.9212         -DE/DX =    0.0                 !
 ! D8    D(5,1,2,7)             60.7822         -DE/DX =    0.0                 !
 ! D9    D(5,1,2,8)            179.3755         -DE/DX =    0.0                 !
 ! D10   D(1,2,6,9)            179.9951         -DE/DX =    0.0                 !
 ! D11   D(7,2,6,9)             59.6028         -DE/DX =    0.0                 !
 ! D12   D(8,2,6,9)            -59.6122         -DE/DX =    0.0                 !
 --------------------------------------------------------------------------------
 Lowest energy point so far.  Saving SCF results.
 GradGradGradGradGradGradGradGradGradGradGradGradGradGradGradGradGradGrad

 Largest change from initial coordinates is atom    0       0.000 Angstoms.
 Leave Link  103 at Mon Sep 16 07:21:47 2013, MaxMem=   524288000 cpu:         0.1
 (Enter /opt/g09/l202.exe)
                          Input orientation:                          
 ---------------------------------------------------------------------
 Center     Atomic      Atomic             Coordinates (Angstroms)
 Number     Number       Type             X           Y           Z
 ---------------------------------------------------------------------
      1          6           0        1.019590    0.884340    0.973380
      2          6           0        1.875470    1.990490    1.570800
      3          1           0       -0.007650    1.234010    0.825000
      4          1           0        0.998900    0.015320    1.638180
      5          1           0        1.422940    0.568580    0.006340
      6          8           0        3.197920    1.481170    1.741710
      7          1           0        1.882150    2.864710    0.901970
      8          1           0        1.457220    2.310180    2.537490
      9          1           0        3.747250    2.173000    2.118920
 ---------------------------------------------------------------------
                    Distance matrix (angstroms):
                    1          2          3          4          5
     1  C    0.000000
     2  C    1.520858   0.000000
     3  H    1.095220   2.162087   0.000000
     4  H    1.094341   2.161992   1.777529   0.000000
     5  H    1.094332   2.161977   1.777523   1.774488   0.000000
     6  O    2.385720   1.427407   3.343221   2.644830   2.644784
     7  H    2.161244   1.100745   2.497289   3.072647   2.507038
     8  H    2.161245   1.100738   2.497320   2.507030   3.072632
     9  H    3.226924   1.958904   4.081079   3.527056   3.526978
                    6          7          8          9
     6  O    0.000000
     7  H    2.085808   0.000000
     8  H    2.085800   1.778481   0.000000
     9  H    0.960562   2.331958   2.332007   0.000000
 Symmetry turned off by external request.
 Stoichiometry    C2H6O
 Framework group  C1[X(C2H6O)]
 Deg. of freedom    21
 Full point group                 C1      NOp   1
 Rotational constants (GHZ):     35.0714835      9.3119604      8.1093141
 Leave Link  202 at Mon Sep 16 07:21:47 2013, MaxMem=   524288000 cpu:         0.3
 (Enter /opt/g09/l9999.exe)
 1\1\GINC-MONDRIAN\FOpt\RB971\6-311+G(d,p)\C2H6O1\PB556\16-Sep-2013\0\\
 #p rB971/6-311+G(d,p) Opt=(Tight, NewEstmFC, MaxCyc=400) Freq GFInput 
 Population=None Integral(Grid=UltraFine) SCF=(MaxCyc=400, XQC) Guess=M
 ix NoSymmetry\\a-fine-64-17-5\\0,1\C,1.01959,0.88434,0.97338\C,1.87547
 ,1.99049,1.5708\H,-0.00765,1.23401,0.825\H,0.9989,0.01532,1.63818\H,1.
 42294,0.56858,0.00634\O,3.19792,1.48117,1.74171\H,1.88215,2.86471,0.90
 197\H,1.45722,2.31018,2.53749\H,3.74725,2.173,2.11892\\Version=ES64L-G
 09RevD.01\HF=-155.0384042\RMSD=3.124e-09\RMSF=1.515e-06\Dipole=-0.2301
 921,0.6258457,0.1523289\PG=C01 [X(C2H6O1)]\\@


 YOU KNOW YOU'VE SPOKEN TOO LONG WHEN THE AUDIENCE STOPS LOOKING AT
 THEIR WATCHES AND STARTS SHAKING THEM.
 Leave Link 9999 at Mon Sep 16 07:21:47 2013, MaxMem=   524288000 cpu:         0.3
 Job cpu time:       0 days  0 hours  1 minutes 24.4 seconds.
 File lengths (MBytes):  RWF=      6 Int=      0 D2E=      0 Chk=      2 Scr=      1
 Normal termination of Gaussian 09 at Mon Sep 16 07:21:47 2013.
 (Enter /opt/g09/l1.exe)
 Link1:  Proceeding to internal job step number  2.
 ----------------------------------------------------------------------
 #P Geom=AllCheck Guess=TCheck SCRF=Check GenChk RB971/6-311+G(d,p) Fre
 q
 ----------------------------------------------------------------------
 1/6=400,7=10,10=4,29=7,30=1,38=1,40=1/1,3;
 2/12=2,15=1,40=1/2;
 3/5=4,6=6,7=111,11=2,14=-4,16=1,24=10,25=1,30=1,70=2,71=2,74=-20,75=-5,116=1,140=1/1,2,3;
 4/5=101/1;
 5/5=2,7=400,8=3,13=1,98=1/2,8;
 8/6=4,10=90,11=11/1;
 11/6=1,8=1,9=11,15=111,16=1,31=1/1,2,10;
 10/6=1,31=1/2;
 7/8=1,10=1,25=1,30=1/1,2,3,16;
 1/6=400,7=10,10=4,30=1/3;
 99//99;
 Leave Link    1 at Mon Sep 16 07:21:47 2013, MaxMem=   524288000 cpu:         0.5
 (Enter /opt/g09/l101.exe)
 Structure from the checkpoint file:  "/scratch/pb556/g09_runs//Gau-5665.chk"
 --------------
 a-fine-64-17-5
 --------------
 Charge =  0 Multiplicity = 1
 Redundant internal coordinates found in file.
 C,0,1.01959,0.88434,0.97338
 C,0,1.87547,1.99049,1.5708
 H,0,-0.00765,1.23401,0.825
 H,0,0.9989,0.01532,1.63818
 H,0,1.42294,0.56858,0.00634
 O,0,3.19792,1.48117,1.74171
 H,0,1.88215,2.86471,0.90197
 H,0,1.45722,2.31018,2.53749
 H,0,3.74725,2.173,2.11892
 Recover connectivity data from disk.
 NAtoms=      9 NQM=        9 NQMF=       0 NMMI=      0 NMMIF=      0
                NMic=       0 NMicF=      0.
                    Isotopes and Nuclear Properties:
 (Nuclear quadrupole moments (NQMom) in fm**2, nuclear magnetic moments (NMagM)
  in nuclear magnetons)

  Atom         1           2           3           4           5           6           7           8           9
 IAtWgt=          12          12           1           1           1          16           1           1           1
 AtmWgt=  12.0000000  12.0000000   1.0078250   1.0078250   1.0078250  15.9949146   1.0078250   1.0078250   1.0078250
 NucSpn=           0           0           1           1           1           0           1           1           1
 AtZEff=  -3.6000000  -3.6000000  -1.0000000  -1.0000000  -1.0000000  -5.6000000  -1.0000000  -1.0000000  -1.0000000
 NQMom=    0.0000000   0.0000000   0.0000000   0.0000000   0.0000000   0.0000000   0.0000000   0.0000000   0.0000000
 NMagM=    0.0000000   0.0000000   2.7928460   2.7928460   2.7928460   0.0000000   2.7928460   2.7928460   2.7928460
 AtZNuc=   6.0000000   6.0000000   1.0000000   1.0000000   1.0000000   8.0000000   1.0000000   1.0000000   1.0000000
 Leave Link  101 at Mon Sep 16 07:21:48 2013, MaxMem=   524288000 cpu:         1.7
 (Enter /opt/g09/l103.exe)

 GradGradGradGradGradGradGradGradGradGradGradGradGradGradGradGradGradGrad
 Berny optimization.
 Initialization pass.
                           ----------------------------
                           !    Initial Parameters    !
                           ! (Angstroms and Degrees)  !
 --------------------------                            --------------------------
 ! Name  Definition              Value          Derivative Info.                !
 --------------------------------------------------------------------------------
 ! R1    R(1,2)                  1.5209         calculate D2E/DX2 analytically  !
 ! R2    R(1,3)                  1.0952         calculate D2E/DX2 analytically  !
 ! R3    R(1,4)                  1.0943         calculate D2E/DX2 analytically  !
 ! R4    R(1,5)                  1.0943         calculate D2E/DX2 analytically  !
 ! R5    R(2,6)                  1.4274         calculate D2E/DX2 analytically  !
 ! R6    R(2,7)                  1.1007         calculate D2E/DX2 analytically  !
 ! R7    R(2,8)                  1.1007         calculate D2E/DX2 analytically  !
 ! R8    R(6,9)                  0.9606         calculate D2E/DX2 analytically  !
 ! A1    A(2,1,3)              110.4163         calculate D2E/DX2 analytically  !
 ! A2    A(2,1,4)              110.4613         calculate D2E/DX2 analytically  !
 ! A3    A(2,1,5)              110.4607         calculate D2E/DX2 analytically  !
 ! A4    A(3,1,4)              108.5482         calculate D2E/DX2 analytically  !
 ! A5    A(3,1,5)              108.5484         calculate D2E/DX2 analytically  !
 ! A6    A(4,1,5)              108.3405         calculate D2E/DX2 analytically  !
 ! A7    A(1,2,6)              107.9928         calculate D2E/DX2 analytically  !
 ! A8    A(1,2,7)              110.0217         calculate D2E/DX2 analytically  !
 ! A9    A(1,2,8)              110.0222         calculate D2E/DX2 analytically  !
 ! A10   A(6,2,7)              110.5188         calculate D2E/DX2 analytically  !
 ! A11   A(6,2,8)              110.5185         calculate D2E/DX2 analytically  !
 ! A12   A(7,2,8)              107.774          calculate D2E/DX2 analytically  !
 ! A13   A(2,6,9)              108.6546         calculate D2E/DX2 analytically  !
 ! D1    D(3,1,2,6)           -179.9979         calculate D2E/DX2 analytically  !
 ! D2    D(3,1,2,7)            -59.2945         calculate D2E/DX2 analytically  !
 ! D3    D(3,1,2,8)             59.2988         calculate D2E/DX2 analytically  !
 ! D4    D(4,1,2,6)             59.9252         calculate D2E/DX2 analytically  !
 ! D5    D(4,1,2,7)           -179.3714         calculate D2E/DX2 analytically  !
 ! D6    D(4,1,2,8)            -60.7781         calculate D2E/DX2 analytically  !
 ! D7    D(5,1,2,6)            -59.9212         calculate D2E/DX2 analytically  !
 ! D8    D(5,1,2,7)             60.7822         calculate D2E/DX2 analytically  !
 ! D9    D(5,1,2,8)            179.3755         calculate D2E/DX2 analytically  !
 ! D10   D(1,2,6,9)            179.9951         calculate D2E/DX2 analytically  !
 ! D11   D(7,2,6,9)             59.6028         calculate D2E/DX2 analytically  !
 ! D12   D(8,2,6,9)            -59.6122         calculate D2E/DX2 analytically  !
 --------------------------------------------------------------------------------
 Trust Radius=3.00D-01 FncErr=1.00D-07 GrdErr=1.00D-07
 Number of steps in this run=      2 maximum allowed number of steps=      2.
 GradGradGradGradGradGradGradGradGradGradGradGradGradGradGradGradGradGrad

 Leave Link  103 at Mon Sep 16 07:21:48 2013, MaxMem=   524288000 cpu:         0.1
 (Enter /opt/g09/l202.exe)
                          Input orientation:                          
 ---------------------------------------------------------------------
 Center     Atomic      Atomic             Coordinates (Angstroms)
 Number     Number       Type             X           Y           Z
 ---------------------------------------------------------------------
      1          6           0        1.019590    0.884340    0.973380
      2          6           0        1.875470    1.990490    1.570800
      3          1           0       -0.007650    1.234010    0.825000
      4          1           0        0.998900    0.015320    1.638180
      5          1           0        1.422940    0.568580    0.006340
      6          8           0        3.197920    1.481170    1.741710
      7          1           0        1.882150    2.864710    0.901970
      8          1           0        1.457220    2.310180    2.537490
      9          1           0        3.747250    2.173000    2.118920
 ---------------------------------------------------------------------
                    Distance matrix (angstroms):
                    1          2          3          4          5
     1  C    0.000000
     2  C    1.520858   0.000000
     3  H    1.095220   2.162087   0.000000
     4  H    1.094341   2.161992   1.777529   0.000000
     5  H    1.094332   2.161977   1.777523   1.774488   0.000000
     6  O    2.385720   1.427407   3.343221   2.644830   2.644784
     7  H    2.161244   1.100745   2.497289   3.072647   2.507038
     8  H    2.161245   1.100738   2.497320   2.507030   3.072632
     9  H    3.226924   1.958904   4.081079   3.527056   3.526978
                    6          7          8          9
     6  O    0.000000
     7  H    2.085808   0.000000
     8  H    2.085800   1.778481   0.000000
     9  H    0.960562   2.331958   2.332007   0.000000
 Symmetry turned off by external request.
 Stoichiometry    C2H6O
 Framework group  C1[X(C2H6O)]
 Deg. of freedom    21
 Full point group                 C1      NOp   1
 Rotational constants (GHZ):     35.0714835      9.3119604      8.1093141
 Leave Link  202 at Mon Sep 16 07:21:48 2013, MaxMem=   524288000 cpu:         0.0
 (Enter /opt/g09/l301.exe)
 Standard basis: 6-311+G(d,p) (5D, 7F)
 Ernie: Thresh=  0.10000D-02 Tol=  0.10000D-05 Strict=F.
 AO basis set in the form of general basis input (Overlap normalization):
      1 0
 S   6 1.00       0.000000000000
      0.4563240000D+04  0.1966650249D-02
      0.6820240000D+03  0.1523060193D-01
      0.1549730000D+03  0.7612690966D-01
      0.4445530000D+02  0.2608010331D+00
      0.1302900000D+02  0.6164620782D+00
      0.1827730000D+01  0.2210060280D+00
 SP   3 1.00       0.000000000000
      0.2096420000D+02  0.1146600807D+00  0.4024869267D-01
      0.4803310000D+01  0.9199996477D+00  0.2375939567D+00
      0.1459330000D+01 -0.3030682134D-02  0.8158538515D+00
 SP   1 1.00       0.000000000000
      0.4834560000D+00  0.1000000000D+01  0.1000000000D+01
 SP   1 1.00       0.000000000000
      0.1455850000D+00  0.1000000000D+01  0.1000000000D+01
 SP   1 1.00       0.000000000000
      0.4380000000D-01  0.1000000000D+01  0.1000000000D+01
 D   1 1.00       0.000000000000
      0.6260000000D+00  0.1000000000D+01
 ****
      2 0
 S   6 1.00       0.000000000000
      0.4563240000D+04  0.1966650249D-02
      0.6820240000D+03  0.1523060193D-01
      0.1549730000D+03  0.7612690966D-01
      0.4445530000D+02  0.2608010331D+00
      0.1302900000D+02  0.6164620782D+00
      0.1827730000D+01  0.2210060280D+00
 SP   3 1.00       0.000000000000
      0.2096420000D+02  0.1146600807D+00  0.4024869267D-01
      0.4803310000D+01  0.9199996477D+00  0.2375939567D+00
      0.1459330000D+01 -0.3030682134D-02  0.8158538515D+00
 SP   1 1.00       0.000000000000
      0.4834560000D+00  0.1000000000D+01  0.1000000000D+01
 SP   1 1.00       0.000000000000
      0.1455850000D+00  0.1000000000D+01  0.1000000000D+01
 SP   1 1.00       0.000000000000
      0.4380000000D-01  0.1000000000D+01  0.1000000000D+01
 D   1 1.00       0.000000000000
      0.6260000000D+00  0.1000000000D+01
 ****
      3 0
 S   3 1.00       0.000000000000
      0.3386500000D+02  0.2549381454D-01
      0.5094790000D+01  0.1903731086D+00
      0.1158790000D+01  0.8521614860D+00
 S   1 1.00       0.000000000000
      0.3258400000D+00  0.1000000000D+01
 S   1 1.00       0.000000000000
      0.1027410000D+00  0.1000000000D+01
 P   1 1.00       0.000000000000
      0.7500000000D+00  0.1000000000D+01
 ****
      4 0
 S   3 1.00       0.000000000000
      0.3386500000D+02  0.2549381454D-01
      0.5094790000D+01  0.1903731086D+00
      0.1158790000D+01  0.8521614860D+00
 S   1 1.00       0.000000000000
      0.3258400000D+00  0.1000000000D+01
 S   1 1.00       0.000000000000
      0.1027410000D+00  0.1000000000D+01
 P   1 1.00       0.000000000000
      0.7500000000D+00  0.1000000000D+01
 ****
      5 0
 S   3 1.00       0.000000000000
      0.3386500000D+02  0.2549381454D-01
      0.5094790000D+01  0.1903731086D+00
      0.1158790000D+01  0.8521614860D+00
 S   1 1.00       0.000000000000
      0.3258400000D+00  0.1000000000D+01
 S   1 1.00       0.000000000000
      0.1027410000D+00  0.1000000000D+01
 P   1 1.00       0.000000000000
      0.7500000000D+00  0.1000000000D+01
 ****
      6 0
 S   6 1.00       0.000000000000
      0.8588500000D+04  0.1895150083D-02
      0.1297230000D+04  0.1438590063D-01
      0.2992960000D+03  0.7073200310D-01
      0.8737710000D+02  0.2400010105D+00
      0.2567890000D+02  0.5947970261D+00
      0.3740040000D+01  0.2808020123D+00
 SP   3 1.00       0.000000000000
      0.4211750000D+02  0.1138890124D+00  0.3651139738D-01
      0.9628370000D+01  0.9208111006D+00  0.2371529830D+00
      0.2853320000D+01 -0.3274470358D-02  0.8197019412D+00
 SP   1 1.00       0.000000000000
      0.9056610000D+00  0.1000000000D+01  0.1000000000D+01
 SP   1 1.00       0.000000000000
      0.2556110000D+00  0.1000000000D+01  0.1000000000D+01
 SP   1 1.00       0.000000000000
      0.8450000000D-01  0.1000000000D+01  0.1000000000D+01
 D   1 1.00       0.000000000000
      0.1292000000D+01  0.1000000000D+01
 ****
      7 0
 S   3 1.00       0.000000000000
      0.3386500000D+02  0.2549381454D-01
      0.5094790000D+01  0.1903731086D+00
      0.1158790000D+01  0.8521614860D+00
 S   1 1.00       0.000000000000
      0.3258400000D+00  0.1000000000D+01
 S   1 1.00       0.000000000000
      0.1027410000D+00  0.1000000000D+01
 P   1 1.00       0.000000000000
      0.7500000000D+00  0.1000000000D+01
 ****
      8 0
 S   3 1.00       0.000000000000
      0.3386500000D+02  0.2549381454D-01
      0.5094790000D+01  0.1903731086D+00
      0.1158790000D+01  0.8521614860D+00
 S   1 1.00       0.000000000000
      0.3258400000D+00  0.1000000000D+01
 S   1 1.00       0.000000000000
      0.1027410000D+00  0.1000000000D+01
 P   1 1.00       0.000000000000
      0.7500000000D+00  0.1000000000D+01
 ****
      9 0
 S   3 1.00       0.000000000000
      0.3386500000D+02  0.2549381454D-01
      0.5094790000D+01  0.1903731086D+00
      0.1158790000D+01  0.8521614860D+00
 S   1 1.00       0.000000000000
      0.3258400000D+00  0.1000000000D+01
 S   1 1.00       0.000000000000
      0.1027410000D+00  0.1000000000D+01
 P   1 1.00       0.000000000000
      0.7500000000D+00  0.1000000000D+01
 ****

   102 basis functions,   156 primitive gaussians,   105 cartesian basis functions
    13 alpha electrons       13 beta electrons
       nuclear repulsion energy        81.5863692560 Hartrees.
 IExCor= 1614 DFT=T Ex+Corr=B971 ExCW=0 ScaHFX=  0.210000
 ScaDFX=  1.000000  1.000000  1.000000  1.000000 ScalE2=  1.000000  1.000000
 IRadAn=      5 IRanWt=     -1 IRanGd=            0 ICorTp=0 IEmpDi=  4
 NAtoms=    9 NActive=    9 NUniq=    9 SFac= 1.00D+00 NAtFMM=   60 NAOKFM=F Big=F
 Integral buffers will be    131072 words long.
 Raffenetti 2 integral format.
 Two-electron integral symmetry is turned off.
 Leave Link  301 at Mon Sep 16 07:21:48 2013, MaxMem=   524288000 cpu:         0.6
 (Enter /opt/g09/l302.exe)
 NPDir=0 NMtPBC=     1 NCelOv=     1 NCel=       1 NClECP=     1 NCelD=      1
         NCelK=      1 NCelE2=     1 NClLst=     1 CellRange=     0.0.
 One-electron integrals computed using PRISM.
 NBasis=   102 RedAO= T EigKep=  1.31D-04  NBF=   102
 NBsUse=   102 1.00D-06 EigRej= -1.00D+00 NBFU=   102
 Precomputing XC quadrature grid using
 IXCGrd= 4 IRadAn=           5 IRanWt=          -1 IRanGd=           0 AccXCQ= 0.00D+00.
 Generated NRdTot=       0 NPtTot=           0 NUsed=           0 NTot=          32
 NSgBfM=   105   105   105   105   105 MxSgAt=     9 MxSgA2=     9.
 Leave Link  302 at Mon Sep 16 07:21:48 2013, MaxMem=   524288000 cpu:         1.6
 (Enter /opt/g09/l303.exe)
 DipDrv:  MaxL=1.
 Leave Link  303 at Mon Sep 16 07:21:48 2013, MaxMem=   524288000 cpu:         0.3
 (Enter /opt/g09/l401.exe)
 Initial guess from the checkpoint file:  "/scratch/pb556/g09_runs//Gau-5665.chk"
 B after Tr=     0.000000    0.000000    0.000000
         Rot=    1.000000    0.000000    0.000000    0.000000 Ang=   0.00 deg.
 Guess basis will be translated and rotated to current coordinates.
 JPrj=2 DoOrth=T DoCkMO=T.
 Leave Link  401 at Mon Sep 16 07:21:48 2013, MaxMem=   524288000 cpu:         0.8
 (Enter /opt/g09/l502.exe)
 Closed shell SCF:
 Using DIIS extrapolation, IDIIS=  1040.
 Two-electron integral symmetry not used.
 Keep R1 ints in memory in canonical form, NReq=14782490.
 IVT=       53113 IEndB=       53113 NGot=   524288000 MDV=   510435257
 LenX=   510435257 LenY=   510423791
 Requested convergence on RMS density matrix=1.00D-08 within 128 cycles.
 Requested convergence on MAX density matrix=1.00D-06.
 Requested convergence on             energy=1.00D-06.
 No special actions if energy rises.
 FoFCou: FMM=F IPFlag=           0 FMFlag=           0 FMFlg1=           0
         NFxFlg=           0 DoJE=F BraDBF=F KetDBF=F FulRan=T
         wScrn=  0.000000 ICntrl=     600 IOpCl=  0 I1Cent=           0 NGrid=           0
         NMat0=    1 NMatS0=   5253 NMatT0=    0 NMatD0=    1 NMtDS0=    0 NMtDT0=    0
 Symmetry not used in FoFCou.

 Cycle   1  Pass 1  IDiag  1:
 E= -155.038404228597    
 DIIS: error= 2.70D-09 at cycle   1 NSaved=   1.
 NSaved= 1 IEnMin= 1 EnMin= -155.038404228597     IErMin= 1 ErrMin= 2.70D-09
 ErrMax= 2.70D-09  0.00D+00 EMaxC= 1.00D-01 BMatC= 8.56D-16 BMatP= 8.56D-16
 IDIUse=1 WtCom= 1.00D+00 WtEn= 0.00D+00
 Coeff-Com:  0.100D+01
 Coeff:      0.100D+01
 Gap=     0.288 Goal=   None    Shift=    0.000
 RMSDP=7.93D-10 MaxDP=1.85D-08              OVMax= 1.81D-08

 SCF Done:  E(RB971) =  -155.038404229     A.U. after    1 cycles
            NFock=  1  Conv=0.79D-09     -V/T= 2.0036
 KE= 1.544793969047D+02 PE=-5.258474082550D+02 EE= 1.347432378657D+02
 Leave Link  502 at Mon Sep 16 07:21:49 2013, MaxMem=   524288000 cpu:         7.6
 (Enter /opt/g09/l508.exe)
 QCSCF skips out because SCF is already converged.
 Leave Link  508 at Mon Sep 16 07:21:49 2013, MaxMem=   524288000 cpu:         0.0
 (Enter /opt/g09/l801.exe)
 DoSCS=F DFT=T ScalE2(SS,OS)=  1.000000  1.000000
 Range of M.O.s used for correlation:     1   102
 NBasis=   102 NAE=    13 NBE=    13 NFC=     0 NFV=     0
 NROrb=    102 NOA=    13 NOB=    13 NVA=    89 NVB=    89

 **** Warning!!: The largest alpha MO coefficient is  0.26260755D+02

 Leave Link  801 at Mon Sep 16 07:21:49 2013, MaxMem=   524288000 cpu:         0.3
 (Enter /opt/g09/l1101.exe)
 Using compressed storage, NAtomX=     9.
 Will process     10 centers per pass.
 Leave Link 1101 at Mon Sep 16 07:21:50 2013, MaxMem=   524288000 cpu:         1.4
 (Enter /opt/g09/l1102.exe)
 Symmetrizing basis deriv contribution to polar:
 IMax=3 JMax=2 DiffMx= 0.00D+00
 Leave Link 1102 at Mon Sep 16 07:21:50 2013, MaxMem=   524288000 cpu:         0.3
 (Enter /opt/g09/l1110.exe)
 Forming Gx(P) for the SCF density, NAtomX=     9.
 Integral derivatives from FoFJK, PRISM(SPDF).
 Do as many integral derivatives as possible in FoFJK.
 G2DrvN: MDV=     524287824.
 G2DrvN: will do    10 centers at a time, making    1 passes.
 Calling FoFCou, ICntrl=  3107 FMM=F I1Cent=   0 AccDes= 0.00D+00.
 FoFJK:  IHMeth= 1 ICntrl=    3107 DoSepK=F KAlg= 0 I1Cent=   0 FoldK=F
 IRaf=         0 NMat=   1 IRICut=       1 DoRegI=T DoRafI=F ISym2E= 0.
 FoFCou: FMM=F IPFlag=           0 FMFlag=      100000 FMFlg1=           0
         NFxFlg=           0 DoJE=F BraDBF=F KetDBF=F FulRan=T
         wScrn=  0.000000 ICntrl=    3107 IOpCl=  0 I1Cent=           0 NGrid=           0
         NMat0=    1 NMatS0=      1 NMatT0=    0 NMatD0=    1 NMtDS0=    0 NMtDT0=    0
 Symmetry not used in FoFCou.
 End of G2Drv F.D. properties file   721 does not exist.
 End of G2Drv F.D. properties file   722 does not exist.
 End of G2Drv F.D. properties file   788 does not exist.
 Leave Link 1110 at Mon Sep 16 07:22:01 2013, MaxMem=   524288000 cpu:        91.8
 (Enter /opt/g09/l1002.exe)
 Minotr:  Closed shell wavefunction.
          IDoAtm=111111111
          Direct CPHF calculation.
          Differentiating once with respect to electric field.
                with respect to dipole field.
          Differentiating once with respect to nuclear coordinates.
          Requested convergence is 1.0D-08 RMS, and 1.0D-07 maximum.
          Secondary convergence is 1.0D-12 RMS, and 1.0D-12 maximum.
          NewPWx=T KeepS1=F KeepF1=F KeepIn=T MapXYZ=F SortEE=F KeepMc=T.
          MDV=     524287804 using IRadAn=       1.
 Generate precomputed XC quadrature information.
 Keep R1 ints in memory in canonical form, NReq=14729996.
 FoFCou: FMM=F IPFlag=           0 FMFlag=           0 FMFlg1=           0
         NFxFlg=           0 DoJE=F BraDBF=F KetDBF=F FulRan=T
         wScrn=  0.000000 ICntrl=     600 IOpCl=  0 I1Cent=           0 NGrid=           0
         NMat0=    1 NMatS0=   5253 NMatT0=    0 NMatD0=    1 NMtDS0=    0 NMtDT0=    0
 Symmetry not used in FoFCou.
          Solving linear equations simultaneously, MaxMat=       0.
          There are    30 degrees of freedom in the 1st order CPHF.  IDoFFX=6 NUNeed=     3.
[...]
     23 -0.895242D-03 -0.339276D-02  0.747223D-04  0.261101D-02  0.302745D-02
     24  0.339258D-02  0.895344D-03 -0.742112D-04 -0.261616D-02  0.636420D-02
     25 -0.181288D-02  0.207024D-02 -0.267707D-03 -0.403062D-02 -0.270380D-02
     26 -0.143271D-02 -0.259751D-02 -0.193802D-03 -0.141638D-02 -0.231694D-02
     27  0.285511D-02  0.169060D-02 -0.342735D-03 -0.664355D-02  0.101982D-02
     28 -0.206950D-02  0.181318D-02  0.268165D-03  0.402844D-02 -0.639027D-02
     29 -0.168933D-02 -0.285458D-02  0.342071D-03  0.664268D-02 -0.600341D-02
     30  0.259849D-02  0.143353D-02  0.193137D-03  0.141552D-02 -0.266666D-02
     31  0.352865D-02 -0.352585D-02 -0.429988D-05  0.000000D+00  0.684482D-02
     32  0.746619D-03  0.517090D-02 -0.201055D-02 -0.126558D-02 -0.394056D-02
     33 -0.516981D-02 -0.752911D-03  0.200554D-02  0.126663D-02 -0.289107D-02
               11            12            13            14            15 
     11  0.102559D+00
     12  0.128063D-01  0.493945D-01
     13 -0.392298D-01  0.896431D-02  0.493955D-01
     14 -0.396196D-01  0.906635D-02  0.907079D-02  0.506968D-01
     15 -0.126276D-01 -0.372277D-02 -0.373108D-02  0.823092D-02  0.163776D+00
     16 -0.411551D-02 -0.269486D-02  0.366470D-02 -0.420078D-02 -0.374711D-01
     17  0.157323D-01  0.366213D-02 -0.269096D-02 -0.419859D-02 -0.374810D-01
     18  0.534346D-02  0.221757D-02  0.689765D-03 -0.112088D-02 -0.587399D-01
     19 -0.962796D-03  0.689432D-03  0.222094D-02 -0.111999D-02 -0.587367D-01
     20 -0.308956D-02 -0.977892D-04 -0.994973D-04  0.221746D-02  0.258236D-01
     21 -0.167814D-02 -0.191279D-02 -0.191211D-02  0.831249D-03  0.213771D-01
     22 -0.264349D-02  0.647852D-02 -0.647366D-02  0.143383D-05  0.000000D+00
     23 -0.636244D-02  0.528476D-02 -0.575647D-02  0.121518D-02  0.713433D-02
     24 -0.302966D-02  0.575816D-02 -0.528116D-02 -0.121476D-02 -0.713386D-02
     25  0.639110D-02 -0.479074D-02 -0.920763D-03  0.608125D-02 -0.301001D-02
     26  0.267215D-02 -0.598451D-02 -0.203570D-03  0.729500D-02  0.412451D-02
     27  0.600493D-02 -0.551111D-02  0.271741D-03  0.486505D-02 -0.101437D-01
     28  0.269991D-02  0.921530D-03  0.479442D-02 -0.608023D-02  0.301001D-02
     29 -0.101904D-02 -0.272238D-03  0.551162D-02 -0.486648D-02  0.101445D-01
     30  0.231374D-02  0.201166D-03  0.598693D-02 -0.729643D-02 -0.412365D-02
     31 -0.684007D-02 -0.245213D-02  0.244980D-02 -0.155141D-05  0.638473D-05
     32  0.289194D-02  0.184588D-02 -0.113060D-03  0.664229D-03 -0.214189D-01
     33  0.393971D-02  0.112574D-03 -0.184661D-02 -0.664139D-03  0.214210D-01
               16            17            18            19            20 
     16  0.717591D-01
     17 -0.824446D-02  0.717782D-01
     18 -0.237340D-01  0.205117D-01  0.606188D-01
     19  0.205083D-01 -0.237402D-01  0.814062D-02  0.606225D-01
     20 -0.216221D-01 -0.216279D-01 -0.608296D-02 -0.608061D-02  0.286619D-01
     21 -0.530021D-02 -0.529759D-02 -0.715153D-02 -0.715166D-02  0.314892D-02
     22  0.368630D-02 -0.368642D-02 -0.133590D-01  0.133594D-01  0.000000D+00
     23 -0.571726D-02 -0.669608D-02  0.102062D-01 -0.754744D-03 -0.433627D-02
     24  0.669434D-02  0.571970D-02  0.755523D-03 -0.102082D-01  0.433638D-02
     25  0.236425D-02 -0.111968D-03 -0.115621D-01  0.129903D-01 -0.609424D-03
     26 -0.703931D-02 -0.312162D-02  0.120032D-01 -0.112391D-02 -0.494554D-02
     27  0.537229D-02  0.929415D-02  0.255245D-02 -0.105774D-01  0.372712D-02
     28  0.109928D-03 -0.236434D-02 -0.129892D-01  0.115625D-01  0.609960D-03
     29 -0.929364D-02 -0.537399D-02  0.105761D-01 -0.255170D-02 -0.372616D-02
     30  0.311797D-02  0.704179D-02  0.112535D-02 -0.120052D-01  0.494650D-02
     31  0.237170D-01 -0.237238D-01 -0.725720D-02  0.725519D-02  0.214757D-05
     32 -0.264904D-01 -0.246565D-02  0.223104D-01  0.139985D-01  0.139445D-01
     33  0.246320D-02  0.264970D-01 -0.139981D-01 -0.223156D-01 -0.139459D-01
               21            22            23            24            25 
     21  0.170943D+00
     22  0.000000D+00  0.161656D-01
     23  0.131711D-02  0.207196D-02  0.155154D-01
     24 -0.131753D-02  0.207172D-02  0.257064D-02  0.155159D-01
     25 -0.562021D-03  0.637782D-02 -0.816701D-02 -0.753361D-02  0.167094D-01
     26  0.754524D-03 -0.771578D-02  0.527639D-02 -0.703469D-02  0.216454D-02
     27 -0.188012D-02 -0.771602D-02 -0.766833D-02  0.591060D-02  0.279793D-02
     28  0.562693D-03  0.637792D-02 -0.753338D-02 -0.816740D-02  0.675229D-02
     29  0.187924D-02 -0.771568D-02  0.591002D-02 -0.766848D-02 -0.779253D-02
     30 -0.755409D-03 -0.771592D-02 -0.703470D-02  0.527681D-02 -0.715914D-02
     31 -0.368449D-05 -0.276093D-02  0.248790D-02  0.248655D-02 -0.412398D-02
     32 -0.260711D-02  0.693837D-03 -0.105854D-02 -0.169566D-02  0.175566D-02
     33  0.260282D-02  0.693722D-03 -0.169567D-02 -0.105783D-02  0.160235D-02
               26            27            28            29            30 
     26  0.151567D-01
     27  0.284562D-02  0.164246D-01
     28 -0.715900D-02 -0.779303D-02  0.167100D-01
     29  0.583316D-02 -0.774534D-02  0.279870D-02  0.164244D-01
     30 -0.647792D-02  0.583359D-02  0.216468D-02  0.284590D-02  0.151574D-01
     31  0.112485D-02  0.112349D-02 -0.412505D-02  0.112377D-02  0.112242D-02
     32  0.328600D-05 -0.633834D-03  0.160311D-02 -0.149268D-03 -0.786388D-03
     33 -0.787044D-03 -0.149195D-03  0.175473D-02 -0.634671D-03  0.317745D-05
               31            32            33 
     31  0.172631D-01
     32 -0.741742D-02  0.250515D-01
     33 -0.741883D-02 -0.154623D-01  0.250564D-01
 Leave Link  716 at Mon Sep 16 07:22:37 2013, MaxMem=   524288000 cpu:         0.3
 (Enter /opt/g09/l103.exe)

 GradGradGradGradGradGradGradGradGradGradGradGradGradGradGradGradGradGrad
 Berny optimization.
 Red2BG is reusing G-inverse.
 Internal  Forces:  Max     0.000003596 RMS     0.000000934
 Search for a local minimum.
 Step number   1 out of a maximum of    2
 All quantities printed in internal units (Hartrees-Bohrs-Radians)
 Second derivative matrix not updated -- analytic derivatives used.
 ITU=  0
     Eigenvalues ---    0.00196   0.00282   0.04346   0.04416   0.04960
     Eigenvalues ---    0.06229   0.09983   0.12001   0.12240   0.13262
     Eigenvalues ---    0.15689   0.16429   0.24178   0.30244   0.31227
     Eigenvalues ---    0.31346   0.33489   0.33538   0.34197   0.37373
     Eigenvalues ---    0.54035
 Angle between quadratic step and forces=  75.56 degrees.
 Linear search not attempted -- first point.
 Iteration  1 RMS(Cart)=  0.00001967 RMS(Int)=  0.00000000
 Iteration  2 RMS(Cart)=  0.00000000 RMS(Int)=  0.00000000
 ITry= 1 IFail=0 DXMaxC= 5.82D-05 DCOld= 1.00D+10 DXMaxT= 3.00D-01 DXLimC= 3.00D+00 Rises=F
 Variable       Old X    -DE/DX   Delta X   Delta X   Delta X     New X
                                 (Linear)    (Quad)   (Total)
    R1        2.87401   0.00000   0.00000   0.00000   0.00000   2.87401
    R2        2.06967   0.00000   0.00000   0.00000   0.00000   2.06967
    R3        2.06801   0.00000   0.00000  -0.00001  -0.00001   2.06799
    R4        2.06799   0.00000   0.00000   0.00001   0.00001   2.06799
    R5        2.69741   0.00000   0.00000   0.00000   0.00000   2.69741
    R6        2.08011   0.00000   0.00000   0.00000   0.00000   2.08010
    R7        2.08009   0.00000   0.00000   0.00001   0.00001   2.08010
    R8        1.81520   0.00000   0.00000   0.00000   0.00000   1.81520
    A1        1.92713   0.00000   0.00000   0.00001   0.00001   1.92714
    A2        1.92791   0.00000   0.00000  -0.00001  -0.00001   1.92791
    A3        1.92790   0.00000   0.00000   0.00000   0.00000   1.92790
    A4        1.89452   0.00000   0.00000   0.00001   0.00001   1.89453
    A5        1.89453   0.00000   0.00000   0.00000   0.00000   1.89453
    A6        1.89090   0.00000   0.00000  -0.00001  -0.00001   1.89089
    A7        1.88483   0.00000   0.00000   0.00000   0.00000   1.88483
    A8        1.92024   0.00000   0.00000   0.00000   0.00000   1.92024
    A9        1.92025   0.00000   0.00000   0.00000   0.00000   1.92025
   A10        1.92892   0.00000   0.00000   0.00000   0.00000   1.92892
   A11        1.92891   0.00000   0.00000   0.00000   0.00000   1.92891
   A12        1.88101   0.00000   0.00000   0.00000   0.00000   1.88101
   A13        1.89638   0.00000   0.00000  -0.00001  -0.00001   1.89637
    D1       -3.14156   0.00000   0.00000  -0.00002  -0.00002  -3.14158
    D2       -1.03488   0.00000   0.00000  -0.00002  -0.00002  -1.03491
    D3        1.03496   0.00000   0.00000  -0.00003  -0.00003   1.03493
    D4        1.04589   0.00000   0.00000  -0.00003  -0.00003   1.04586
    D5       -3.13062   0.00000   0.00000  -0.00003  -0.00003  -3.13066
    D6       -1.06078   0.00000   0.00000  -0.00004  -0.00004  -1.06082
    D7       -1.04582   0.00000   0.00000  -0.00002  -0.00002  -1.04584
    D8        1.06085   0.00000   0.00000  -0.00002  -0.00002   1.06083
    D9        3.13069   0.00000   0.00000  -0.00002  -0.00002   3.13067
   D10        3.14151   0.00000   0.00000   0.00005   0.00005   3.14156
   D11        1.04026   0.00000   0.00000   0.00005   0.00005   1.04031
   D12       -1.04043   0.00000   0.00000   0.00005   0.00005  -1.04038
         Item               Value     Threshold  Converged?
 Maximum Force            0.000004     0.000015     YES
 RMS     Force            0.000001     0.000010     YES
 Maximum Displacement     0.000058     0.000060     YES
 RMS     Displacement     0.000020     0.000040     YES
 Predicted change in Energy=-8.279159D-11
 Optimization completed.
    -- Stationary point found.
                           ----------------------------
                           !   Optimized Parameters   !
                           ! (Angstroms and Degrees)  !
 --------------------------                            --------------------------
 ! Name  Definition              Value          Derivative Info.                !
 --------------------------------------------------------------------------------
 ! R1    R(1,2)                  1.5209         -DE/DX =    0.0                 !
 ! R2    R(1,3)                  1.0952         -DE/DX =    0.0                 !
 ! R3    R(1,4)                  1.0943         -DE/DX =    0.0                 !
 ! R4    R(1,5)                  1.0943         -DE/DX =    0.0                 !
 ! R5    R(2,6)                  1.4274         -DE/DX =    0.0                 !
 ! R6    R(2,7)                  1.1007         -DE/DX =    0.0                 !
 ! R7    R(2,8)                  1.1007         -DE/DX =    0.0                 !
 ! R8    R(6,9)                  0.9606         -DE/DX =    0.0                 !
 ! A1    A(2,1,3)              110.4163         -DE/DX =    0.0                 !
 ! A2    A(2,1,4)              110.4613         -DE/DX =    0.0                 !
 ! A3    A(2,1,5)              110.4607         -DE/DX =    0.0                 !
 ! A4    A(3,1,4)              108.5482         -DE/DX =    0.0                 !
 ! A5    A(3,1,5)              108.5484         -DE/DX =    0.0                 !
 ! A6    A(4,1,5)              108.3405         -DE/DX =    0.0                 !
 ! A7    A(1,2,6)              107.9928         -DE/DX =    0.0                 !
 ! A8    A(1,2,7)              110.0217         -DE/DX =    0.0                 !
 ! A9    A(1,2,8)              110.0222         -DE/DX =    0.0                 !
 ! A10   A(6,2,7)              110.5188         -DE/DX =    0.0                 !
 ! A11   A(6,2,8)              110.5185         -DE/DX =    0.0                 !
 ! A12   A(7,2,8)              107.774          -DE/DX =    0.0                 !
 ! A13   A(2,6,9)              108.6546         -DE/DX =    0.0                 !
 ! D1    D(3,1,2,6)           -179.9979         -DE/DX =    0.0                 !
 ! D2    D(3,1,2,7)            -59.2945         -DE/DX =    0.0                 !
 ! D3    D(3,1,2,8)             59.2988         -DE/DX =    0.0                 !
 ! D4    D(4,1,2,6)             59.9252         -DE/DX =    0.0                 !
 ! D5    D(4,1,2,7)           -179.3714         -DE/DX =    0.0                 !
 ! D6    D(4,1,2,8)            -60.7781         -DE/DX =    0.0                 !
 ! D7    D(5,1,2,6)            -59.9212         -DE/DX =    0.0                 !
 ! D8    D(5,1,2,7)             60.7822         -DE/DX =    0.0                 !
 ! D9    D(5,1,2,8)            179.3755         -DE/DX =    0.0                 !
 ! D10   D(1,2,6,9)            179.9951         -DE/DX =    0.0                 !
 ! D11   D(7,2,6,9)             59.6028         -DE/DX =    0.0                 !
 ! D12   D(8,2,6,9)            -59.6122         -DE/DX =    0.0                 !
 --------------------------------------------------------------------------------
 GradGradGradGradGradGradGradGradGradGradGradGradGradGradGradGradGradGrad

 Leave Link  103 at Mon Sep 16 07:22:37 2013, MaxMem=   524288000 cpu:         0.1
 (Enter /opt/g09/l9999.exe)
 1\1\GINC-MONDRIAN\Freq\RB971\6-311+G(d,p)\C2H6O1\PB556\16-Sep-2013\0\\
 #P Geom=AllCheck Guess=TCheck SCRF=Check GenChk RB971/6-311+G(d,p) Fre
 q\\a-fine-64-17-5\\0,1\C,1.01959,0.88434,0.97338\C,1.87547,1.99049,1.5
 708\H,-0.00765,1.23401,0.825\H,0.9989,0.01532,1.63818\H,1.42294,0.5685
 8,0.00634\O,3.19792,1.48117,1.74171\H,1.88215,2.86471,0.90197\H,1.4572
 2,2.31018,2.53749\H,3.74725,2.173,2.11892\\Version=ES64L-G09RevD.01\HF
 =-155.0384042\RMSD=7.931e-10\RMSF=1.514e-06\ZeroPoint=0.0795443\Therma
 l=0.0838962\Dipole=-0.2301921,0.6258457,0.152329\DipoleDeriv=0.0181734
 ,-0.0576768,-0.0358677,-0.0958825,0.0124715,-0.0481219,-0.0488396,-0.0
 382195,0.0552831,0.8787885,-0.1304126,0.0766252,-0.0840743,0.3670278,-
 0.0375931,0.0923525,-0.0496607,0.4207552,-0.1245082,0.0424206,-0.03960
 38,0.0795917,0.0298642,0.0025541,-0.0270007,-0.0070967,0.0738826,0.070
 6128,-0.0011333,-0.0124773,-0.0378998,-0.0776643,0.0652786,-0.001168,0
 .1037175,-0.0177698,0.0390109,0.0187482,0.0817104,-0.0170954,0.029237,
 -0.0506111,0.0457863,-0.070161,-0.0931044,-1.0009288,0.1132394,-0.0766
 822,0.1195085,-0.3515209,0.1010136,-0.0745447,0.0994016,-0.5436817,-0.
 0454554,-0.0150024,-0.0149045,0.0307832,-0.1605041,0.1064239,-0.028777
 3,0.1367417,-0.0541245,-0.0847289,0.0352352,0.0518191,0.0456188,-0.008
 8013,-0.0606227,0.0847335,-0.1055221,-0.16663,0.2490357,-0.0054184,-0.
 0306192,-0.0405502,0.1598901,-0.0783214,-0.0425422,-0.0692009,0.325389
 3\Polar=32.9330839,0.9666553,30.5530338,1.5238737,1.0058404,29.064941\
 PG=C01 [X(C2H6O1)]\NImag=0\\0.54283892,-0.03926940,0.52017707,-0.01923
 425,-0.02556380,0.55189007,-0.10217311,-0.05658030,-0.02493238,0.45229
 767,-0.04290083,-0.15633650,-0.03701097,0.00832377,0.54541883,-0.02029
 543,-0.04056719,-0.09908039,-0.03060130,-0.00985202,0.56962312,-0.2748
 7131,0.07775906,-0.03332726,-0.01489728,0.01053767,0.00039363,0.300370
 38,0.08024859,-0.07488794,0.01077303,-0.02115840,0.01042152,-0.0010597
 7,-0.08600423,0.07801774,-0.03248441,0.01012506,-0.05015459,-0.0103502
 9,0.00717658,-0.00292212,0.03723643,-0.01110807,0.05075529,-0.04604046
 ,-0.00150732,0.00241272,-0.00164139,-0.01642695,0.01215637,0.00172757,
 0.02402573,-0.01896875,0.04613721,-0.00332068,-0.20837548,0.12649532,0
 .00031368,-0.02274209,0.01648716,-0.00057050,-0.00738550,0.00496464,0.
 00513569,0.22930874,0.00276267,0.12833913,-0.14786300,-0.00052232,-0.0
 1267266,0.00877970,0.00032547,0.00167177,-0.00298048,-0.00171516,-0.13
 837072,0.15709631,-0.08336851,0.02835416,0.08872119,0.00630649,-0.0062
 4249,-0.01877039,-0.01017409,0.00755089,0.02706159,-0.00076480,-0.0001
 5112,-0.00080200,0.08709358,0.02649114,-0.06702117,-0.06299127,0.01087
 674,-0.00921005,-0.02459308,0.00305582,-0.00389304,-0.00868497,-0.0103
 7877,0.00806658,0.02258730,-0.02817423,0.07272649,0.08712244,-0.063879
 40,-0.25195817,0.00538931,-0.00423180,-0.01270710,-0.00209469,0.002166
 81,0.00542721,0.00734583,-0.00613977,-0.01658733,-0.09552728,0.0729776
 8,0.27279980,-0.03677866,0.00824546,-0.00775614,-0.19434753,0.07053193
 ,-0.01028460,-0.00225404,-0.00425352,-0.00219640,0.00162287,0.00079300
 ,0.00143253,0.00187861,0.00060469,-0.00012664,0.46541754,-0.02706260,0
 .01312156,-0.00388047,0.03112110,-0.11185320,-0.00855896,-0.00460245,-
 0.00423022,-0.00284993,0.00080164,0.00265981,0.00078418,0.00056577,0.0
 0167205,0.00093874,0.11910657,0.41290587,-0.01972653,0.00529340,0.0005
 0189,-0.02364225,0.00167997,-0.06832228,-0.00231456,-0.00275937,-0.000
 88874,0.00045878,-0.00038766,0.00024768,0.00083620,0.00211743,0.000976
 27,0.14980720,0.15593233,0.13591566,-0.00014308,-0.01579720,0.01247527
 ,-0.04873822,-0.01293062,0.01060240,0.00035611,0.00061868,0.00022144,-
 0.00174330,-0.00320852,-0.00243991,0.00060482,0.00092912,-0.00045274,-
 0.01601783,0.03416961,-0.02367001,0.06187284,-0.00277340,-0.01925580,0
 .01500711,-0.00987795,-0.19541199,0.11336255,-0.00048321,0.00054456,-0
 .00003164,-0.00298679,-0.00258895,-0.00244588,0.00099721,0.00073188,0.
 00002173,0.01162436,-0.00836294,0.00757217,0.00388299,0.21657748,-0.00
 067886,-0.01204019,0.00876670,0.00979295,0.11588904,-0.14606540,0.0005
 9268,0.00084183,0.00033277,-0.00175040,-0.00295111,-0.00001774,0.00037
 809,0.00035938,0.00109230,-0.00762386,0.00231807,0.00243128,-0.0034099
 1,-0.12791311,0.15183297,0.00800208,-0.00596004,-0.01817976,-0.0748682
 4,0.01971861,0.07248829,0.00060133,0.00077634,0.00052474,0.00039270,0.
 00066203,0.00068983,-0.00188853,-0.00377944,-0.00172553,-0.03116422,0.
 01701987,0.02472713,0.00219180,-0.00050680,0.00327167,0.09577404,0.007
 38900,-0.00702918,-0.02320048,0.02024974,-0.06902564,-0.05303271,-0.00
 015764,0.00075822,0.00033883,0.00103796,0.00079804,0.00029254,-0.00300
 839,-0.00311496,-0.00215854,0.01294594,-0.00323692,-0.01039566,-0.0087
 7969,0.00745400,0.02282286,-0.02890233,0.07332514,0.00391968,-0.003003
 05,-0.01161115,0.07450960,-0.05649259,-0.24639044,-0.00053667,-0.00000
 601,-0.00012787,0.00001054,-0.00015972,0.00123636,-0.00207862,-0.00191
 099,0.00065513,-0.00034538,0.00177396,0.01244727,0.00645302,-0.0048675
 6,-0.01827512,-0.08283937,0.06481564,0.26126633,-0.00746587,0.00475558
 ,-0.00017939,-0.02193841,-0.03061110,-0.01568896,-0.00085867,-0.001804
 07,-0.00104434,0.00030961,0.00034642,0.00026889,0.00031243,0.00037494,
 0.00006929,-0.18835674,-0.17111953,-0.10647596,0.00161685,0.00012359,-
 0.00057235,0.00095903,-0.00077459,0.00090721,0.21542176,0.00119817,-0.
 00039256,0.00037153,0.01673162,0.00873912,0.00781403,0.00046549,0.0006
 5465,0.00006950,0.00029881,0.00025885,-0.00018565,0.00010819,0.0000422
 3,0.00030455,-0.21959843,-0.30267602,-0.15905259,0.00111563,0.00031177
 ,0.00067323,0.00097176,0.00007129,-0.00014968,0.19870876,0.29299067,-0
 .00138531,0.00129605,-0.00049135,0.00035667,-0.00448555,-0.00291508,-0
 .00027502,-0.00052022,0.00055853,0.00005008,0.00006186,0.00008851,0.00
 018123,0.00013852,0.00030190,-0.12290670,-0.14645791,-0.08330904,0.000
 22045,-0.00070538,-0.00009775,0.00104300,0.00051753,0.00079950,0.12271
 561,0.15015509,0.08506479\\0.00000273,0.00000098,-0.00000442,-0.000002
 31,0.00000057,0.00000180,0.00000030,0.00000052,0.00000020,-0.00000087,
 -0.00000262,0.00000238,-0.00000094,0.00000115,0.00000176,-0.00000029,0
 .00000014,0.00000038,-0.00000015,0.00000050,-0.00000048,0.00000082,-0.
 00000112,-0.00000169,0.00000071,-0.00000011,0.00000006\\\@


 IF AT FIRST YOU DON'T SUCCEED, TRY, TRY AGAIN.
 THEN GIVE UP;
 THERE'S NO USE BEING A DAMN FOOL ABOUT IT.

                                 -- W. C. FIELDS
 Job cpu time:       0 days  0 hours  6 minutes 27.9 seconds.
 File lengths (MBytes):  RWF=     12 Int=      0 D2E=      0 Chk=      2 Scr=      1
 Normal termination of Gaussian 09 at Mon Sep 16 07:22:37 2013.
