 Entering Gaussian System, Link 0=g09
 Input=a-freq-fine-115-07-1.gau
 Output=a-freq-fine-115-07-1.log
 Initial command:
 /opt/g09/l1.exe "/scratch/pb556/g09_runs//Gau-27039.inp" -scrdir="/scratch/pb556/g09_runs//"
 Entering Link 1 = /opt/g09/l1.exe PID=     27048.
  
 Copyright (c) 1988,1990,1992,1993,1995,1998,2003,2009,2013,
            Gaussian, Inc.  All Rights Reserved.
  
 This is part of the Gaussian(R) 09 program.  It is based on
 the Gaussian(R) 03 system (copyright 2003, Gaussian, Inc.),
 the Gaussian(R) 98 system (copyright 1998, Gaussian, Inc.),
 the Gaussian(R) 94 system (copyright 1995, Gaussian, Inc.),
 the Gaussian 92(TM) system (copyright 1992, Gaussian, Inc.),
 the Gaussian 90(TM) system (copyright 1990, Gaussian, Inc.),
 the Gaussian 88(TM) system (copyright 1988, Gaussian, Inc.),
 the Gaussian 86(TM) system (copyright 1986, Carnegie Mellon
 University), and the Gaussian 82(TM) system (copyright 1983,
 Carnegie Mellon University). Gaussian is a federally registered
 trademark of Gaussian, Inc.
  
 This software contains proprietary and confidential information,
 including trade secrets, belonging to Gaussian, Inc.
  
 This software is provided under written license and may be
 used, copied, transmitted, or stored only in accord with that
 written license.
  
 The following legend is applicable only to US Government
 contracts under FAR:
  
                    RESTRICTED RIGHTS LEGEND
  
 Use, reproduction and disclosure by the US Government is
 subject to restrictions as set forth in subparagraphs (a)
 and (c) of the Commercial Computer Software - Restricted
 Rights clause in FAR 52.227-19.
  
 Gaussian, Inc.
 340 Quinnipiac St., Bldg. 40, Wallingford CT 06492
  
  
 ---------------------------------------------------------------
 Warning -- This program may not be used in any manner that
 competes with the business of Gaussian, Inc. or will provide
 assistance to any competitor of Gaussian, Inc.  The licensee
 of this program is prohibited from giving any competitor of
 Gaussian, Inc. access to this program.  By using this program,
 the user acknowledges that Gaussian, Inc. is engaged in the
 business of creating and licensing software in the field of
 computational chemistry and represents and warrants to the
 licensee that it is not a competitor of Gaussian, Inc. and that
 it will not use this program in any manner prohibited above.
 ---------------------------------------------------------------
  

 Cite this work as:
 Gaussian 09, Revision D.01,
 M. J. Frisch, G. W. Trucks, H. B. Schlegel, G. E. Scuseria, 
 M. A. Robb, J. R. Cheeseman, G. Scalmani, V. Barone, B. Mennucci, 
 G. A. Petersson, H. Nakatsuji, M. Caricato, X. Li, H. P. Hratchian, 
 A. F. Izmaylov, J. Bloino, G. Zheng, J. L. Sonnenberg, M. Hada, 
 M. Ehara, K. Toyota, R. Fukuda, J. Hasegawa, M. Ishida, T. Nakajima, 
 Y. Honda, O. Kitao, H. Nakai, T. Vreven, J. A. Montgomery, Jr., 
 J. E. Peralta, F. Ogliaro, M. Bearpark, J. J. Heyd, E. Brothers, 
 K. N. Kudin, V. N. Staroverov, T. Keith, R. Kobayashi, J. Normand, 
 K. Raghavachari, A. Rendell, J. C. Burant, S. S. Iyengar, J. Tomasi, 
 M. Cossi, N. Rega, J. M. Millam, M. Klene, J. E. Knox, J. B. Cross, 
 V. Bakken, C. Adamo, J. Jaramillo, R. Gomperts, R. E. Stratmann, 
 O. Yazyev, A. J. Austin, R. Cammi, C. Pomelli, J. W. Ochterski, 
 R. L. Martin, K. Morokuma, V. G. Zakrzewski, G. A. Voth, 
 P. Salvador, J. J. Dannenberg, S. Dapprich, A. D. Daniels, 
 O. Farkas, J. B. Foresman, J. V. Ortiz, J. Cioslowski, 
 and D. J. Fox, Gaussian, Inc., Wallingford CT, 2013.
 
 ******************************************
 Gaussian 09:  ES64L-G09RevD.01 24-Apr-2013
                15-Sep-2013 
 ******************************************
 %NProcShared=8
 Will use up to    8 processors via shared memory.
 %Mem=500MW
 ----------------------------------------------------------------------
 #p rB971/6-311+G(d,p) Opt=(Tight, NewEstmFC, MaxCyc=400) Freq GFInput 
 Population=None Integral(Grid=UltraFine) SCF=(MaxCyc=400, XQC) Guess=M
 ix NoSymmetry
 ----------------------------------------------------------------------
 1/6=400,7=10,10=7,14=-1,18=20,19=15,26=4,38=1/1,3;
 2/9=110,12=2,15=1,17=6,18=5,40=1/2;
 3/5=4,6=6,7=111,11=2,16=1,24=10,25=1,30=1,71=1,74=-20,75=-5,116=1/1,2,3;
 4/13=-1/1;
 5/5=2,7=400,8=3,13=1,38=5/2,8;
 7/29=1,30=1/1,2,3,16;
 1/6=400,7=10,10=7,14=-1,18=20,19=15,26=4/3(2);
 2/9=110,15=1/2;
 99//99;
 2/9=110,15=1/2;
 3/5=4,6=6,7=111,11=2,16=1,25=1,30=1,71=1,74=-20,75=-5,116=1/1,2,3;
 4/5=5,16=3,69=1/1;
 5/5=2,7=400,8=3,13=1,38=5/2,8;
 7/30=1/1,2,3,16;
 1/6=400,7=10,14=-1,18=20,19=15,26=4/3(-5);
 2/9=110,15=1/2;
 99/9=1/99;
 Leave Link    1 at Sun Sep 15 21:51:07 2013, MaxMem=   524288000 cpu:         0.7
 (Enter /opt/g09/l101.exe)
 ---------------
 a-fine-115-07-1
 ---------------
 Symbolic Z-matrix:
 Charge =  0 Multiplicity = 1
 C                     0.67397   0.98901   0.86395 
 C                     1.77026   1.9672    1.18239 
 H                    -0.01998   0.88933   1.70806 
 H                     0.08077   1.33039   0.00628 
 H                     1.0761   -0.00175   0.63098 
 C                     3.07475   1.68597   1.18662 
 H                     1.45161   2.98127   1.42646 
 H                     3.81813   2.44042   1.42618 
 H                     3.4429    0.68986   0.9501 
 
 NAtoms=      9 NQM=        9 NQMF=       0 NMMI=      0 NMMIF=      0
                NMic=       0 NMicF=      0.
                    Isotopes and Nuclear Properties:
 (Nuclear quadrupole moments (NQMom) in fm**2, nuclear magnetic moments (NMagM)
  in nuclear magnetons)

  Atom         1           2           3           4           5           6           7           8           9
 IAtWgt=          12          12           1           1           1          12           1           1           1
 AtmWgt=  12.0000000  12.0000000   1.0078250   1.0078250   1.0078250  12.0000000   1.0078250   1.0078250   1.0078250
 NucSpn=           0           0           1           1           1           0           1           1           1
 AtZEff=   0.0000000   0.0000000   0.0000000   0.0000000   0.0000000   0.0000000   0.0000000   0.0000000   0.0000000
 NQMom=    0.0000000   0.0000000   0.0000000   0.0000000   0.0000000   0.0000000   0.0000000   0.0000000   0.0000000
 NMagM=    0.0000000   0.0000000   2.7928460   2.7928460   2.7928460   0.0000000   2.7928460   2.7928460   2.7928460
 AtZNuc=   6.0000000   6.0000000   1.0000000   1.0000000   1.0000000   6.0000000   1.0000000   1.0000000   1.0000000
 Leave Link  101 at Sun Sep 15 21:51:07 2013, MaxMem=   524288000 cpu:         1.9
 (Enter /opt/g09/l103.exe)

 GradGradGradGradGradGradGradGradGradGradGradGradGradGradGradGradGradGrad
 Berny optimization.
 Initialization pass.
                           ----------------------------
                           !    Initial Parameters    !
                           ! (Angstroms and Degrees)  !
 --------------------------                            --------------------------
 ! Name  Definition              Value          Derivative Info.                !
 --------------------------------------------------------------------------------
 ! R1    R(1,2)                  1.5034         estimate D2E/DX2                !
 ! R2    R(1,3)                  1.0973         estimate D2E/DX2                !
 ! R3    R(1,4)                  1.0973         estimate D2E/DX2                !
 ! R4    R(1,5)                  1.0943         estimate D2E/DX2                !
 ! R5    R(2,6)                  1.3345         estimate D2E/DX2                !
 ! R6    R(2,7)                  1.0906         estimate D2E/DX2                !
 ! R7    R(6,8)                  1.0859         estimate D2E/DX2                !
 ! R8    R(6,9)                  1.088          estimate D2E/DX2                !
 ! A1    A(2,1,3)              110.9371         estimate D2E/DX2                !
 ! A2    A(2,1,4)              110.938          estimate D2E/DX2                !
 ! A3    A(2,1,5)              111.482          estimate D2E/DX2                !
 ! A4    A(3,1,4)              106.7177         estimate D2E/DX2                !
 ! A5    A(3,1,5)              108.2954         estimate D2E/DX2                !
 ! A6    A(4,1,5)              108.2957         estimate D2E/DX2                !
 ! A7    A(1,2,6)              125.197          estimate D2E/DX2                !
 ! A8    A(1,2,7)              116.0618         estimate D2E/DX2                !
 ! A9    A(6,2,7)              118.7411         estimate D2E/DX2                !
 ! A10   A(2,6,8)              121.5656         estimate D2E/DX2                !
 ! A11   A(2,6,9)              121.536          estimate D2E/DX2                !
 ! A12   A(8,6,9)              116.8984         estimate D2E/DX2                !
 ! D1    D(3,1,2,6)            120.7884         estimate D2E/DX2                !
 ! D2    D(3,1,2,7)            -59.2114         estimate D2E/DX2                !
 ! D3    D(4,1,2,6)           -120.7766         estimate D2E/DX2                !
 ! D4    D(4,1,2,7)             59.2235         estimate D2E/DX2                !
 ! D5    D(5,1,2,6)              0.0064         estimate D2E/DX2                !
 ! D6    D(5,1,2,7)           -179.9935         estimate D2E/DX2                !
 ! D7    D(1,2,6,8)            179.9999         estimate D2E/DX2                !
 ! D8    D(1,2,6,9)              0.0021         estimate D2E/DX2                !
 ! D9    D(7,2,6,8)             -0.0003         estimate D2E/DX2                !
 ! D10   D(7,2,6,9)           -179.998          estimate D2E/DX2                !
 --------------------------------------------------------------------------------
 Trust Radius=3.00D-01 FncErr=1.00D-07 GrdErr=1.00D-06
 Number of steps in this run=    100 maximum allowed number of steps=    100.
 GradGradGradGradGradGradGradGradGradGradGradGradGradGradGradGradGradGrad

 Leave Link  103 at Sun Sep 15 21:51:07 2013, MaxMem=   524288000 cpu:         0.1
 (Enter /opt/g09/l202.exe)
                          Input orientation:                          
 ---------------------------------------------------------------------
 Center     Atomic      Atomic             Coordinates (Angstroms)
 Number     Number       Type             X           Y           Z
 ---------------------------------------------------------------------
      1          6           0        0.673970    0.989010    0.863950
      2          6           0        1.770260    1.967200    1.182390
      3          1           0       -0.019980    0.889330    1.708060
      4          1           0        0.080770    1.330390    0.006280
      5          1           0        1.076100   -0.001750    0.630980
      6          6           0        3.074750    1.685970    1.186620
      7          1           0        1.451610    2.981270    1.426460
      8          1           0        3.818130    2.440420    1.426180
      9          1           0        3.442900    0.689860    0.950100
 ---------------------------------------------------------------------
                    Distance matrix (angstroms):
                    1          2          3          4          5
     1  C    0.000000
     2  C    1.503367   0.000000
     3  H    1.097280   2.154784   0.000000
     4  H    1.097280   2.154794   1.760892   0.000000
     5  H    1.094344   2.159323   1.776377   1.776381   0.000000
     6  C    2.520638   1.334467   3.237883   3.237832   2.674273
     7  H    2.211389   1.090617   2.573148   2.573231   3.110017
     8  H    3.508338   2.115926   4.149268   4.149234   3.757029
     9  H    2.786375   2.117376   3.550469   3.550351   2.486344
                    6          7          8          9
     6  C    0.000000
     7  H    2.090433   0.000000
     8  H    1.085909   2.427537   0.000000
     9  H    1.087985   3.072900   1.852542   0.000000
 Symmetry turned off by external request.
 Stoichiometry    C3H6
 Framework group  C1[X(C3H6)]
 Deg. of freedom    21
 Full point group                 C1      NOp   1
 Rotational constants (GHZ):     46.7310204      9.2416802      8.1023482
 Leave Link  202 at Sun Sep 15 21:51:07 2013, MaxMem=   524288000 cpu:         0.0
 (Enter /opt/g09/l301.exe)
 Standard basis: 6-311+G(d,p) (5D, 7F)
 Ernie: Thresh=  0.10000D-02 Tol=  0.10000D-05 Strict=F.
 AO basis set in the form of general basis input (Overlap normalization):
      1 0
 S   6 1.00       0.000000000000
      0.4563240000D+04  0.1966650249D-02
      0.6820240000D+03  0.1523060193D-01
      0.1549730000D+03  0.7612690966D-01
      0.4445530000D+02  0.2608010331D+00
      0.1302900000D+02  0.6164620782D+00
      0.1827730000D+01  0.2210060280D+00
 SP   3 1.00       0.000000000000
      0.2096420000D+02  0.1146600807D+00  0.4024869267D-01
      0.4803310000D+01  0.9199996477D+00  0.2375939567D+00
      0.1459330000D+01 -0.3030682134D-02  0.8158538515D+00
 SP   1 1.00       0.000000000000
      0.4834560000D+00  0.1000000000D+01  0.1000000000D+01
 SP   1 1.00       0.000000000000
      0.1455850000D+00  0.1000000000D+01  0.1000000000D+01
 SP   1 1.00       0.000000000000
      0.4380000000D-01  0.1000000000D+01  0.1000000000D+01
 D   1 1.00       0.000000000000
      0.6260000000D+00  0.1000000000D+01
 ****
      2 0
 S   6 1.00       0.000000000000
      0.4563240000D+04  0.1966650249D-02
      0.6820240000D+03  0.1523060193D-01
      0.1549730000D+03  0.7612690966D-01
      0.4445530000D+02  0.2608010331D+00
      0.1302900000D+02  0.6164620782D+00
      0.1827730000D+01  0.2210060280D+00
 SP   3 1.00       0.000000000000
      0.2096420000D+02  0.1146600807D+00  0.4024869267D-01
      0.4803310000D+01  0.9199996477D+00  0.2375939567D+00
      0.1459330000D+01 -0.3030682134D-02  0.8158538515D+00
 SP   1 1.00       0.000000000000
      0.4834560000D+00  0.1000000000D+01  0.1000000000D+01
 SP   1 1.00       0.000000000000
      0.1455850000D+00  0.1000000000D+01  0.1000000000D+01
 SP   1 1.00       0.000000000000
      0.4380000000D-01  0.1000000000D+01  0.1000000000D+01
 D   1 1.00       0.000000000000
      0.6260000000D+00  0.1000000000D+01
 ****
      3 0
 S   3 1.00       0.000000000000
      0.3386500000D+02  0.2549381454D-01
      0.5094790000D+01  0.1903731086D+00
      0.1158790000D+01  0.8521614860D+00
 S   1 1.00       0.000000000000
      0.3258400000D+00  0.1000000000D+01
 S   1 1.00       0.000000000000
      0.1027410000D+00  0.1000000000D+01
 P   1 1.00       0.000000000000
      0.7500000000D+00  0.1000000000D+01
 ****
      4 0
 S   3 1.00       0.000000000000
      0.3386500000D+02  0.2549381454D-01
      0.5094790000D+01  0.1903731086D+00
      0.1158790000D+01  0.8521614860D+00
 S   1 1.00       0.000000000000
      0.3258400000D+00  0.1000000000D+01
 S   1 1.00       0.000000000000
      0.1027410000D+00  0.1000000000D+01
 P   1 1.00       0.000000000000
      0.7500000000D+00  0.1000000000D+01
 ****
      5 0
 S   3 1.00       0.000000000000
      0.3386500000D+02  0.2549381454D-01
      0.5094790000D+01  0.1903731086D+00
      0.1158790000D+01  0.8521614860D+00
 S   1 1.00       0.000000000000
      0.3258400000D+00  0.1000000000D+01
 S   1 1.00       0.000000000000
      0.1027410000D+00  0.1000000000D+01
 P   1 1.00       0.000000000000
      0.7500000000D+00  0.1000000000D+01
 ****
      6 0
 S   6 1.00       0.000000000000
      0.4563240000D+04  0.1966650249D-02
      0.6820240000D+03  0.1523060193D-01
      0.1549730000D+03  0.7612690966D-01
      0.4445530000D+02  0.2608010331D+00
      0.1302900000D+02  0.6164620782D+00
      0.1827730000D+01  0.2210060280D+00
 SP   3 1.00       0.000000000000
      0.2096420000D+02  0.1146600807D+00  0.4024869267D-01
      0.4803310000D+01  0.9199996477D+00  0.2375939567D+00
      0.1459330000D+01 -0.3030682134D-02  0.8158538515D+00
 SP   1 1.00       0.000000000000
      0.4834560000D+00  0.1000000000D+01  0.1000000000D+01
 SP   1 1.00       0.000000000000
      0.1455850000D+00  0.1000000000D+01  0.1000000000D+01
 SP   1 1.00       0.000000000000
      0.4380000000D-01  0.1000000000D+01  0.1000000000D+01
 D   1 1.00       0.000000000000
      0.6260000000D+00  0.1000000000D+01
 ****
      7 0
 S   3 1.00       0.000000000000
      0.3386500000D+02  0.2549381454D-01
      0.5094790000D+01  0.1903731086D+00
      0.1158790000D+01  0.8521614860D+00
 S   1 1.00       0.000000000000
      0.3258400000D+00  0.1000000000D+01
 S   1 1.00       0.000000000000
      0.1027410000D+00  0.1000000000D+01
 P   1 1.00       0.000000000000
      0.7500000000D+00  0.1000000000D+01
 ****
      8 0
 S   3 1.00       0.000000000000
      0.3386500000D+02  0.2549381454D-01
      0.5094790000D+01  0.1903731086D+00
      0.1158790000D+01  0.8521614860D+00
 S   1 1.00       0.000000000000
      0.3258400000D+00  0.1000000000D+01
 S   1 1.00       0.000000000000
      0.1027410000D+00  0.1000000000D+01
 P   1 1.00       0.000000000000
      0.7500000000D+00  0.1000000000D+01
 ****
      9 0
 S   3 1.00       0.000000000000
      0.3386500000D+02  0.2549381454D-01
      0.5094790000D+01  0.1903731086D+00
      0.1158790000D+01  0.8521614860D+00
 S   1 1.00       0.000000000000
      0.3258400000D+00  0.1000000000D+01
 S   1 1.00       0.000000000000
      0.1027410000D+00  0.1000000000D+01
 P   1 1.00       0.000000000000
      0.7500000000D+00  0.1000000000D+01
 ****

   102 basis functions,   156 primitive gaussians,   105 cartesian basis functions
    12 alpha electrons       12 beta electrons
       nuclear repulsion energy        70.5726648618 Hartrees.
 IExCor= 1614 DFT=T Ex+Corr=B971 ExCW=0 ScaHFX=  0.210000
 ScaDFX=  1.000000  1.000000  1.000000  1.000000 ScalE2=  1.000000  1.000000
 IRadAn=      5 IRanWt=     -1 IRanGd=            0 ICorTp=0 IEmpDi=  4
 NAtoms=    9 NActive=    9 NUniq=    9 SFac= 1.00D+00 NAtFMM=   60 NAOKFM=F Big=F
 Integral buffers will be    131072 words long.
 Raffenetti 2 integral format.
 Two-electron integral symmetry is turned off.
 Leave Link  301 at Sun Sep 15 21:51:07 2013, MaxMem=   524288000 cpu:         0.4
 (Enter /opt/g09/l302.exe)
 NPDir=0 NMtPBC=     1 NCelOv=     1 NCel=       1 NClECP=     1 NCelD=      1
         NCelK=      1 NCelE2=     1 NClLst=     1 CellRange=     0.0.
 One-electron integrals computed using PRISM.
 NBasis=   102 RedAO= T EigKep=  1.00D-04  NBF=   102
 NBsUse=   102 1.00D-06 EigRej= -1.00D+00 NBFU=   102
 Precomputing XC quadrature grid using
 IXCGrd= 4 IRadAn=           5 IRanWt=          -1 IRanGd=           0 AccXCQ= 0.00D+00.
 Generated NRdTot=       0 NPtTot=           0 NUsed=           0 NTot=          32
 NSgBfM=   105   105   105   105   105 MxSgAt=     9 MxSgA2=     9.
 Leave Link  302 at Sun Sep 15 21:51:07 2013, MaxMem=   524288000 cpu:         1.6
 (Enter /opt/g09/l303.exe)
 DipDrv:  MaxL=1.
 Leave Link  303 at Sun Sep 15 21:51:07 2013, MaxMem=   524288000 cpu:         0.3
 (Enter /opt/g09/l401.exe)
 ExpMin= 4.38D-02 ExpMax= 4.56D+03 ExpMxC= 6.82D+02 IAcc=3 IRadAn=         5 AccDes= 0.00D+00
 Harris functional with IExCor= 1614 and IRadAn=       5 diagonalized for initial guess.
 HarFok:  IExCor= 1614 AccDes= 0.00D+00 IRadAn=         5 IDoV= 1 UseB2=F ITyADJ=14
 ICtDFT=  3500011 ScaDFX=  1.000000  1.000000  1.000000  1.000000
 FoFCou: FMM=F IPFlag=           0 FMFlag=      100000 FMFlg1=           0
         NFxFlg=           0 DoJE=T BraDBF=F KetDBF=T FulRan=T
         wScrn=  0.000000 ICntrl=     500 IOpCl=  0 I1Cent=   200000004 NGrid=           0
         NMat0=    1 NMatS0=      1 NMatT0=    0 NMatD0=    1 NMtDS0=    0 NMtDT0=    0
 Symmetry not used in FoFCou.
 Harris En= -114.290512874980    
 JPrj=0 DoOrth=F DoCkMO=T.
 Mixing orbitals, IMix= 1 IMixAn=  0 NRI=1 NE=   12 Coef=  7.07106781D-01  7.07106781D-01
 Leave Link  401 at Sun Sep 15 21:51:08 2013, MaxMem=   524288000 cpu:         4.3
 (Enter /opt/g09/l502.exe)
 Closed shell SCF:
 Using DIIS extrapolation, IDIIS=  1040.
 Two-electron integral symmetry not used.
 Keep R1 ints in memory in canonical form, NReq=14782490.
 IVT=       53113 IEndB=       53113 NGot=   524288000 MDV=   510435257
 LenX=   510435257 LenY=   510423791
 Requested convergence on RMS density matrix=1.00D-08 within 128 cycles.
 Requested convergence on MAX density matrix=1.00D-06.
 Requested convergence on             energy=1.00D-06.
 No special actions if energy rises.
 FoFCou: FMM=F IPFlag=           0 FMFlag=           0 FMFlg1=           0
         NFxFlg=           0 DoJE=F BraDBF=F KetDBF=F FulRan=T
         wScrn=  0.000000 ICntrl=     600 IOpCl=  0 I1Cent=           0 NGrid=           0
         NMat0=    1 NMatS0=   5253 NMatT0=    0 NMatD0=    1 NMtDS0=    0 NMtDT0=    0
 Symmetry not used in FoFCou.

 Cycle   1  Pass 1  IDiag  1:
 E= -117.496320446861    
 DIIS: error= 6.94D-02 at cycle   1 NSaved=   1.
 NSaved= 1 IEnMin= 1 EnMin= -117.496320446861     IErMin= 1 ErrMin= 6.94D-02
 ErrMax= 6.94D-02  0.00D+00 EMaxC= 1.00D-01 BMatC= 3.07D-01 BMatP= 3.07D-01
 IDIUse=3 WtCom= 3.06D-01 WtEn= 6.94D-01
 Coeff-Com:  0.100D+01
 Coeff-En:   0.100D+01
 Coeff:      0.100D+01
 Gap=    -0.238 Goal=   None    Shift=    0.000
 GapD=   -0.238 DampG=0.250 DampE=0.500 DampFc=0.2500 IDamp=-1.
 Damping current iteration by 2.50D-01
 RMSDP=1.20D-02 MaxDP=2.58D-01              OVMax= 6.78D-01

 Cycle   2  Pass 1  IDiag  1:
 E= -117.626306808764     Delta-E=       -0.129986361903 Rises=F Damp=T
 DIIS: error= 5.04D-02 at cycle   2 NSaved=   2.
 NSaved= 2 IEnMin= 2 EnMin= -117.626306808764     IErMin= 2 ErrMin= 5.04D-02
 ErrMax= 5.04D-02  0.00D+00 EMaxC= 1.00D-01 BMatC= 1.22D-01 BMatP= 3.07D-01
 IDIUse=3 WtCom= 4.96D-01 WtEn= 5.04D-01
 Coeff-Com: -0.664D+00 0.166D+01
 Coeff-En:   0.000D+00 0.100D+01
 Coeff:     -0.330D+00 0.133D+01
 Gap=     0.367 Goal=   None    Shift=    0.000
 RMSDP=6.28D-03 MaxDP=1.49D-01 DE=-1.30D-01 OVMax= 3.56D-01

 Cycle   3  Pass 1  IDiag  1:
 E= -117.885876181396     Delta-E=       -0.259569372632 Rises=F Damp=F
 DIIS: error= 1.32D-02 at cycle   3 NSaved=   3.
 NSaved= 3 IEnMin= 3 EnMin= -117.885876181396     IErMin= 3 ErrMin= 1.32D-02
 ErrMax= 1.32D-02  0.00D+00 EMaxC= 1.00D-01 BMatC= 1.06D-02 BMatP= 1.22D-01
 IDIUse=3 WtCom= 8.68D-01 WtEn= 1.32D-01
 Coeff-Com:  0.351D+00-0.394D+00 0.104D+01
 Coeff-En:   0.000D+00 0.000D+00 0.100D+01
 Coeff:      0.305D+00-0.342D+00 0.104D+01
 Gap=     0.264 Goal=   None    Shift=    0.000
 RMSDP=1.40D-03 MaxDP=2.45D-02 DE=-2.60D-01 OVMax= 6.27D-02

 Cycle   4  Pass 1  IDiag  1:
 E= -117.896473271403     Delta-E=       -0.010597090007 Rises=F Damp=F
 DIIS: error= 4.41D-03 at cycle   4 NSaved=   4.
 NSaved= 4 IEnMin= 4 EnMin= -117.896473271403     IErMin= 4 ErrMin= 4.41D-03
 ErrMax= 4.41D-03  0.00D+00 EMaxC= 1.00D-01 BMatC= 8.79D-04 BMatP= 1.06D-02
 IDIUse=3 WtCom= 9.56D-01 WtEn= 4.41D-02
 Coeff-Com:  0.423D-01-0.419D-01 0.283D+00 0.717D+00
 Coeff-En:   0.000D+00 0.000D+00 0.137D-01 0.986D+00
 Coeff:      0.405D-01-0.400D-01 0.271D+00 0.729D+00
 Gap=     0.266 Goal=   None    Shift=    0.000
 RMSDP=2.87D-04 MaxDP=7.76D-03 DE=-1.06D-02 OVMax= 2.31D-02

 Cycle   5  Pass 1  IDiag  1:
 E= -117.897334185666     Delta-E=       -0.000860914263 Rises=F Damp=F
 DIIS: error= 1.53D-03 at cycle   5 NSaved=   5.
 NSaved= 5 IEnMin= 5 EnMin= -117.897334185666     IErMin= 5 ErrMin= 1.53D-03
 ErrMax= 1.53D-03  0.00D+00 EMaxC= 1.00D-01 BMatC= 1.63D-04 BMatP= 8.79D-04
 IDIUse=3 WtCom= 9.85D-01 WtEn= 1.53D-02
 Coeff-Com:  0.118D-01-0.129D-01 0.574D-01 0.346D+00 0.597D+00
 Coeff-En:   0.000D+00 0.000D+00 0.000D+00 0.110D+00 0.890D+00
 Coeff:      0.116D-01-0.127D-01 0.565D-01 0.343D+00 0.602D+00
 Gap=     0.268 Goal=   None    Shift=    0.000
 RMSDP=8.77D-05 MaxDP=2.58D-03 DE=-8.61D-04 OVMax= 3.34D-03

 Cycle   6  Pass 1  IDiag  1:
 E= -117.897483189409     Delta-E=       -0.000149003743 Rises=F Damp=F
 DIIS: error= 4.69D-04 at cycle   6 NSaved=   6.
 NSaved= 6 IEnMin= 6 EnMin= -117.897483189409     IErMin= 6 ErrMin= 4.69D-04
 ErrMax= 4.69D-04  0.00D+00 EMaxC= 1.00D-01 BMatC= 1.25D-05 BMatP= 1.63D-04
 IDIUse=3 WtCom= 9.95D-01 WtEn= 4.69D-03
 Coeff-Com:  0.584D-02-0.874D-02-0.207D-01 0.335D-01 0.182D+00 0.808D+00
 Coeff-En:   0.000D+00 0.000D+00 0.000D+00 0.000D+00 0.000D+00 0.100D+01
 Coeff:      0.581D-02-0.870D-02-0.207D-01 0.333D-01 0.181D+00 0.809D+00
 Gap=     0.268 Goal=   None    Shift=    0.000
 RMSDP=3.36D-05 MaxDP=4.24D-04 DE=-1.49D-04 OVMax= 9.46D-04

 Cycle   7  Pass 1  IDiag  1:
 E= -117.897495902409     Delta-E=       -0.000012713000 Rises=F Damp=F
 DIIS: error= 6.93D-05 at cycle   7 NSaved=   7.
 NSaved= 7 IEnMin= 7 EnMin= -117.897495902409     IErMin= 7 ErrMin= 6.93D-05
 ErrMax= 6.93D-05  0.00D+00 EMaxC= 1.00D-01 BMatC= 2.83D-07 BMatP= 1.25D-05
 IDIUse=1 WtCom= 1.00D+00 WtEn= 0.00D+00
 Coeff-Com:  0.100D-02-0.166D-02-0.774D-02-0.460D-02 0.115D-01 0.121D+00
 Coeff-Com:  0.881D+00
 Coeff:      0.100D-02-0.166D-02-0.774D-02-0.460D-02 0.115D-01 0.121D+00
 Coeff:      0.881D+00
 Gap=     0.268 Goal=   None    Shift=    0.000
 RMSDP=5.32D-06 MaxDP=1.04D-04 DE=-1.27D-05 OVMax= 2.81D-04

 Cycle   8  Pass 1  IDiag  1:
 E= -117.897496160383     Delta-E=       -0.000000257974 Rises=F Damp=F
 DIIS: error= 2.55D-05 at cycle   8 NSaved=   8.
 NSaved= 8 IEnMin= 8 EnMin= -117.897496160383     IErMin= 8 ErrMin= 2.55D-05
 ErrMax= 2.55D-05  0.00D+00 EMaxC= 1.00D-01 BMatC= 3.41D-08 BMatP= 2.83D-07
 IDIUse=1 WtCom= 1.00D+00 WtEn= 0.00D+00
 Coeff-Com:  0.141D-03-0.196D-03-0.561D-03 0.120D-02-0.397D-03-0.547D-02
 Coeff-Com:  0.373D+00 0.632D+00
 Coeff:      0.141D-03-0.196D-03-0.561D-03 0.120D-02-0.397D-03-0.547D-02
 Coeff:      0.373D+00 0.632D+00
 Gap=     0.268 Goal=   None    Shift=    0.000
 RMSDP=1.51D-06 MaxDP=3.97D-05 DE=-2.58D-07 OVMax= 6.50D-05

 Cycle   9  Pass 1  IDiag  1:
 E= -117.897496193733     Delta-E=       -0.000000033349 Rises=F Damp=F
 DIIS: error= 4.16D-06 at cycle   9 NSaved=   9.
 NSaved= 9 IEnMin= 9 EnMin= -117.897496193733     IErMin= 9 ErrMin= 4.16D-06
 ErrMax= 4.16D-06  0.00D+00 EMaxC= 1.00D-01 BMatC= 1.50D-09 BMatP= 3.41D-08
 IDIUse=1 WtCom= 1.00D+00 WtEn= 0.00D+00
 Coeff-Com: -0.732D-07 0.136D-04 0.224D-03 0.598D-03-0.514D-03-0.913D-02
 Coeff-Com:  0.706D-01 0.234D+00 0.704D+00
 Coeff:     -0.732D-07 0.136D-04 0.224D-03 0.598D-03-0.514D-03-0.913D-02
 Coeff:      0.706D-01 0.234D+00 0.704D+00
 Gap=     0.268 Goal=   None    Shift=    0.000
 RMSDP=4.08D-07 MaxDP=5.40D-06 DE=-3.33D-08 OVMax= 1.13D-05

 Cycle  10  Pass 1  IDiag  1:
 E= -117.897496195227     Delta-E=       -0.000000001494 Rises=F Damp=F
 DIIS: error= 7.59D-07 at cycle  10 NSaved=  10.
 NSaved=10 IEnMin=10 EnMin= -117.897496195227     IErMin=10 ErrMin= 7.59D-07
 ErrMax= 7.59D-07  0.00D+00 EMaxC= 1.00D-01 BMatC= 6.46D-11 BMatP= 1.50D-09
 IDIUse=1 WtCom= 1.00D+00 WtEn= 0.00D+00
 Coeff-Com:  0.201D-05 0.856D-06 0.893D-04-0.878D-05-0.226D-03-0.296D-02
 Coeff-Com: -0.216D-02 0.336D-01 0.172D+00 0.800D+00
 Coeff:      0.201D-05 0.856D-06 0.893D-04-0.878D-05-0.226D-03-0.296D-02
 Coeff:     -0.216D-02 0.336D-01 0.172D+00 0.800D+00
 Gap=     0.268 Goal=   None    Shift=    0.000
 RMSDP=7.13D-08 MaxDP=1.32D-06 DE=-1.49D-09 OVMax= 2.06D-06

 Cycle  11  Pass 1  IDiag  1:
 E= -117.897496195292     Delta-E=       -0.000000000066 Rises=F Damp=F
 DIIS: error= 1.29D-07 at cycle  11 NSaved=  11.
 NSaved=11 IEnMin=11 EnMin= -117.897496195292     IErMin=11 ErrMin= 1.29D-07
 ErrMax= 1.29D-07  0.00D+00 EMaxC= 1.00D-01 BMatC= 8.20D-13 BMatP= 6.46D-11
 IDIUse=1 WtCom= 1.00D+00 WtEn= 0.00D+00
 Coeff-Com: -0.695D-06 0.160D-05 0.156D-04-0.130D-04-0.554D-04-0.653D-03
 Coeff-Com: -0.174D-02 0.400D-02 0.236D-01 0.161D+00 0.814D+00
 Coeff:     -0.695D-06 0.160D-05 0.156D-04-0.130D-04-0.554D-04-0.653D-03
 Coeff:     -0.174D-02 0.400D-02 0.236D-01 0.161D+00 0.814D+00
 Gap=     0.268 Goal=   None    Shift=    0.000
 RMSDP=1.21D-08 MaxDP=1.50D-07 DE=-6.57D-11 OVMax= 5.83D-07

 Cycle  12  Pass 1  IDiag  1:
 E= -117.897496195292     Delta-E=        0.000000000000 Rises=F Damp=F
 DIIS: error= 2.02D-08 at cycle  12 NSaved=  12.
 NSaved=12 IEnMin=11 EnMin= -117.897496195292     IErMin=12 ErrMin= 2.02D-08
 ErrMax= 2.02D-08  0.00D+00 EMaxC= 1.00D-01 BMatC= 2.88D-14 BMatP= 8.20D-13
 IDIUse=1 WtCom= 1.00D+00 WtEn= 0.00D+00
 Coeff-Com: -0.260D-07-0.207D-07-0.138D-05 0.245D-06 0.120D-04 0.399D-04
 Coeff-Com: -0.237D-03-0.808D-03-0.248D-02 0.112D-02 0.137D+00 0.865D+00
 Coeff:     -0.260D-07-0.207D-07-0.138D-05 0.245D-06 0.120D-04 0.399D-04
 Coeff:     -0.237D-03-0.808D-03-0.248D-02 0.112D-02 0.137D+00 0.865D+00
 Gap=     0.268 Goal=   None    Shift=    0.000
 RMSDP=2.01D-09 MaxDP=2.75D-08 DE= 2.56D-13 OVMax= 7.71D-08

 SCF Done:  E(RB971) =  -117.897496195     A.U. after   12 cycles
            NFock= 12  Conv=0.20D-08     -V/T= 2.0045
 KE= 1.173644752436D+02 PE=-4.139146120328D+02 EE= 1.080799757322D+02
 Leave Link  502 at Sun Sep 15 21:51:15 2013, MaxMem=   524288000 cpu:        53.0
 (Enter /opt/g09/l508.exe)
 QCSCF skips out because SCF is already converged.
 Leave Link  508 at Sun Sep 15 21:51:15 2013, MaxMem=   524288000 cpu:         0.0
 (Enter /opt/g09/l701.exe)
 Compute integral first derivatives.
 ... and contract with generalized density number  0.
 Leave Link  701 at Sun Sep 15 21:51:16 2013, MaxMem=   524288000 cpu:         1.3
 (Enter /opt/g09/l702.exe)
 L702 exits ... SP integral derivatives will be done elsewhere.
 Leave Link  702 at Sun Sep 15 21:51:16 2013, MaxMem=   524288000 cpu:         0.3
 (Enter /opt/g09/l703.exe)
 Compute integral first derivatives, UseDBF=F ICtDFT=           0.
 Integral derivatives from FoFJK, PRISM(SPDF).
 Calling FoFJK, ICntrl=      2127 FMM=F ISym2X=0 I1Cent= 0 IOpClX= 0 NMat=1 NMatS=1 NMatT=0.
 FoFJK:  IHMeth= 1 ICntrl=    2127 DoSepK=F KAlg= 0 I1Cent=   0 FoldK=F
 IRaf=         0 NMat=   1 IRICut=       1 DoRegI=T DoRafI=F ISym2E= 0.
 FoFCou: FMM=F IPFlag=           0 FMFlag=      100000 FMFlg1=         800
         NFxFlg=           0 DoJE=F BraDBF=F KetDBF=F FulRan=T
         wScrn=  0.000000 ICntrl=    2127 IOpCl=  0 I1Cent=           0 NGrid=           0
         NMat0=    1 NMatS0=      1 NMatT0=    0 NMatD0=    1 NMtDS0=    0 NMtDT0=    0
 Symmetry not used in FoFCou.
 Leave Link  703 at Sun Sep 15 21:51:18 2013, MaxMem=   524288000 cpu:        14.3
 (Enter /opt/g09/l716.exe)
 Dipole        =-1.65922895D-01-2.36881631D-02-1.59619044D-02
 -------------------------------------------------------------------
 Center     Atomic                   Forces (Hartrees/Bohr)
 Number     Number              X              Y              Z
 -------------------------------------------------------------------
      1        6          -0.000005704   -0.000002826    0.000002387
      2        6          -0.000001712    0.000007484    0.000001447
      3        1           0.000002194    0.000000600   -0.000002606
      4        1           0.000000482   -0.000000578    0.000001928
      5        1           0.000000667    0.000000991   -0.000000531
      6        6           0.000006095   -0.000002027   -0.000000970
      7        1           0.000001167   -0.000004847   -0.000000761
      8        1          -0.000002380   -0.000001629   -0.000000768
      9        1          -0.000000809    0.000002833   -0.000000124
 -------------------------------------------------------------------
 Cartesian Forces:  Max     0.000007484 RMS     0.000002792
 Force constants in Cartesian coordinates: 
                1             2             3             4             5 
      1  0.662460D+00
      2 -0.587415D-02  0.664638D+00
      3  0.116534D-02  0.119850D-01  0.620244D+00
      4 -0.228723D+00 -0.911945D-01 -0.330153D-01  0.908106D+00
      5 -0.879623D-01 -0.208970D+00 -0.411663D-01 -0.611064D-01  0.671894D+00
      6 -0.321776D-01 -0.413578D-01 -0.828750D-01  0.305103D-01  0.138365D+00
      7 -0.184253D+00 -0.155981D-01  0.135228D+00 -0.551310D-02  0.181534D-02
      8 -0.196290D-01 -0.782440D-01  0.242179D-01 -0.757639D-02  0.326765D-02
      9  0.125597D+00  0.180690D-01 -0.225815D+00 -0.542705D-02  0.187828D-02
     10 -0.155149D+00  0.476029D-01 -0.118422D+00 -0.429675D-02  0.876030D-02
     11  0.401215D-01 -0.977530D-01  0.566065D-01 -0.694119D-02  0.131442D-01
     12 -0.111775D+00  0.634368D-01 -0.235410D+00  0.208993D-03 -0.827192D-03
     13 -0.107334D+00  0.785214D-01  0.184589D-01  0.172417D-01 -0.181065D-01
     14  0.906360D-01 -0.298764D+00 -0.525261D-01  0.638447D-02 -0.662504D-02
     15  0.215986D-01 -0.532430D-01 -0.879123D-01  0.260944D-02 -0.307907D-02
     16 -0.479564D-02  0.521334D-02  0.495453D-03 -0.566013D+00  0.847627D-01
     17 -0.223446D-01  0.242436D-01  0.245379D-02  0.861940D-01 -0.192114D+00
     18 -0.664925D-02  0.408386D-02  0.103464D-01 -0.800168D-02 -0.311024D-01
     19  0.177953D-01 -0.186712D-01 -0.390935D-02 -0.122177D+00  0.654438D-01
     20  0.505236D-02 -0.515221D-02 -0.156703D-02  0.678062D-01 -0.310499D+00
     21  0.224133D-02 -0.296992D-02  0.140684D-02  0.123385D-01 -0.679349D-01
     22  0.237821D-04  0.104265D-03 -0.402157D-03 -0.452802D-02 -0.210978D-01
     23  0.104265D-03  0.457114D-03 -0.176312D-02  0.436140D-02  0.202773D-01
     24 -0.402161D-03 -0.176314D-02  0.680056D-02  0.315494D-03  0.160923D-02
     25 -0.237325D-04 -0.104047D-03  0.401319D-03  0.590378D-02  0.274909D-01
     26 -0.104048D-03 -0.456166D-03  0.175946D-02  0.207243D-02  0.962433D-02
     27  0.401262D-03  0.175920D-02 -0.678537D-02  0.461312D-03  0.225716D-02
                6             7             8             9            10 
      6  0.161953D+00
      7  0.134035D-01  0.170278D+00
      8  0.160455D-01  0.163371D-01  0.605332D-01
      9  0.129139D-01 -0.137474D+00 -0.195529D-01  0.224519D+00
     10 -0.121177D-01  0.230965D-01 -0.910978D-02  0.179120D-01  0.139838D+00
     11 -0.164801D-01  0.395317D-04 -0.155922D-04  0.306581D-04 -0.474422D-01
     12  0.182149D-02 -0.159587D-01  0.629450D-02 -0.123765D-01  0.119451D+00
     13 -0.373804D-02 -0.361554D-02  0.199868D-01 -0.612154D-03 -0.348081D-02
     14 -0.162885D-02 -0.262243D-02  0.144968D-01 -0.444009D-03  0.220240D-03
     15  0.474842D-03  0.491172D-02 -0.271520D-01  0.831612D-03 -0.694486D-02
     16 -0.837377D-02 -0.574932D-04  0.768664D-04 -0.381886D-04  0.635441D-04
     17 -0.310176D-01 -0.252060D-03  0.336996D-03 -0.167425D-03  0.278588D-03
     18 -0.613566D-01  0.972214D-03 -0.129982D-02  0.645771D-03 -0.107454D-02
     19  0.117260D-01  0.639919D-04 -0.855550D-04  0.425052D-04 -0.707268D-04
     20 -0.677950D-01  0.280560D-03 -0.375099D-03  0.186356D-03 -0.310088D-03
     21 -0.504282D-01 -0.108213D-02  0.144678D-02 -0.718783D-03  0.119602D-02
     22 -0.628509D-02  0.000000D+00  0.000000D+00  0.000000D+00  0.000000D+00
     23  0.311481D-02  0.000000D+00  0.000000D+00  0.000000D+00  0.000000D+00
     24  0.969379D-02  0.000000D+00  0.000000D+00  0.000000D+00  0.000000D+00
     25  0.705238D-02  0.000000D+00  0.000000D+00  0.000000D+00  0.000000D+00
     26  0.753806D-03  0.000000D+00  0.000000D+00  0.000000D+00  0.000000D+00
     27  0.780256D-02  0.000000D+00  0.000000D+00  0.000000D+00  0.000000D+00
               11            12            13            14            15 
     11  0.854990D-01
     12 -0.684255D-01  0.229994D+00
     13  0.142166D-01  0.806614D-02  0.971880D-01
     14 -0.899522D-03 -0.510366D-03 -0.946212D-01  0.291779D+00
     15  0.283648D-01  0.160934D-01 -0.221635D-01  0.551591D-01  0.703203D-01
     16 -0.503805D-04 -0.640028D-04 -0.594966D-05 -0.260412D-04  0.100477D-03
     17 -0.220877D-03 -0.280599D-03 -0.260843D-04 -0.114169D-03  0.440507D-03
     18  0.851938D-03  0.108229D-02  0.100609D-03  0.440359D-03 -0.169907D-02
     19  0.560753D-04  0.712373D-04  0.662218D-05  0.289848D-04 -0.111834D-03
     20  0.245851D-03  0.312326D-03  0.290336D-04  0.127078D-03 -0.490314D-03
     21 -0.948259D-03 -0.120466D-02 -0.111984D-03 -0.490146D-03  0.189117D-02
     22  0.000000D+00  0.000000D+00  0.000000D+00  0.000000D+00  0.000000D+00
     23  0.000000D+00  0.000000D+00  0.000000D+00  0.000000D+00  0.000000D+00
     24  0.000000D+00  0.000000D+00  0.000000D+00  0.000000D+00  0.000000D+00
     25  0.000000D+00  0.000000D+00  0.000000D+00  0.000000D+00  0.000000D+00
     26  0.000000D+00  0.000000D+00  0.000000D+00  0.000000D+00  0.000000D+00
     27  0.000000D+00  0.000000D+00  0.000000D+00  0.000000D+00  0.000000D+00
               16            17            18            19            20 
     16  0.930522D+00
     17 -0.557146D-01  0.681965D+00
     18  0.351955D-01  0.149933D+00  0.131954D+00
     19  0.598554D-02  0.278717D-01  0.715795D-02  0.983966D-01
     20  0.178579D-02  0.828949D-02  0.403788D-03 -0.746436D-01  0.307365D+00
     21  0.394871D-03  0.194694D-02  0.766752D-02 -0.149776D-01  0.689448D-01
     22 -0.226925D+00 -0.118432D+00 -0.425543D-01 -0.305534D-04 -0.133951D-03
     23 -0.111207D+00 -0.218200D+00 -0.562727D-01 -0.133951D-03 -0.587265D-03
     24 -0.406802D-01 -0.566990D-01 -0.436269D-01  0.516665D-03  0.226515D-02
     25 -0.138774D+00  0.824249D-01  0.148534D-01  0.304897D-04  0.133672D-03
     26  0.751590D-01 -0.304186D+00 -0.670380D-01  0.133673D-03  0.586047D-03
     27  0.129698D-01 -0.666095D-01 -0.450136D-01 -0.515510D-03 -0.226009D-02
               21            22            23            24            25 
     21  0.414056D-01
     22  0.516656D-03  0.205575D+00
     23  0.226511D-02  0.130889D+00  0.206096D+00
     24 -0.873677D-02  0.449468D-01  0.561608D-01  0.365548D-01
     25 -0.515579D-03  0.258856D-01 -0.240144D-01 -0.469665D-02  0.106978D+00
     26 -0.226041D-02  0.866991D-02 -0.804321D-02 -0.157306D-02 -0.859309D-01
     27  0.871725D-02  0.377804D-02 -0.350495D-02 -0.685484D-03 -0.170949D-01
               26            27 
     26  0.302475D+00
     27  0.683582D-01  0.359646D-01
 FormGI is forming the generalized inverse of G from B-inverse, IUseBI=4.
 Force constants in internal coordinates: 
                1             2             3             4             5 
      1  0.320267D+00
      2  0.000000D+00  0.339847D+00
      3  0.000000D+00  0.000000D+00  0.339847D+00
      4  0.000000D+00  0.000000D+00  0.000000D+00  0.343154D+00
      5  0.000000D+00  0.000000D+00  0.000000D+00  0.000000D+00  0.584629D+00
      6  0.000000D+00  0.000000D+00  0.000000D+00  0.000000D+00  0.000000D+00
      7  0.000000D+00  0.000000D+00  0.000000D+00  0.000000D+00  0.000000D+00
      8  0.000000D+00  0.000000D+00  0.000000D+00  0.000000D+00  0.000000D+00
      9  0.000000D+00  0.000000D+00  0.000000D+00  0.000000D+00  0.000000D+00
     10  0.000000D+00  0.000000D+00  0.000000D+00  0.000000D+00  0.000000D+00
     11  0.000000D+00  0.000000D+00  0.000000D+00  0.000000D+00  0.000000D+00
     12  0.000000D+00  0.000000D+00  0.000000D+00  0.000000D+00  0.000000D+00
     13  0.000000D+00  0.000000D+00  0.000000D+00  0.000000D+00  0.000000D+00
     14  0.000000D+00  0.000000D+00  0.000000D+00  0.000000D+00  0.000000D+00
     15  0.000000D+00  0.000000D+00  0.000000D+00  0.000000D+00  0.000000D+00
     16  0.000000D+00  0.000000D+00  0.000000D+00  0.000000D+00  0.000000D+00
     17  0.000000D+00  0.000000D+00  0.000000D+00  0.000000D+00  0.000000D+00
     18  0.000000D+00  0.000000D+00  0.000000D+00  0.000000D+00  0.000000D+00
     19  0.000000D+00  0.000000D+00  0.000000D+00  0.000000D+00  0.000000D+00
     20  0.000000D+00  0.000000D+00  0.000000D+00  0.000000D+00  0.000000D+00
     21  0.000000D+00  0.000000D+00  0.000000D+00  0.000000D+00  0.000000D+00
     22  0.000000D+00  0.000000D+00  0.000000D+00  0.000000D+00  0.000000D+00
     23  0.000000D+00  0.000000D+00  0.000000D+00  0.000000D+00  0.000000D+00
     24  0.000000D+00  0.000000D+00  0.000000D+00  0.000000D+00  0.000000D+00
     25  0.000000D+00  0.000000D+00  0.000000D+00  0.000000D+00  0.000000D+00
     26  0.000000D+00  0.000000D+00  0.000000D+00  0.000000D+00  0.000000D+00
     27  0.000000D+00  0.000000D+00  0.000000D+00  0.000000D+00  0.000000D+00
     28  0.000000D+00  0.000000D+00  0.000000D+00  0.000000D+00  0.000000D+00
     29  0.000000D+00  0.000000D+00  0.000000D+00  0.000000D+00  0.000000D+00
     30  0.000000D+00  0.000000D+00  0.000000D+00  0.000000D+00  0.000000D+00
                6             7             8             9            10 
      6  0.347414D+00
      7  0.000000D+00  0.352898D+00
      8  0.000000D+00  0.000000D+00  0.350465D+00
      9  0.000000D+00  0.000000D+00  0.000000D+00  0.113063D+00
     10  0.000000D+00  0.000000D+00  0.000000D+00 -0.175691D-01  0.113063D+00
     11  0.000000D+00  0.000000D+00  0.000000D+00 -0.193188D-01 -0.193201D-01
     12  0.000000D+00  0.000000D+00  0.000000D+00 -0.437491D-01 -0.437481D-01
     13  0.000000D+00  0.000000D+00  0.000000D+00 -0.452878D-01  0.914934D-02
     14  0.000000D+00  0.000000D+00  0.000000D+00  0.914938D-02 -0.452881D-01
     15  0.000000D+00  0.000000D+00  0.000000D+00  0.000000D+00  0.000000D+00
     16  0.000000D+00  0.000000D+00  0.000000D+00  0.000000D+00  0.000000D+00
     17  0.000000D+00  0.000000D+00  0.000000D+00  0.000000D+00  0.000000D+00
     18  0.000000D+00  0.000000D+00  0.000000D+00  0.000000D+00  0.000000D+00
     19  0.000000D+00  0.000000D+00  0.000000D+00  0.000000D+00  0.000000D+00
     20  0.000000D+00  0.000000D+00  0.000000D+00  0.000000D+00  0.000000D+00
     21  0.000000D+00  0.000000D+00  0.000000D+00  0.430007D-04 -0.675420D-02
     22  0.000000D+00  0.000000D+00  0.000000D+00  0.430007D-04 -0.675420D-02
     23  0.000000D+00  0.000000D+00  0.000000D+00  0.675423D-02 -0.430428D-04
     24  0.000000D+00  0.000000D+00  0.000000D+00  0.675423D-02 -0.430428D-04
     25  0.000000D+00  0.000000D+00  0.000000D+00 -0.679723D-02  0.679724D-02
     26  0.000000D+00  0.000000D+00  0.000000D+00 -0.679723D-02  0.679724D-02
     27  0.000000D+00  0.000000D+00  0.000000D+00  0.000000D+00  0.000000D+00
     28  0.000000D+00  0.000000D+00  0.000000D+00  0.000000D+00  0.000000D+00
     29  0.000000D+00  0.000000D+00  0.000000D+00  0.000000D+00  0.000000D+00
     30  0.000000D+00  0.000000D+00  0.000000D+00  0.000000D+00  0.000000D+00
               11            12            13            14            15 
     11  0.112530D+00
     12  0.900532D-02  0.661221D-01
     13 -0.443976D-01  0.842252D-02  0.680206D-01
     14 -0.443989D-01  0.842266D-02  0.892829D-02  0.680218D-01
     15  0.000000D+00  0.000000D+00  0.000000D+00  0.000000D+00  0.146667D+00
     16  0.000000D+00  0.000000D+00  0.000000D+00  0.000000D+00 -0.733333D-01
     17  0.000000D+00  0.000000D+00  0.000000D+00  0.000000D+00 -0.733333D-01
     18  0.000000D+00  0.000000D+00  0.000000D+00  0.000000D+00  0.000000D+00
     19  0.000000D+00  0.000000D+00  0.000000D+00  0.000000D+00  0.000000D+00
     20  0.000000D+00  0.000000D+00  0.000000D+00  0.000000D+00  0.000000D+00
     21  0.678670D-02 -0.131799D-01  0.126476D-01  0.477125D-04  0.000000D+00
     22  0.678670D-02 -0.131799D-01  0.126476D-01  0.477125D-04  0.000000D+00
     23 -0.678674D-02  0.131799D-01 -0.477889D-04 -0.126471D-01  0.000000D+00
     24 -0.678674D-02  0.131799D-01 -0.477889D-04 -0.126471D-01  0.000000D+00
     25  0.000000D+00  0.000000D+00 -0.125998D-01  0.125994D-01  0.000000D+00
     26  0.000000D+00  0.000000D+00 -0.125998D-01  0.125994D-01  0.000000D+00
     27  0.000000D+00  0.000000D+00  0.000000D+00  0.000000D+00  0.000000D+00
     28  0.000000D+00  0.000000D+00  0.000000D+00  0.000000D+00  0.000000D+00
     29  0.000000D+00  0.000000D+00  0.000000D+00  0.000000D+00  0.000000D+00
     30  0.000000D+00  0.000000D+00  0.000000D+00  0.000000D+00  0.000000D+00
               16            17            18            19            20 
     16  0.116667D+00
     17 -0.433333D-01  0.116667D+00
     18  0.000000D+00  0.000000D+00  0.106667D+00
     19  0.000000D+00  0.000000D+00 -0.533333D-01  0.106667D+00
     20  0.000000D+00  0.000000D+00 -0.533333D-01 -0.533333D-01  0.106667D+00
     21  0.000000D+00  0.000000D+00  0.000000D+00  0.000000D+00  0.000000D+00
     22  0.000000D+00  0.000000D+00  0.000000D+00  0.000000D+00  0.000000D+00
     23  0.000000D+00  0.000000D+00  0.000000D+00  0.000000D+00  0.000000D+00
     24  0.000000D+00  0.000000D+00  0.000000D+00  0.000000D+00  0.000000D+00
     25  0.000000D+00  0.000000D+00  0.000000D+00  0.000000D+00  0.000000D+00
     26  0.000000D+00  0.000000D+00  0.000000D+00  0.000000D+00  0.000000D+00
     27  0.000000D+00  0.000000D+00  0.000000D+00  0.000000D+00  0.000000D+00
     28  0.000000D+00  0.000000D+00  0.000000D+00  0.000000D+00  0.000000D+00
     29  0.000000D+00  0.000000D+00  0.000000D+00  0.000000D+00  0.000000D+00
     30  0.000000D+00  0.000000D+00  0.000000D+00  0.000000D+00  0.000000D+00
               21            22            23            24            25 
     21  0.166423D-01
     22  0.134239D-01  0.166423D-01
     23 -0.412420D-02 -0.734268D-02  0.166423D-01
     24 -0.734268D-02 -0.412420D-02  0.134238D-01  0.166423D-01
     25 -0.408336D-02 -0.730184D-02 -0.408333D-02 -0.730181D-02  0.166015D-01
     26 -0.730184D-02 -0.408336D-02 -0.730181D-02 -0.408333D-02  0.133830D-01
     27 -0.164874D-02  0.164874D-02 -0.164874D-02  0.164874D-02 -0.164874D-02
     28 -0.164874D-02  0.164874D-02 -0.164874D-02  0.164874D-02 -0.164874D-02
     29  0.164874D-02 -0.164874D-02  0.164874D-02 -0.164874D-02  0.164874D-02
     30  0.164874D-02 -0.164874D-02  0.164874D-02 -0.164874D-02  0.164874D-02
               26            27            28            29            30 
     26  0.166015D-01
     27  0.164874D-02  0.164674D-01
     28  0.164874D-02  0.168920D-02  0.164674D-01
     29 -0.164874D-02  0.130890D-01 -0.168920D-02  0.164674D-01
     30 -0.164874D-02 -0.168920D-02  0.130890D-01  0.168920D-02  0.164674D-01
 Leave Link  716 at Sun Sep 15 21:51:18 2013, MaxMem=   524288000 cpu:         0.3
 (Enter /opt/g09/l103.exe)

 GradGradGradGradGradGradGradGradGradGradGradGradGradGradGradGradGradGrad
 Berny optimization.
 Red2BG is reusing G-inverse.
 Internal  Forces:  Max     0.000005020 RMS     0.000001624
 Search for a local minimum.
 Step number   1 out of a maximum of  100
 All quantities printed in internal units (Hartrees-Bohrs-Radians)
 RMS Force = .16235D-05 SwitMx=.10000D-02 MixMth= 2
 Mixed Optimization -- En-DIIS/RFO-DIIS
 Second derivative matrix not updated -- first step.
 ITU=  0
     Eigenvalues ---    0.00721   0.01641   0.02956   0.02956   0.07109
     Eigenvalues ---    0.07263   0.16000   0.16000   0.16000   0.16000
     Eigenvalues ---    0.16000   0.16000   0.22000   0.32027   0.33985
     Eigenvalues ---    0.33985   0.34315   0.34741   0.35047   0.35290
     Eigenvalues ---    0.58463
 RFO step:  Lambda= 0.00000000D+00 EMin= 7.21412279D-03
 Linear search not attempted -- first point.
 Iteration  1 RMS(Cart)=  0.00000529 RMS(Int)=  0.00000000
 Iteration  2 RMS(Cart)=  0.00000000 RMS(Int)=  0.00000000
 ITry= 1 IFail=0 DXMaxC= 9.65D-06 DCOld= 1.00D+10 DXMaxT= 3.00D-01 DXLimC= 3.00D+00 Rises=F
 Variable       Old X    -DE/DX   Delta X   Delta X   Delta X     New X
                                 (Linear)    (Quad)   (Total)
    R1        2.84095   0.00000   0.00000   0.00001   0.00001   2.84096
    R2        2.07356   0.00000   0.00000  -0.00001  -0.00001   2.07355
    R3        2.07356   0.00000   0.00000  -0.00001  -0.00001   2.07355
    R4        2.06801   0.00000   0.00000   0.00000   0.00000   2.06801
    R5        2.52178   0.00000   0.00000   0.00001   0.00001   2.52178
    R6        2.06097  -0.00001   0.00000  -0.00001  -0.00001   2.06095
    R7        2.05207   0.00000   0.00000  -0.00001  -0.00001   2.05206
    R8        2.05599   0.00000   0.00000  -0.00001  -0.00001   2.05599
    A1        1.93622   0.00000   0.00000   0.00000   0.00000   1.93622
    A2        1.93623   0.00000   0.00000   0.00000   0.00000   1.93623
    A3        1.94573   0.00000   0.00000  -0.00001  -0.00001   1.94572
    A4        1.86258   0.00000   0.00000   0.00000   0.00000   1.86257
    A5        1.89011   0.00000   0.00000   0.00001   0.00001   1.89012
    A6        1.89012   0.00000   0.00000   0.00000   0.00000   1.89012
    A7        2.18510   0.00000   0.00000   0.00000   0.00000   2.18510
    A8        2.02566   0.00000   0.00000   0.00000   0.00000   2.02566
    A9        2.07242   0.00000   0.00000   0.00000   0.00000   2.07243
   A10        2.12172   0.00000   0.00000   0.00000   0.00000   2.12171
   A11        2.12120   0.00000   0.00000   0.00000   0.00000   2.12121
   A12        2.04026   0.00000   0.00000   0.00000   0.00000   2.04026
    D1        2.10816   0.00000   0.00000   0.00000   0.00000   2.10816
    D2       -1.03343   0.00000   0.00000   0.00001   0.00001  -1.03343
    D3       -2.10795   0.00000   0.00000   0.00000   0.00000  -2.10795
    D4        1.03364   0.00000   0.00000   0.00001   0.00001   1.03365
    D5        0.00011   0.00000   0.00000  -0.00001  -0.00001   0.00010
    D6       -3.14148   0.00000   0.00000   0.00000   0.00000  -3.14148
    D7        3.14159   0.00000   0.00000   0.00001   0.00001  -3.14158
    D8        0.00004   0.00000   0.00000   0.00000   0.00000   0.00004
    D9        0.00000   0.00000   0.00000   0.00001   0.00001   0.00000
   D10       -3.14156   0.00000   0.00000   0.00000   0.00000  -3.14156
         Item               Value     Threshold  Converged?
 Maximum Force            0.000005     0.000015     YES
 RMS     Force            0.000002     0.000010     YES
 Maximum Displacement     0.000010     0.000060     YES
 RMS     Displacement     0.000005     0.000040     YES
 Predicted change in Energy=-1.235346D-10
 Optimization completed.
    -- Stationary point found.
                           ----------------------------
                           !   Optimized Parameters   !
                           ! (Angstroms and Degrees)  !
 --------------------------                            --------------------------
 ! Name  Definition              Value          Derivative Info.                !
 --------------------------------------------------------------------------------
 ! R1    R(1,2)                  1.5034         -DE/DX =    0.0                 !
 ! R2    R(1,3)                  1.0973         -DE/DX =    0.0                 !
 ! R3    R(1,4)                  1.0973         -DE/DX =    0.0                 !
 ! R4    R(1,5)                  1.0943         -DE/DX =    0.0                 !
 ! R5    R(2,6)                  1.3345         -DE/DX =    0.0                 !
 ! R6    R(2,7)                  1.0906         -DE/DX =    0.0                 !
 ! R7    R(6,8)                  1.0859         -DE/DX =    0.0                 !
 ! R8    R(6,9)                  1.088          -DE/DX =    0.0                 !
 ! A1    A(2,1,3)              110.9371         -DE/DX =    0.0                 !
 ! A2    A(2,1,4)              110.938          -DE/DX =    0.0                 !
 ! A3    A(2,1,5)              111.482          -DE/DX =    0.0                 !
 ! A4    A(3,1,4)              106.7177         -DE/DX =    0.0                 !
 ! A5    A(3,1,5)              108.2954         -DE/DX =    0.0                 !
 ! A6    A(4,1,5)              108.2957         -DE/DX =    0.0                 !
 ! A7    A(1,2,6)              125.197          -DE/DX =    0.0                 !
 ! A8    A(1,2,7)              116.0618         -DE/DX =    0.0                 !
 ! A9    A(6,2,7)              118.7411         -DE/DX =    0.0                 !
 ! A10   A(2,6,8)              121.5656         -DE/DX =    0.0                 !
 ! A11   A(2,6,9)              121.536          -DE/DX =    0.0                 !
 ! A12   A(8,6,9)              116.8984         -DE/DX =    0.0                 !
 ! D1    D(3,1,2,6)            120.7884         -DE/DX =    0.0                 !
 ! D2    D(3,1,2,7)            -59.2114         -DE/DX =    0.0                 !
 ! D3    D(4,1,2,6)           -120.7766         -DE/DX =    0.0                 !
 ! D4    D(4,1,2,7)             59.2235         -DE/DX =    0.0                 !
 ! D5    D(5,1,2,6)              0.0064         -DE/DX =    0.0                 !
 ! D6    D(5,1,2,7)           -179.9935         -DE/DX =    0.0                 !
 ! D7    D(1,2,6,8)           -180.0001         -DE/DX =    0.0                 !
 ! D8    D(1,2,6,9)              0.0021         -DE/DX =    0.0                 !
 ! D9    D(7,2,6,8)             -0.0003         -DE/DX =    0.0                 !
 ! D10   D(7,2,6,9)           -179.998          -DE/DX =    0.0                 !
 --------------------------------------------------------------------------------
 Lowest energy point so far.  Saving SCF results.
 GradGradGradGradGradGradGradGradGradGradGradGradGradGradGradGradGradGrad

 Largest change from initial coordinates is atom    0       0.000 Angstoms.
 Leave Link  103 at Sun Sep 15 21:51:18 2013, MaxMem=   524288000 cpu:         0.1
 (Enter /opt/g09/l202.exe)
                          Input orientation:                          
 ---------------------------------------------------------------------
 Center     Atomic      Atomic             Coordinates (Angstroms)
 Number     Number       Type             X           Y           Z
 ---------------------------------------------------------------------
      1          6           0        0.673970    0.989010    0.863950
      2          6           0        1.770260    1.967200    1.182390
      3          1           0       -0.019980    0.889330    1.708060
      4          1           0        0.080770    1.330390    0.006280
      5          1           0        1.076100   -0.001750    0.630980
      6          6           0        3.074750    1.685970    1.186620
      7          1           0        1.451610    2.981270    1.426460
      8          1           0        3.818130    2.440420    1.426180
      9          1           0        3.442900    0.689860    0.950100
 ---------------------------------------------------------------------
                    Distance matrix (angstroms):
                    1          2          3          4          5
     1  C    0.000000
     2  C    1.503367   0.000000
     3  H    1.097280   2.154784   0.000000
     4  H    1.097280   2.154794   1.760892   0.000000
     5  H    1.094344   2.159323   1.776377   1.776381   0.000000
     6  C    2.520638   1.334467   3.237883   3.237832   2.674273
     7  H    2.211389   1.090617   2.573148   2.573231   3.110017
     8  H    3.508338   2.115926   4.149268   4.149234   3.757029
     9  H    2.786375   2.117376   3.550469   3.550351   2.486344
                    6          7          8          9
     6  C    0.000000
     7  H    2.090433   0.000000
     8  H    1.085909   2.427537   0.000000
     9  H    1.087985   3.072900   1.852542   0.000000
 Symmetry turned off by external request.
 Stoichiometry    C3H6
 Framework group  C1[X(C3H6)]
 Deg. of freedom    21
 Full point group                 C1      NOp   1
 Rotational constants (GHZ):     46.7310204      9.2416802      8.1023482
 Leave Link  202 at Sun Sep 15 21:51:18 2013, MaxMem=   524288000 cpu:         0.0
 (Enter /opt/g09/l9999.exe)
 1\1\GINC-POUSSIN\FOpt\RB971\6-311+G(d,p)\C3H6\PB556\15-Sep-2013\0\\#p 
 rB971/6-311+G(d,p) Opt=(Tight, NewEstmFC, MaxCyc=400) Freq GFInput Pop
 ulation=None Integral(Grid=UltraFine) SCF=(MaxCyc=400, XQC) Guess=Mix 
 NoSymmetry\\a-fine-115-07-1\\0,1\C,0.67397,0.98901,0.86395\C,1.77026,1
 .9672,1.18239\H,-0.01998,0.88933,1.70806\H,0.08077,1.33039,0.00628\H,1
 .0761,-0.00175,0.63098\C,3.07475,1.68597,1.18662\H,1.45161,2.98127,1.4
 2646\H,3.81813,2.44042,1.42618\H,3.4429,0.68986,0.9501\\Version=ES64L-
 G09RevD.01\HF=-117.8974962\RMSD=2.006e-09\RMSF=2.792e-06\Dipole=-0.165
 9229,-0.0236882,-0.0159619\PG=C01 [X(C3H6)]\\@


 Other things may change us, but we start and end with family.
 -- Anthony Brandt
 Leave Link 9999 at Sun Sep 15 21:51:18 2013, MaxMem=   524288000 cpu:         0.3
 Job cpu time:       0 days  0 hours  1 minutes 22.0 seconds.
 File lengths (MBytes):  RWF=      6 Int=      0 D2E=      0 Chk=      2 Scr=      1
 Normal termination of Gaussian 09 at Sun Sep 15 21:51:18 2013.
 (Enter /opt/g09/l1.exe)
 Link1:  Proceeding to internal job step number  2.
 ----------------------------------------------------------------------
 #P Geom=AllCheck Guess=TCheck SCRF=Check GenChk RB971/6-311+G(d,p) Fre
 q
 ----------------------------------------------------------------------
 1/6=400,7=10,10=4,29=7,30=1,38=1,40=1/1,3;
 2/12=2,15=1,40=1/2;
 3/5=4,6=6,7=111,11=2,14=-4,16=1,24=10,25=1,30=1,70=2,71=2,74=-20,75=-5,116=1,140=1/1,2,3;
 4/5=101/1;
 5/5=2,7=400,8=3,13=1,98=1/2,8;
 8/6=4,10=90,11=11/1;
 11/6=1,8=1,9=11,15=111,16=1,31=1/1,2,10;
 10/6=1,31=1/2;
 7/8=1,10=1,25=1,30=1/1,2,3,16;
 1/6=400,7=10,10=4,30=1/3;
 99//99;
 Leave Link    1 at Sun Sep 15 21:51:18 2013, MaxMem=   524288000 cpu:         0.5
 (Enter /opt/g09/l101.exe)
 Structure from the checkpoint file:  "/scratch/pb556/g09_runs//Gau-27048.chk"
 ---------------
 a-fine-115-07-1
 ---------------
 Charge =  0 Multiplicity = 1
 Redundant internal coordinates found in file.
 C,0,0.67397,0.98901,0.86395
 C,0,1.77026,1.9672,1.18239
 H,0,-0.01998,0.88933,1.70806
 H,0,0.08077,1.33039,0.00628
 H,0,1.0761,-0.00175,0.63098
 C,0,3.07475,1.68597,1.18662
 H,0,1.45161,2.98127,1.42646
 H,0,3.81813,2.44042,1.42618
 H,0,3.4429,0.68986,0.9501
 Recover connectivity data from disk.
 NAtoms=      9 NQM=        9 NQMF=       0 NMMI=      0 NMMIF=      0
                NMic=       0 NMicF=      0.
                    Isotopes and Nuclear Properties:
 (Nuclear quadrupole moments (NQMom) in fm**2, nuclear magnetic moments (NMagM)
  in nuclear magnetons)

  Atom         1           2           3           4           5           6           7           8           9
 IAtWgt=          12          12           1           1           1          12           1           1           1
 AtmWgt=  12.0000000  12.0000000   1.0078250   1.0078250   1.0078250  12.0000000   1.0078250   1.0078250   1.0078250
 NucSpn=           0           0           1           1           1           0           1           1           1
 AtZEff=  -3.6000000  -3.6000000  -1.0000000  -1.0000000  -1.0000000  -3.6000000  -1.0000000  -1.0000000  -1.0000000
 NQMom=    0.0000000   0.0000000   0.0000000   0.0000000   0.0000000   0.0000000   0.0000000   0.0000000   0.0000000
 NMagM=    0.0000000   0.0000000   2.7928460   2.7928460   2.7928460   0.0000000   2.7928460   2.7928460   2.7928460
 AtZNuc=   6.0000000   6.0000000   1.0000000   1.0000000   1.0000000   6.0000000   1.0000000   1.0000000   1.0000000
 Leave Link  101 at Sun Sep 15 21:51:18 2013, MaxMem=   524288000 cpu:         1.8
 (Enter /opt/g09/l103.exe)

 GradGradGradGradGradGradGradGradGradGradGradGradGradGradGradGradGradGrad
 Berny optimization.
 Initialization pass.
                           ----------------------------
                           !    Initial Parameters    !
                           ! (Angstroms and Degrees)  !
 --------------------------                            --------------------------
 ! Name  Definition              Value          Derivative Info.                !
 --------------------------------------------------------------------------------
 ! R1    R(1,2)                  1.5034         calculate D2E/DX2 analytically  !
 ! R2    R(1,3)                  1.0973         calculate D2E/DX2 analytically  !
 ! R3    R(1,4)                  1.0973         calculate D2E/DX2 analytically  !
 ! R4    R(1,5)                  1.0943         calculate D2E/DX2 analytically  !
 ! R5    R(2,6)                  1.3345         calculate D2E/DX2 analytically  !
 ! R6    R(2,7)                  1.0906         calculate D2E/DX2 analytically  !
 ! R7    R(6,8)                  1.0859         calculate D2E/DX2 analytically  !
 ! R8    R(6,9)                  1.088          calculate D2E/DX2 analytically  !
 ! A1    A(2,1,3)              110.9371         calculate D2E/DX2 analytically  !
 ! A2    A(2,1,4)              110.938          calculate D2E/DX2 analytically  !
 ! A3    A(2,1,5)              111.482          calculate D2E/DX2 analytically  !
 ! A4    A(3,1,4)              106.7177         calculate D2E/DX2 analytically  !
 ! A5    A(3,1,5)              108.2954         calculate D2E/DX2 analytically  !
 ! A6    A(4,1,5)              108.2957         calculate D2E/DX2 analytically  !
 ! A7    A(1,2,6)              125.197          calculate D2E/DX2 analytically  !
 ! A8    A(1,2,7)              116.0618         calculate D2E/DX2 analytically  !
 ! A9    A(6,2,7)              118.7411         calculate D2E/DX2 analytically  !
 ! A10   A(2,6,8)              121.5656         calculate D2E/DX2 analytically  !
 ! A11   A(2,6,9)              121.536          calculate D2E/DX2 analytically  !
 ! A12   A(8,6,9)              116.8984         calculate D2E/DX2 analytically  !
 ! D1    D(3,1,2,6)            120.7884         calculate D2E/DX2 analytically  !
 ! D2    D(3,1,2,7)            -59.2114         calculate D2E/DX2 analytically  !
 ! D3    D(4,1,2,6)           -120.7766         calculate D2E/DX2 analytically  !
 ! D4    D(4,1,2,7)             59.2235         calculate D2E/DX2 analytically  !
 ! D5    D(5,1,2,6)              0.0064         calculate D2E/DX2 analytically  !
 ! D6    D(5,1,2,7)           -179.9935         calculate D2E/DX2 analytically  !
 ! D7    D(1,2,6,8)            179.9999         calculate D2E/DX2 analytically  !
 ! D8    D(1,2,6,9)              0.0021         calculate D2E/DX2 analytically  !
 ! D9    D(7,2,6,8)             -0.0003         calculate D2E/DX2 analytically  !
 ! D10   D(7,2,6,9)           -179.998          calculate D2E/DX2 analytically  !
 --------------------------------------------------------------------------------
 Trust Radius=3.00D-01 FncErr=1.00D-07 GrdErr=1.00D-07
 Number of steps in this run=      2 maximum allowed number of steps=      2.
 GradGradGradGradGradGradGradGradGradGradGradGradGradGradGradGradGradGrad

 Leave Link  103 at Sun Sep 15 21:51:18 2013, MaxMem=   524288000 cpu:         0.1
 (Enter /opt/g09/l202.exe)
                          Input orientation:                          
 ---------------------------------------------------------------------
 Center     Atomic      Atomic             Coordinates (Angstroms)
 Number     Number       Type             X           Y           Z
 ---------------------------------------------------------------------
      1          6           0        0.673970    0.989010    0.863950
      2          6           0        1.770260    1.967200    1.182390
      3          1           0       -0.019980    0.889330    1.708060
      4          1           0        0.080770    1.330390    0.006280
      5          1           0        1.076100   -0.001750    0.630980
      6          6           0        3.074750    1.685970    1.186620
      7          1           0        1.451610    2.981270    1.426460
      8          1           0        3.818130    2.440420    1.426180
      9          1           0        3.442900    0.689860    0.950100
 ---------------------------------------------------------------------
                    Distance matrix (angstroms):
                    1          2          3          4          5
     1  C    0.000000
     2  C    1.503367   0.000000
     3  H    1.097280   2.154784   0.000000
     4  H    1.097280   2.154794   1.760892   0.000000
     5  H    1.094344   2.159323   1.776377   1.776381   0.000000
     6  C    2.520638   1.334467   3.237883   3.237832   2.674273
     7  H    2.211389   1.090617   2.573148   2.573231   3.110017
     8  H    3.508338   2.115926   4.149268   4.149234   3.757029
     9  H    2.786375   2.117376   3.550469   3.550351   2.486344
                    6          7          8          9
     6  C    0.000000
     7  H    2.090433   0.000000
     8  H    1.085909   2.427537   0.000000
     9  H    1.087985   3.072900   1.852542   0.000000
 Symmetry turned off by external request.
 Stoichiometry    C3H6
 Framework group  C1[X(C3H6)]
 Deg. of freedom    21
 Full point group                 C1      NOp   1
 Rotational constants (GHZ):     46.7310204      9.2416802      8.1023482
 Leave Link  202 at Sun Sep 15 21:51:18 2013, MaxMem=   524288000 cpu:         0.0
 (Enter /opt/g09/l301.exe)
 Standard basis: 6-311+G(d,p) (5D, 7F)
 Ernie: Thresh=  0.10000D-02 Tol=  0.10000D-05 Strict=F.
 AO basis set in the form of general basis input (Overlap normalization):
      1 0
 S   6 1.00       0.000000000000
      0.4563240000D+04  0.1966650249D-02
      0.6820240000D+03  0.1523060193D-01
      0.1549730000D+03  0.7612690966D-01
      0.4445530000D+02  0.2608010331D+00
      0.1302900000D+02  0.6164620782D+00
      0.1827730000D+01  0.2210060280D+00
 SP   3 1.00       0.000000000000
      0.2096420000D+02  0.1146600807D+00  0.4024869267D-01
      0.4803310000D+01  0.9199996477D+00  0.2375939567D+00
      0.1459330000D+01 -0.3030682134D-02  0.8158538515D+00
 SP   1 1.00       0.000000000000
      0.4834560000D+00  0.1000000000D+01  0.1000000000D+01
 SP   1 1.00       0.000000000000
      0.1455850000D+00  0.1000000000D+01  0.1000000000D+01
 SP   1 1.00       0.000000000000
      0.4380000000D-01  0.1000000000D+01  0.1000000000D+01
 D   1 1.00       0.000000000000
      0.6260000000D+00  0.1000000000D+01
 ****
      2 0
 S   6 1.00       0.000000000000
      0.4563240000D+04  0.1966650249D-02
      0.6820240000D+03  0.1523060193D-01
      0.1549730000D+03  0.7612690966D-01
      0.4445530000D+02  0.2608010331D+00
      0.1302900000D+02  0.6164620782D+00
      0.1827730000D+01  0.2210060280D+00
 SP   3 1.00       0.000000000000
      0.2096420000D+02  0.1146600807D+00  0.4024869267D-01
      0.4803310000D+01  0.9199996477D+00  0.2375939567D+00
      0.1459330000D+01 -0.3030682134D-02  0.8158538515D+00
 SP   1 1.00       0.000000000000
      0.4834560000D+00  0.1000000000D+01  0.1000000000D+01
 SP   1 1.00       0.000000000000
      0.1455850000D+00  0.1000000000D+01  0.1000000000D+01
 SP   1 1.00       0.000000000000
      0.4380000000D-01  0.1000000000D+01  0.1000000000D+01
 D   1 1.00       0.000000000000
      0.6260000000D+00  0.1000000000D+01
 ****
      3 0
 S   3 1.00       0.000000000000
      0.3386500000D+02  0.2549381454D-01
      0.5094790000D+01  0.1903731086D+00
      0.1158790000D+01  0.8521614860D+00
 S   1 1.00       0.000000000000
      0.3258400000D+00  0.1000000000D+01
 S   1 1.00       0.000000000000
      0.1027410000D+00  0.1000000000D+01
 P   1 1.00       0.000000000000
      0.7500000000D+00  0.1000000000D+01
 ****
      4 0
 S   3 1.00       0.000000000000
      0.3386500000D+02  0.2549381454D-01
      0.5094790000D+01  0.1903731086D+00
      0.1158790000D+01  0.8521614860D+00
 S   1 1.00       0.000000000000
      0.3258400000D+00  0.1000000000D+01
 S   1 1.00       0.000000000000
      0.1027410000D+00  0.1000000000D+01
 P   1 1.00       0.000000000000
      0.7500000000D+00  0.1000000000D+01
 ****
      5 0
 S   3 1.00       0.000000000000
      0.3386500000D+02  0.2549381454D-01
      0.5094790000D+01  0.1903731086D+00
      0.1158790000D+01  0.8521614860D+00
 S   1 1.00       0.000000000000
      0.3258400000D+00  0.1000000000D+01
 S   1 1.00       0.000000000000
      0.1027410000D+00  0.1000000000D+01
 P   1 1.00       0.000000000000
      0.7500000000D+00  0.1000000000D+01
 ****
      6 0
 S   6 1.00       0.000000000000
      0.4563240000D+04  0.1966650249D-02
      0.6820240000D+03  0.1523060193D-01
      0.1549730000D+03  0.7612690966D-01
      0.4445530000D+02  0.2608010331D+00
      0.1302900000D+02  0.6164620782D+00
      0.1827730000D+01  0.2210060280D+00
 SP   3 1.00       0.000000000000
      0.2096420000D+02  0.1146600807D+00  0.4024869267D-01
      0.4803310000D+01  0.9199996477D+00  0.2375939567D+00
      0.1459330000D+01 -0.3030682134D-02  0.8158538515D+00
 SP   1 1.00       0.000000000000
      0.4834560000D+00  0.1000000000D+01  0.1000000000D+01
 SP   1 1.00       0.000000000000
      0.1455850000D+00  0.1000000000D+01  0.1000000000D+01
 SP   1 1.00       0.000000000000
      0.4380000000D-01  0.1000000000D+01  0.1000000000D+01
 D   1 1.00       0.000000000000
      0.6260000000D+00  0.1000000000D+01
 ****
      7 0
 S   3 1.00       0.000000000000
      0.3386500000D+02  0.2549381454D-01
      0.5094790000D+01  0.1903731086D+00
      0.1158790000D+01  0.8521614860D+00
 S   1 1.00       0.000000000000
      0.3258400000D+00  0.1000000000D+01
 S   1 1.00       0.000000000000
      0.1027410000D+00  0.1000000000D+01
 P   1 1.00       0.000000000000
      0.7500000000D+00  0.1000000000D+01
 ****
      8 0
 S   3 1.00       0.000000000000
      0.3386500000D+02  0.2549381454D-01
      0.5094790000D+01  0.1903731086D+00
      0.1158790000D+01  0.8521614860D+00
 S   1 1.00       0.000000000000
      0.3258400000D+00  0.1000000000D+01
 S   1 1.00       0.000000000000
      0.1027410000D+00  0.1000000000D+01
 P   1 1.00       0.000000000000
      0.7500000000D+00  0.1000000000D+01
 ****
      9 0
 S   3 1.00       0.000000000000
      0.3386500000D+02  0.2549381454D-01
      0.5094790000D+01  0.1903731086D+00
      0.1158790000D+01  0.8521614860D+00
 S   1 1.00       0.000000000000
      0.3258400000D+00  0.1000000000D+01
 S   1 1.00       0.000000000000
      0.1027410000D+00  0.1000000000D+01
 P   1 1.00       0.000000000000
      0.7500000000D+00  0.1000000000D+01
 ****

   102 basis functions,   156 primitive gaussians,   105 cartesian basis functions
    12 alpha electrons       12 beta electrons
       nuclear repulsion energy        70.5726648618 Hartrees.
 IExCor= 1614 DFT=T Ex+Corr=B971 ExCW=0 ScaHFX=  0.210000
 ScaDFX=  1.000000  1.000000  1.000000  1.000000 ScalE2=  1.000000  1.000000
 IRadAn=      5 IRanWt=     -1 IRanGd=            0 ICorTp=0 IEmpDi=  4
 NAtoms=    9 NActive=    9 NUniq=    9 SFac= 1.00D+00 NAtFMM=   60 NAOKFM=F Big=F
 Integral buffers will be    131072 words long.
 Raffenetti 2 integral format.
 Two-electron integral symmetry is turned off.
 Leave Link  301 at Sun Sep 15 21:51:18 2013, MaxMem=   524288000 cpu:         0.4
 (Enter /opt/g09/l302.exe)
 NPDir=0 NMtPBC=     1 NCelOv=     1 NCel=       1 NClECP=     1 NCelD=      1
         NCelK=      1 NCelE2=     1 NClLst=     1 CellRange=     0.0.
 One-electron integrals computed using PRISM.
 NBasis=   102 RedAO= T EigKep=  1.00D-04  NBF=   102
 NBsUse=   102 1.00D-06 EigRej= -1.00D+00 NBFU=   102
 Precomputing XC quadrature grid using
 IXCGrd= 4 IRadAn=           5 IRanWt=          -1 IRanGd=           0 AccXCQ= 0.00D+00.
 Generated NRdTot=       0 NPtTot=           0 NUsed=           0 NTot=          32
 NSgBfM=   105   105   105   105   105 MxSgAt=     9 MxSgA2=     9.
 Leave Link  302 at Sun Sep 15 21:51:19 2013, MaxMem=   524288000 cpu:         1.6
 (Enter /opt/g09/l303.exe)
 DipDrv:  MaxL=1.
 Leave Link  303 at Sun Sep 15 21:51:19 2013, MaxMem=   524288000 cpu:         0.3
 (Enter /opt/g09/l401.exe)
 Initial guess from the checkpoint file:  "/scratch/pb556/g09_runs//Gau-27048.chk"
 B after Tr=     0.000000    0.000000    0.000000
         Rot=    1.000000    0.000000    0.000000    0.000000 Ang=   0.00 deg.
 Guess basis will be translated and rotated to current coordinates.
 JPrj=2 DoOrth=T DoCkMO=T.
 Leave Link  401 at Sun Sep 15 21:51:19 2013, MaxMem=   524288000 cpu:         0.8
 (Enter /opt/g09/l502.exe)
 Closed shell SCF:
 Using DIIS extrapolation, IDIIS=  1040.
 Two-electron integral symmetry not used.
 Keep R1 ints in memory in canonical form, NReq=14782490.
 IVT=       53113 IEndB=       53113 NGot=   524288000 MDV=   510435257
 LenX=   510435257 LenY=   510423791
 Requested convergence on RMS density matrix=1.00D-08 within 128 cycles.
 Requested convergence on MAX density matrix=1.00D-06.
 Requested convergence on             energy=1.00D-06.
 No special actions if energy rises.
 FoFCou: FMM=F IPFlag=           0 FMFlag=           0 FMFlg1=           0
         NFxFlg=           0 DoJE=F BraDBF=F KetDBF=F FulRan=T
         wScrn=  0.000000 ICntrl=     600 IOpCl=  0 I1Cent=           0 NGrid=           0
         NMat0=    1 NMatS0=   5253 NMatT0=    0 NMatD0=    1 NMtDS0=    0 NMtDT0=    0
 Symmetry not used in FoFCou.

 Cycle   1  Pass 1  IDiag  1:
 E= -117.897496195293    
 DIIS: error= 1.24D-09 at cycle   1 NSaved=   1.
 NSaved= 1 IEnMin= 1 EnMin= -117.897496195293     IErMin= 1 ErrMin= 1.24D-09
 ErrMax= 1.24D-09  0.00D+00 EMaxC= 1.00D-01 BMatC= 1.81D-16 BMatP= 1.81D-16
 IDIUse=1 WtCom= 1.00D+00 WtEn= 0.00D+00
 Coeff-Com:  0.100D+01
 Coeff:      0.100D+01
 Gap=     0.268 Goal=   None    Shift=    0.000
 RMSDP=3.38D-10 MaxDP=3.97D-09              OVMax= 1.16D-08

 SCF Done:  E(RB971) =  -117.897496195     A.U. after    1 cycles
            NFock=  1  Conv=0.34D-09     -V/T= 2.0045
 KE= 1.173644752797D+02 PE=-4.139146118715D+02 EE= 1.080799755348D+02
 Leave Link  502 at Sun Sep 15 21:51:20 2013, MaxMem=   524288000 cpu:         7.5
 (Enter /opt/g09/l508.exe)
 QCSCF skips out because SCF is already converged.
 Leave Link  508 at Sun Sep 15 21:51:20 2013, MaxMem=   524288000 cpu:         0.0
 (Enter /opt/g09/l801.exe)
 DoSCS=F DFT=T ScalE2(SS,OS)=  1.000000  1.000000
 Range of M.O.s used for correlation:     1   102
 NBasis=   102 NAE=    12 NBE=    12 NFC=     0 NFV=     0
 NROrb=    102 NOA=    12 NOB=    12 NVA=    90 NVB=    90

 **** Warning!!: The largest alpha MO coefficient is  0.38401687D+02

 Leave Link  801 at Sun Sep 15 21:51:20 2013, MaxMem=   524288000 cpu:         0.2
 (Enter /opt/g09/l1101.exe)
 Using compressed storage, NAtomX=     9.
 Will process     10 centers per pass.
 Leave Link 1101 at Sun Sep 15 21:51:20 2013, MaxMem=   524288000 cpu:         1.4
 (Enter /opt/g09/l1102.exe)
 Symmetrizing basis deriv contribution to polar:
 IMax=3 JMax=2 DiffMx= 0.00D+00
 Leave Link 1102 at Sun Sep 15 21:51:20 2013, MaxMem=   524288000 cpu:         0.3
 (Enter /opt/g09/l1110.exe)
 Forming Gx(P) for the SCF density, NAtomX=     9.
 Integral derivatives from FoFJK, PRISM(SPDF).
 Do as many integral derivatives as possible in FoFJK.
 G2DrvN: MDV=     524287824.
 G2DrvN: will do    10 centers at a time, making    1 passes.
 Calling FoFCou, ICntrl=  3107 FMM=F I1Cent=   0 AccDes= 0.00D+00.
 FoFJK:  IHMeth= 1 ICntrl=    3107 DoSepK=F KAlg= 0 I1Cent=   0 FoldK=F
 IRaf=         0 NMat=   1 IRICut=       1 DoRegI=T DoRafI=F ISym2E= 0.
 FoFCou: FMM=F IPFlag=           0 FMFlag=      100000 FMFlg1=           0
         NFxFlg=           0 DoJE=F BraDBF=F KetDBF=F FulRan=T
         wScrn=  0.000000 ICntrl=    3107 IOpCl=  0 I1Cent=           0 NGrid=           0
         NMat0=    1 NMatS0=      1 NMatT0=    0 NMatD0=    1 NMtDS0=    0 NMtDT0=    0
 Symmetry not used in FoFCou.
 End of G2Drv F.D. properties file   721 does not exist.
 End of G2Drv F.D. properties file   722 does not exist.
 End of G2Drv F.D. properties file   788 does not exist.
 Leave Link 1110 at Sun Sep 15 21:51:32 2013, MaxMem=   524288000 cpu:        92.7
 (Enter /opt/g09/l1002.exe)
 Minotr:  Closed shell wavefunction.
          IDoAtm=111111111
          Direct CPHF calculation.
          Differentiating once with respect to electric field.
                with respect to dipole field.
          Differentiating once with respect to nuclear coordinates.
          Requested convergence is 1.0D-08 RMS, and 1.0D-07 maximum.
          Secondary convergence is 1.0D-12 RMS, and 1.0D-12 maximum.
          NewPWx=T KeepS1=F KeepF1=F KeepIn=T MapXYZ=F SortEE=F KeepMc=T.
          MDV=     524287804 using IRadAn=       1.
 Generate precomputed XC quadrature information.
 Keep R1 ints in memory in canonical form, NReq=14729989.
 FoFCou: FMM=F IPFlag=           0 FMFlag=           0 FMFlg1=           0
         NFxFlg=           0 DoJE=F BraDBF=F KetDBF=F FulRan=T
         wScrn=  0.000000 ICntrl=     600 IOpCl=  0 I1Cent=           0 NGrid=           0
         NMat0=    1 NMatS0=   5253 NMatT0=    0 NMatD0=    1 NMtDS0=    0 NMtDT0=    0
 Symmetry not used in FoFCou.
          Solving linear equations simultaneously, MaxMat=       0.
          There are    30 degrees of freedom in the 1st order CPHF.  IDoFFX=6 NUNeed=     3.
     27 vectors produced by pass  0 Test12= 3.60D-15 3.33D-09 XBig12= 4.71D+01 5.50D+00.
 AX will form    27 AO Fock derivatives at one time.
     27 vectors produced by pass  1 Test12= 3.60D-15 3.33D-09 XBig12= 5.89D+00 7.16D-01.
     27 vectors produced by pass  2 Test12= 3.60D-15 3.33D-09 XBig12= 7.03D-02 7.87D-02.
     27 vectors produced by pass  3 Test12= 3.60D-15 3.33D-09 XBig12= 1.70D-04 3.28D-03.
     27 vectors produced by pass  4 Test12= 3.60D-15 3.33D-09 XBig12= 2.27D-07 9.05D-05.
     14 vectors produced by pass  5 Test12= 3.60D-15 3.33D-09 XBig12= 1.55D-10 2.34D-06.
      3 vectors produced by pass  6 Test12= 3.60D-15 3.33D-09 XBig12= 8.81D-14 5.17D-08.
 InvSVY:  IOpt=1 It=  1 EMax= 4.44D-15
 Solved reduced A of dimension   152 with    30 vectors.
 FullF1:  Do perturbations    1 to     3.
 Isotropic polarizability for W=    0.000000       38.06 Bohr**3.
 End of Minotr F.D. properties file   721 does not exist.
 End of Minotr F.D. properties file   722 does not exist.
 End of Minotr F.D. properties file   788 does not exist.
 Leave Link 1002 at Sun Sep 15 21:51:45 2013, MaxMem=   524288000 cpu:       104.1
 (Enter /opt/g09/l701.exe)
 Compute integral second derivatives.
 ... and contract with generalized density number  0.
 Leave Link  701 at Sun Sep 15 21:51:46 2013, MaxMem=   524288000 cpu:         2.2
 (Enter /opt/g09/l702.exe)
 L702 exits ... SP integral derivatives will be done elsewhere.
 Leave Link  702 at Sun Sep 15 21:51:46 2013, MaxMem=   524288000 cpu:         0.3
 (Enter /opt/g09/l703.exe)
 Compute integral second derivatives, UseDBF=F ICtDFT=           0.
 Integral derivatives from FoFJK, PRISM(SPDF).
 Calling FoFJK, ICntrl=    100127 FMM=F ISym2X=0 I1Cent= 0 IOpClX= 0 NMat=1 NMatS=1 NMatT=0.
 FoFJK:  IHMeth= 1 ICntrl=  100127 DoSepK=F KAlg= 0 I1Cent=   0 FoldK=F
 IRaf=         0 NMat=   1 IRICut=       1 DoRegI=T DoRafI=F ISym2E= 0.
 FoFCou: FMM=F IPFlag=           0 FMFlag=      100000 FMFlg1=         800
         NFxFlg=           0 DoJE=F BraDBF=F KetDBF=F FulRan=T
         wScrn=  0.000000 ICntrl=  100127 IOpCl=  0 I1Cent=           0 NGrid=           0
         NMat0=    1 NMatS0=      1 NMatT0=    0 NMatD0=    1 NMtDS0=    0 NMtDT0=    0
 Symmetry not used in FoFCou.
 Leave Link  703 at Sun Sep 15 21:52:07 2013, MaxMem=   524288000 cpu:       172.1
 (Enter /opt/g09/l716.exe)
 Dipole        =-1.65922971D-01-2.36881485D-02-1.59619050D-02
 Polarizability= 5.04974594D+01-4.12976627D-02 3.38510342D+01
                 1.23244324D+00 1.13628484D+00 2.98278671D+01
 Full mass-weighted force constant matrix:
[...]
     24 -0.179497D-02  0.568087D-02 -0.423836D-03 -0.455716D-02  0.792426D-03
     25 -0.146068D-05 -0.480139D-02  0.480084D-02  0.000000D+00  0.000000D+00
     26 -0.345431D-05 -0.430499D-02  0.430907D-02  0.000000D+00 -0.174350D-05
     27 -0.276810D-05  0.104646D-02 -0.104089D-02  0.000000D+00  0.000000D+00
     28 -0.409870D-05  0.892902D-03 -0.892005D-03  0.213886D-05 -0.594350D-05
     29  0.000000D+00  0.537878D-03 -0.537053D-03  0.000000D+00  0.109445D-05
     30 -0.202296D-05  0.384323D-03 -0.388170D-03  0.224207D-05 -0.512023D-05
                6             7             8             9            10 
      6  0.343903D+00
      7  0.901142D-03  0.355687D+00
      8 -0.255609D-03  0.162396D-02  0.350941D+00
      9 -0.579661D-03  0.688798D-03 -0.231167D-03  0.100010D+00
     10 -0.580219D-03  0.689997D-03 -0.231937D-03 -0.167400D-01  0.100003D+00
     11  0.353970D-02 -0.909879D-03  0.170137D-02 -0.214975D-01 -0.214986D-01
     12 -0.216186D-03 -0.687002D-03  0.396201D-05 -0.374498D-01 -0.374482D-01
     13 -0.118039D-02  0.103651D-03 -0.669725D-03 -0.373389D-01  0.101154D-01
     14 -0.118035D-02  0.103478D-03 -0.669501D-03  0.101138D-01 -0.373342D-01
     15 -0.128321D-01  0.488687D-02 -0.509494D-02  0.938949D-02  0.938248D-02
     16  0.586889D-02 -0.164723D-02 -0.370736D-03 -0.774600D-02 -0.774263D-02
     17  0.696320D-02 -0.323965D-02  0.546568D-02 -0.164350D-02 -0.163985D-02
     18 -0.312034D-02  0.526553D-02 -0.125014D-01  0.116914D-02  0.117273D-02
     19  0.416162D-02 -0.117521D-01  0.635860D-02 -0.555193D-03 -0.559075D-03
     20 -0.104128D-02  0.648661D-02  0.614281D-02 -0.613873D-03 -0.613721D-03
     21  0.507671D-03 -0.139685D-04  0.145585D-03 -0.164656D-02 -0.507755D-02
     22  0.506581D-03 -0.136445D-04  0.146136D-03  0.123437D-02 -0.795632D-02
     23 -0.507226D-03  0.138416D-04 -0.146913D-03  0.507830D-02  0.164365D-02
     24 -0.508316D-03  0.141655D-04 -0.146362D-03  0.795923D-02 -0.123512D-02
     25  0.000000D+00  0.000000D+00  0.000000D+00 -0.815904D-02  0.815761D-02
     26  0.000000D+00  0.000000D+00  0.000000D+00 -0.527811D-02  0.527883D-02
     27  0.000000D+00  0.347671D-05  0.000000D+00  0.534823D-02 -0.534462D-02
     28  0.000000D+00  0.000000D+00 -0.214691D-05  0.317196D-02 -0.317061D-02
     29  0.000000D+00  0.314683D-05  0.000000D+00  0.239658D-02 -0.239520D-02
     30  0.150077D-05  0.000000D+00 -0.271828D-05  0.220311D-03 -0.221195D-03
               11            12            13            14            15 
     11  0.103266D+00
     12  0.106417D-01  0.545845D-01
     13 -0.379716D-01  0.663269D-02  0.551607D-01
     14 -0.379756D-01  0.663051D-02  0.736258D-02  0.551637D-01
     15 -0.126917D-01 -0.707780D-02  0.453868D-03  0.456708D-03  0.112264D+00
     16  0.153468D-01  0.468966D-02 -0.241650D-02 -0.241769D-02 -0.549294D-01
     17 -0.265508D-02  0.238814D-02  0.196264D-02  0.196098D-02 -0.573343D-01
     18 -0.418200D-03 -0.971669D-03 -0.522485D-03 -0.522572D-03  0.960189D-02
     19  0.351103D-03  0.536678D-03  0.130339D-03  0.131251D-03 -0.794689D-02
     20  0.670975D-04  0.434990D-03  0.392125D-03  0.391342D-03 -0.165499D-02
     21  0.716338D-02 -0.100211D-01  0.966960D-02 -0.465131D-03 -0.161348D-02
     22  0.716336D-02 -0.100226D-01  0.871525D-02  0.488423D-03 -0.161220D-02
     23 -0.716550D-02  0.100255D-01  0.465452D-03 -0.966952D-02  0.160637D-02
     24 -0.716553D-02  0.100241D-01 -0.488896D-03 -0.871597D-02  0.160765D-02
     25 -0.280524D-05  0.113600D-05 -0.904636D-02  0.904952D-02 -0.425543D-05
     26 -0.282847D-05  0.000000D+00 -0.100007D-01  0.100031D-01 -0.297705D-05
     27 -0.168678D-05 -0.176268D-05 -0.132675D-02  0.132655D-02 -0.275082D-05
     28 -0.394970D-05  0.000000D+00 -0.684321D-03  0.687080D-03 -0.645085D-05
     29 -0.164468D-05  0.000000D+00 -0.348980D-03  0.349586D-03 -0.405124D-05
     30 -0.390760D-05  0.157329D-05  0.293445D-03 -0.289881D-03 -0.775126D-05
               16            17            18            19            20 
     16  0.894185D-01
     17 -0.344891D-01  0.918234D-01
     18 -0.115167D-02 -0.845022D-02  0.795606D-01
     19 -0.203260D-02  0.997949D-02 -0.441534D-01  0.796826D-01
     20  0.318426D-02 -0.152927D-02 -0.354072D-01 -0.355291D-01  0.709363D-01
     21  0.204811D-02 -0.434616D-03 -0.145188D-03  0.212427D-04  0.123909D-03
     22  0.204811D-02 -0.435917D-03 -0.144928D-03  0.222248D-04  0.122750D-03
     23 -0.204465D-02  0.438291D-03  0.145762D-03 -0.243559D-04 -0.121442D-03
     24 -0.204464D-02  0.436990D-03  0.146022D-03 -0.233738D-04 -0.122601D-03
     25  0.227235D-05  0.199036D-05  0.146524D-05 -0.230833D-05  0.000000D+00
     26  0.228173D-05  0.000000D+00  0.172506D-05 -0.132630D-05  0.000000D+00
     27  0.139795D-05  0.134381D-05  0.437609D-05  0.000000D+00 -0.282216D-05
     28  0.312996D-05  0.331610D-05  0.387752D-05 -0.648698D-05  0.203268D-05
     29  0.151617D-05  0.253969D-05  0.411821D-05 -0.191263D-05 -0.163011D-05
     30  0.324819D-05  0.451198D-05  0.361963D-05 -0.750630D-05  0.322473D-05
               21            22            23            24            25 
     21  0.129956D-01
     22  0.939345D-02  0.138045D-01
     23 -0.383525D-02 -0.743781D-02  0.129998D-01
     24 -0.743742D-02 -0.302677D-02  0.939719D-02  0.138078D-01
     25 -0.304027D-02 -0.740519D-02 -0.303986D-02 -0.740478D-02  0.140621D-01
     26 -0.664244D-02 -0.299415D-02 -0.664242D-02 -0.299413D-02  0.969720D-02
     27 -0.173858D-02  0.369579D-02 -0.173841D-02  0.369596D-02 -0.371921D-02
     28 -0.624743D-03  0.224090D-02 -0.623739D-03  0.224190D-02 -0.192783D-02
     29  0.195200D-02 -0.823505D-03  0.195257D-02 -0.822937D-03  0.752832D-03
     30  0.306584D-02 -0.227840D-02  0.306724D-02 -0.227700D-02  0.254422D-02
               26            27            28            29            30 
     26  0.133455D-01
     27  0.171516D-02  0.210983D-01
     28  0.937810D-03  0.681125D-03  0.185075D-01
     29 -0.202267D-02  0.155306D-01 -0.225485D-02  0.183742D-01
     30 -0.280002D-02 -0.488662D-02  0.155715D-01  0.588778D-03  0.210469D-01
 Leave Link  716 at Sun Sep 15 21:52:07 2013, MaxMem=   524288000 cpu:         0.3
 (Enter /opt/g09/l103.exe)

 GradGradGradGradGradGradGradGradGradGradGradGradGradGradGradGradGradGrad
 Berny optimization.
 Red2BG is reusing G-inverse.
 Internal  Forces:  Max     0.000005022 RMS     0.000001623
 Search for a local minimum.
 Step number   1 out of a maximum of    2
 All quantities printed in internal units (Hartrees-Bohrs-Radians)
 Second derivative matrix not updated -- analytic derivatives used.
 ITU=  0
     Eigenvalues ---    0.00225   0.01921   0.03141   0.03891   0.05611
     Eigenvalues ---    0.05724   0.10359   0.11000   0.11865   0.12111
     Eigenvalues ---    0.14192   0.14344   0.18099   0.31306   0.32631
     Eigenvalues ---    0.33329   0.34069   0.34600   0.35232   0.35689
     Eigenvalues ---    0.61710
 Angle between quadratic step and forces=  35.59 degrees.
 Linear search not attempted -- first point.
 Iteration  1 RMS(Cart)=  0.00000518 RMS(Int)=  0.00000000
 Iteration  2 RMS(Cart)=  0.00000000 RMS(Int)=  0.00000000
 ITry= 1 IFail=0 DXMaxC= 1.06D-05 DCOld= 1.00D+10 DXMaxT= 3.00D-01 DXLimC= 3.00D+00 Rises=F
 Variable       Old X    -DE/DX   Delta X   Delta X   Delta X     New X
                                 (Linear)    (Quad)   (Total)
    R1        2.84095   0.00000   0.00000   0.00001   0.00001   2.84096
    R2        2.07356   0.00000   0.00000  -0.00001  -0.00001   2.07355
    R3        2.07356   0.00000   0.00000   0.00000   0.00000   2.07355
    R4        2.06801   0.00000   0.00000   0.00000   0.00000   2.06801
    R5        2.52178   0.00000   0.00000   0.00001   0.00001   2.52178
    R6        2.06097  -0.00001   0.00000  -0.00002  -0.00002   2.06095
    R7        2.05207   0.00000   0.00000  -0.00001  -0.00001   2.05206
    R8        2.05599   0.00000   0.00000  -0.00001  -0.00001   2.05598
    A1        1.93622   0.00000   0.00000   0.00000   0.00000   1.93622
    A2        1.93623   0.00000   0.00000   0.00000   0.00000   1.93623
    A3        1.94573   0.00000   0.00000  -0.00001  -0.00001   1.94572
    A4        1.86258   0.00000   0.00000   0.00000   0.00000   1.86257
    A5        1.89011   0.00000   0.00000   0.00001   0.00001   1.89012
    A6        1.89012   0.00000   0.00000   0.00000   0.00000   1.89012
    A7        2.18510   0.00000   0.00000   0.00000   0.00000   2.18510
    A8        2.02566   0.00000   0.00000   0.00000   0.00000   2.02566
    A9        2.07242   0.00000   0.00000   0.00000   0.00000   2.07243
   A10        2.12172   0.00000   0.00000  -0.00001  -0.00001   2.12171
   A11        2.12120   0.00000   0.00000   0.00000   0.00000   2.12121
   A12        2.04026   0.00000   0.00000   0.00000   0.00000   2.04027
    D1        2.10816   0.00000   0.00000   0.00000   0.00000   2.10816
    D2       -1.03343   0.00000   0.00000   0.00001   0.00001  -1.03343
    D3       -2.10795   0.00000   0.00000   0.00000   0.00000  -2.10795
    D4        1.03364   0.00000   0.00000   0.00001   0.00001   1.03365
    D5        0.00011   0.00000   0.00000  -0.00001  -0.00001   0.00010
    D6       -3.14148   0.00000   0.00000   0.00000   0.00000  -3.14148
    D7        3.14159   0.00000   0.00000   0.00001   0.00001  -3.14159
    D8        0.00004   0.00000   0.00000   0.00000   0.00000   0.00004
    D9        0.00000   0.00000   0.00000   0.00001   0.00001   0.00000
   D10       -3.14156   0.00000   0.00000   0.00000   0.00000  -3.14156
         Item               Value     Threshold  Converged?
 Maximum Force            0.000005     0.000015     YES
 RMS     Force            0.000002     0.000010     YES
 Maximum Displacement     0.000011     0.000060     YES
 RMS     Displacement     0.000005     0.000040     YES
 Predicted change in Energy=-1.354047D-10
 Optimization completed.
    -- Stationary point found.
                           ----------------------------
                           !   Optimized Parameters   !
                           ! (Angstroms and Degrees)  !
 --------------------------                            --------------------------
 ! Name  Definition              Value          Derivative Info.                !
 --------------------------------------------------------------------------------
 ! R1    R(1,2)                  1.5034         -DE/DX =    0.0                 !
 ! R2    R(1,3)                  1.0973         -DE/DX =    0.0                 !
 ! R3    R(1,4)                  1.0973         -DE/DX =    0.0                 !
 ! R4    R(1,5)                  1.0943         -DE/DX =    0.0                 !
 ! R5    R(2,6)                  1.3345         -DE/DX =    0.0                 !
 ! R6    R(2,7)                  1.0906         -DE/DX =    0.0                 !
 ! R7    R(6,8)                  1.0859         -DE/DX =    0.0                 !
 ! R8    R(6,9)                  1.088          -DE/DX =    0.0                 !
 ! A1    A(2,1,3)              110.9371         -DE/DX =    0.0                 !
 ! A2    A(2,1,4)              110.938          -DE/DX =    0.0                 !
 ! A3    A(2,1,5)              111.482          -DE/DX =    0.0                 !
 ! A4    A(3,1,4)              106.7177         -DE/DX =    0.0                 !
 ! A5    A(3,1,5)              108.2954         -DE/DX =    0.0                 !
 ! A6    A(4,1,5)              108.2957         -DE/DX =    0.0                 !
 ! A7    A(1,2,6)              125.197          -DE/DX =    0.0                 !
 ! A8    A(1,2,7)              116.0618         -DE/DX =    0.0                 !
 ! A9    A(6,2,7)              118.7411         -DE/DX =    0.0                 !
 ! A10   A(2,6,8)              121.5656         -DE/DX =    0.0                 !
 ! A11   A(2,6,9)              121.536          -DE/DX =    0.0                 !
 ! A12   A(8,6,9)              116.8984         -DE/DX =    0.0                 !
 ! D1    D(3,1,2,6)            120.7884         -DE/DX =    0.0                 !
 ! D2    D(3,1,2,7)            -59.2114         -DE/DX =    0.0                 !
 ! D3    D(4,1,2,6)           -120.7766         -DE/DX =    0.0                 !
 ! D4    D(4,1,2,7)             59.2235         -DE/DX =    0.0                 !
 ! D5    D(5,1,2,6)              0.0064         -DE/DX =    0.0                 !
 ! D6    D(5,1,2,7)           -179.9935         -DE/DX =    0.0                 !
 ! D7    D(1,2,6,8)           -180.0001         -DE/DX =    0.0                 !
 ! D8    D(1,2,6,9)              0.0021         -DE/DX =    0.0                 !
 ! D9    D(7,2,6,8)             -0.0003         -DE/DX =    0.0                 !
 ! D10   D(7,2,6,9)           -179.998          -DE/DX =    0.0                 !
 --------------------------------------------------------------------------------
 GradGradGradGradGradGradGradGradGradGradGradGradGradGradGradGradGradGrad

 Leave Link  103 at Sun Sep 15 21:52:07 2013, MaxMem=   524288000 cpu:         0.1
 (Enter /opt/g09/l9999.exe)
 1\1\GINC-POUSSIN\Freq\RB971\6-311+G(d,p)\C3H6\PB556\15-Sep-2013\0\\#P 
 Geom=AllCheck Guess=TCheck SCRF=Check GenChk RB971/6-311+G(d,p) Freq\\
 a-fine-115-07-1\\0,1\C,0.67397,0.98901,0.86395\C,1.77026,1.9672,1.1823
 9\H,-0.01998,0.88933,1.70806\H,0.08077,1.33039,0.00628\H,1.0761,-0.001
 75,0.63098\C,3.07475,1.68597,1.18662\H,1.45161,2.98127,1.42646\H,3.818
 13,2.44042,1.42618\H,3.4429,0.68986,0.9501\\Version=ES64L-G09RevD.01\H
 F=-117.8974962\RMSD=3.380e-10\RMSF=2.791e-06\ZeroPoint=0.0790849\Therm
 al=0.0831916\Dipole=-0.165923,-0.0236881,-0.0159619\DipoleDeriv=-0.060
 6055,-0.0670614,-0.0302659,-0.0416834,0.0398739,-0.0332021,-0.0237875,
 -0.0347304,0.1481577,0.3114008,0.0604881,0.0495418,0.1153146,0.1292012
 ,0.1075108,0.0636663,0.1043261,-0.2285447,-0.0439649,-0.0359617,0.0724
 149,-0.0725336,0.0592004,-0.018893,0.1131644,0.0135256,-0.0452155,-0.0
 204092,0.0020769,-0.0792391,-0.0135405,0.0325401,0.063055,-0.1334776,0
 .0337138,-0.0420856,0.0071038,0.0967892,0.021204,0.0062663,-0.1083787,
 -0.0465876,-0.0022675,-0.0412557,0.0620871,-0.2059171,-0.0384172,-0.00
 19292,0.0017217,0.0632492,0.1055732,0.0085606,0.103225,-0.3163381,0.00
 3787,0.0268459,-0.0016169,0.0278468,-0.1166293,-0.0671297,-0.0013428,-
 0.0671944,0.1311678,-0.0307549,-0.0574939,-0.0265821,-0.0885826,-0.014
 2624,-0.0521816,-0.0346384,-0.0503423,0.1516813,0.03936,0.0127341,-0.0
 035276,0.0651906,-0.0847944,-0.0581452,0.0101226,-0.0612677,0.1390899\
 Polar=50.4974594,-0.0412977,33.8510342,1.2324432,1.1362848,29.8278671\
 PG=C01 [X(C3H6)]\NImag=0\\0.51334575,-0.04274964,0.53615926,-0.0116052
 7,0.00111467,0.52178710,-0.15075240,-0.06677320,-0.02203169,0.80388812
 ,-0.05974829,-0.14885924,-0.02374049,-0.09296956,0.57229248,-0.0202213
 5,-0.02416570,-0.07837869,0.01469739,0.10457701,0.17574112,-0.14192137
 ,-0.01209223,0.12659288,-0.01966587,-0.00170996,0.01740040,0.15839072,
 -0.01378526,-0.04918907,0.01639772,-0.01379680,-0.00077588,0.01756133,
 0.01737689,0.04898284,0.12511405,0.01508269,-0.19765539,-0.00619724,-0
 .00047468,0.00853990,-0.13666764,-0.01750360,0.21551714,-0.11425407,0.
 04589201,-0.10812654,-0.01768641,0.00764005,-0.01840802,0.01117788,-0.
 00660571,0.01620482,0.12810942,0.04384812,-0.07356876,0.06242654,-0.01
 227648,0.00885905,-0.01849907,0.00150968,-0.00164886,0.00181366,-0.045
 83533,0.07619546,-0.10760951,0.06397117,-0.20092724,-0.00311528,0.0014
 2422,-0.00307254,-0.01354056,0.00868051,-0.02103805,0.11913604,-0.0704
 0133,0.21856925,-0.08503904,0.09117629,0.02135509,0.00980290,-0.023725
 41,-0.00550940,-0.00767112,0.01767506,0.00232860,-0.00681898,0.0140851
 2,0.00495804,0.09108005,0.08869300,-0.25865517,-0.04969847,0.00878299,
 -0.02143076,-0.00477983,-0.00152241,0.00363564,0.00070347,0.00307558,-
 0.00834274,-0.00222183,-0.09595101,0.28295010,0.02071410,-0.04955133,-
 0.05825034,0.00291378,-0.00670686,-0.00255353,0.00859043,-0.02299332,-
 0.00479292,-0.00913651,0.02326456,0.00633057,-0.02212415,0.05604589,0.
 05800443,-0.02837521,0.00137687,-0.00176748,-0.52367988,0.09519262,-0.
 00335813,-0.00041721,-0.00102145,-0.00113374,-0.00051230,-0.00146739,0
 .00043981,0.00177918,0.00144464,0.00050664,0.82541335,-0.02330223,0.00
 778313,-0.00132222,0.09450370,-0.12688269,-0.01449185,-0.00352903,-0.0
 0191025,-0.00026485,-0.00349156,-0.00186040,-0.00110471,-0.00105329,0.
 00186270,0.00054835,-0.04412210,0.60556190,-0.00816599,0.00013892,0.00
 711682,-0.00353406,-0.01445170,-0.05341346,-0.00095580,-0.00086896,-0.
 00026669,-0.00091343,-0.00023165,-0.00022020,-0.00013687,0.00069239,-0
 .00031407,0.03124582,0.12756285,0.13846609,0.00787879,-0.02176517,-0.0
 0532717,-0.07725111,0.06923159,0.01579697,0.00067785,0.00068085,0.0006
 5315,0.00066505,0.00085304,-0.00020274,-0.00329618,-0.00341947,-0.0011
 8954,-0.00795659,0.03196556,0.00743644,0.08342839,0.00710609,-0.015693
 46,-0.00430909,0.07365581,-0.28492061,-0.05890775,-0.00014508,0.000296
 95,0.00049548,-0.00036536,0.00033052,-0.00048031,-0.00333198,-0.001064
 28,-0.00094663,0.00032851,-0.00472135,-0.00286810,-0.07832801,0.302952
 53,0.00215849,-0.00601623,0.00111655,0.01694291,-0.05916800,-0.0552384
 9,-0.00057728,-0.00035796,0.00025222,0.00049709,0.00049431,0.00023118,
 -0.00116685,-0.00095111,0.00151033,-0.00076402,-0.00099913,0.00611218,
 -0.01689134,0.06724416,0.04214772,-0.00251471,0.00326111,-0.00009845,-
 0.01755292,-0.02429657,-0.00751328,-0.00065959,-0.00037322,-0.00019132
 ,-0.00091501,-0.00056118,-0.00011195,0.00025863,0.00002448,0.00003297,
 -0.18173461,-0.13026013,-0.04257232,0.00093906,0.00004165,0.00052056,0
 .19392511,0.00157395,0.00107038,-0.00311648,0.00826965,0.00709116,0.00
 155159,0.00048972,0.00059333,0.00016537,-0.00060437,-0.00012148,0.0000
 9211,0.00025138,0.00047057,0.00018646,-0.13535597,-0.19407998,-0.04976
 630,-0.00037372,0.00076742,0.00217068,0.14372402,0.19758181,-0.0005358
 2,-0.00301619,0.01263718,0.00092886,-0.00037533,0.00295250,-0.00213499
 ,-0.00118468,-0.00073431,0.00204490,0.00139397,0.00023563,0.00009175,0
 .00017298,-0.00014136,-0.04389322,-0.04946363,-0.04842657,0.00041326,0
 .00219566,-0.00709681,0.04737120,0.05374332,0.03980889,0.00163227,0.00
 167397,0.00100862,-0.00710243,0.03038552,0.00711542,0.00008871,-0.0001
 5036,-0.00011068,0.00023443,-0.00015558,0.00004614,-0.00009544,-0.0011
 2780,-0.00030772,-0.08451673,0.07928908,0.01759621,-0.00508525,0.00103
 838,-0.00071955,0.00825404,-0.01797465,-0.00428594,0.08659039,-0.00163
 574,0.00095293,0.00224781,0.00060389,-0.00537351,-0.00284573,-0.000377
 56,0.00001530,-0.00001754,0.00029468,0.00015721,0.00004017,0.00087385,
 0.00057394,0.00015288,0.08362427,-0.28575307,-0.06020744,0.00115533,0.
 00205227,-0.00241673,0.00843984,-0.01337322,-0.00346610,-0.09297856,0.
 30074815,0.00015129,0.00244200,-0.00744598,-0.00060466,-0.00108417,0.0
 0542320,0.00129257,0.00026895,0.00017811,-0.00129834,-0.00026098,-0.00
 010860,0.00020378,0.00003651,0.00020689,0.01872431,-0.06046482,-0.0490
 5409,-0.00068904,-0.00242342,0.01096511,0.00256260,-0.00502675,0.00076
 486,-0.02034250,0.06651269,0.03907049\\0.00000570,0.00000282,-0.000002
 39,0.00000172,-0.00000749,-0.00000145,-0.00000219,-0.00000060,0.000002
 61,-0.00000048,0.00000058,-0.00000193,-0.00000067,-0.00000099,0.000000
 53,-0.00000609,0.00000203,0.00000097,-0.00000117,0.00000485,0.00000076
 ,0.00000238,0.00000163,0.00000077,0.00000081,-0.00000283,0.00000012\\\
 @


 WHEN ALL ELSE FAILS, LOOK AT THE SCHRODINGER EQUATION.
     -- RUSSELL T. PACK, APRIL 1978
 Job cpu time:       0 days  0 hours  6 minutes 31.9 seconds.
 File lengths (MBytes):  RWF=     12 Int=      0 D2E=      0 Chk=      2 Scr=      1
 Normal termination of Gaussian 09 at Sun Sep 15 21:52:08 2013.
