 Entering Gaussian System, Link 0=g09
 Input=00_00freq-no-symm-00_00fine-Cl_west.gau
 Output=00_00freq-no-symm-00_00fine-Cl_west.log
 Initial command:
 /opt/g09/l1.exe "/scratch/pb556/g09_run/ti_runs//Gau-5854.inp" -scrdir="/scratch/pb556/g09_run/ti_runs//"
 Entering Link 1 = /opt/g09/l1.exe PID=      5855.
  
 Copyright (c) 1988,1990,1992,1993,1995,1998,2003,2009,2013,
            Gaussian, Inc.  All Rights Reserved.
  
 This is part of the Gaussian(R) 09 program.  It is based on
 the Gaussian(R) 03 system (copyright 2003, Gaussian, Inc.),
 the Gaussian(R) 98 system (copyright 1998, Gaussian, Inc.),
 the Gaussian(R) 94 system (copyright 1995, Gaussian, Inc.),
 the Gaussian 92(TM) system (copyright 1992, Gaussian, Inc.),
 the Gaussian 90(TM) system (copyright 1990, Gaussian, Inc.),
 the Gaussian 88(TM) system (copyright 1988, Gaussian, Inc.),
 the Gaussian 86(TM) system (copyright 1986, Carnegie Mellon
 University), and the Gaussian 82(TM) system (copyright 1983,
 Carnegie Mellon University). Gaussian is a federally registered
 trademark of Gaussian, Inc.
  
 This software contains proprietary and confidential information,
 including trade secrets, belonging to Gaussian, Inc.
  
 This software is provided under written license and may be
 used, copied, transmitted, or stored only in accord with that
 written license.
  
 The following legend is applicable only to US Government
 contracts under FAR:
  
                    RESTRICTED RIGHTS LEGEND
  
 Use, reproduction and disclosure by the US Government is
 subject to restrictions as set forth in subparagraphs (a)
 and (c) of the Commercial Computer Software - Restricted
 Rights clause in FAR 52.227-19.
  
 Gaussian, Inc.
 340 Quinnipiac St., Bldg. 40, Wallingford CT 06492
  
  
 ---------------------------------------------------------------
 Warning -- This program may not be used in any manner that
 competes with the business of Gaussian, Inc. or will provide
 assistance to any competitor of Gaussian, Inc.  The licensee
 of this program is prohibited from giving any competitor of
 Gaussian, Inc. access to this program.  By using this program,
 the user acknowledges that Gaussian, Inc. is engaged in the
 business of creating and licensing software in the field of
 computational chemistry and represents and warrants to the
 licensee that it is not a competitor of Gaussian, Inc. and that
 it will not use this program in any manner prohibited above.
 ---------------------------------------------------------------
  

 Cite this work as:
 Gaussian 09, Revision D.01,
 M. J. Frisch, G. W. Trucks, H. B. Schlegel, G. E. Scuseria, 
 M. A. Robb, J. R. Cheeseman, G. Scalmani, V. Barone, B. Mennucci, 
 G. A. Petersson, H. Nakatsuji, M. Caricato, X. Li, H. P. Hratchian, 
 A. F. Izmaylov, J. Bloino, G. Zheng, J. L. Sonnenberg, M. Hada, 
 M. Ehara, K. Toyota, R. Fukuda, J. Hasegawa, M. Ishida, T. Nakajima, 
 Y. Honda, O. Kitao, H. Nakai, T. Vreven, J. A. Montgomery, Jr., 
 J. E. Peralta, F. Ogliaro, M. Bearpark, J. J. Heyd, E. Brothers, 
 K. N. Kudin, V. N. Staroverov, T. Keith, R. Kobayashi, J. Normand, 
 K. Raghavachari, A. Rendell, J. C. Burant, S. S. Iyengar, J. Tomasi, 
 M. Cossi, N. Rega, J. M. Millam, M. Klene, J. E. Knox, J. B. Cross, 
 V. Bakken, C. Adamo, J. Jaramillo, R. Gomperts, R. E. Stratmann, 
 O. Yazyev, A. J. Austin, R. Cammi, C. Pomelli, J. W. Ochterski, 
 R. L. Martin, K. Morokuma, V. G. Zakrzewski, G. A. Voth, 
 P. Salvador, J. J. Dannenberg, S. Dapprich, A. D. Daniels, 
 O. Farkas, J. B. Foresman, J. V. Ortiz, J. Cioslowski, 
 and D. J. Fox, Gaussian, Inc., Wallingford CT, 2013.
 
 ******************************************
 Gaussian 09:  ES64L-G09RevD.01 24-Apr-2013
                19-Oct-2015 
 ******************************************
 %NProcShared=8
 Will use up to    8 processors via shared memory.
 %Mem=500MW
 ----------------------------------------------------------------------
 #p uB971/6-311+G(d,p) Opt=(Tight, CalcAll, MaxCycles=512, MaxStep=256)
  Freq GFInput Population=None Integral(Grid=UltraFine) SCF=XQC Guess=M
 IX NoSymmetry
 ----------------------------------------------------------------------
 1/6=512,7=10,8=256,10=4,14=-1,18=20,19=15,26=4,38=1/1,3;
 2/9=110,12=2,15=1,17=6,18=5,40=1/2;
 3/5=4,6=6,7=111,11=2,16=1,24=10,25=1,30=1,71=2,74=-20,75=-5,116=2,140=1/1,2,3;
 4/13=-1/1;
 5/5=2,8=3,13=1,38=5/2,8;
 8/6=4,10=90,11=11/1;
 11/6=1,8=1,9=11,15=111,16=1,31=1/1,2,10;
 10/6=1,31=1/2;
 7/10=1,25=1,30=1/1,2,3,16;
 1/6=512,7=10,8=256,10=4,14=-1,18=20,19=15,26=4/3(3);
 2/9=110,15=1/2;
 7/8=1,9=1,25=1,30=1,44=-1/16;
 99//99;
 2/9=110,15=1/2;
 3/5=4,6=6,7=111,11=2,16=1,25=1,30=1,71=2,74=-20,75=-5,116=2,140=1/1,2,3;
 4/5=5,16=3,69=1/1;
 5/5=2,8=3,13=1,38=5/2,8;
 8/6=4,10=90,11=11/1;
 11/6=1,8=1,9=11,15=111,16=1,31=1/1,2,10;
 10/6=1,31=1/2;
 7/10=1,25=1,30=1/1,2,3,16;
 1/6=512,7=10,8=256,10=4,14=-1,18=20,19=15,26=4/3(-8);
 2/9=110,15=1/2;
 7/8=1,9=1,25=1,30=1,44=-1/16;
 99//99;
 Leave Link    1 at Mon Oct 19 21:13:55 2015, MaxMem=   524288000 cpu:         0.6
 (Enter /opt/g09/l101.exe)
 -----------------------
 ./00_00fine-Cl_west.g09
 -----------------------
 Symbolic Z-matrix:
 Charge =  0 Multiplicity = 2
 Cl                    0.        0.        0. 
 
 NAtoms=      1 NQM=        1 NQMF=       0 NMMI=      0 NMMIF=      0
                NMic=       0 NMicF=      0.
                    Isotopes and Nuclear Properties:
 (Nuclear quadrupole moments (NQMom) in fm**2, nuclear magnetic moments (NMagM)
  in nuclear magnetons)

  Atom         1
 IAtWgt=          35
 AtmWgt=  34.9688527
 NucSpn=           3
 AtZEff=   0.0000000
 NQMom=   -8.1650000
 NMagM=    0.8218740
 AtZNuc=  17.0000000
 Leave Link  101 at Mon Oct 19 21:13:55 2015, MaxMem=   524288000 cpu:         1.3
 (Enter /opt/g09/l103.exe)

 GradGradGradGradGradGradGradGradGradGradGradGradGradGradGradGradGradGrad
 Berny optimization.
 Initialization pass.
 No Z-matrix variables, so optimization will use Cartesian coordinates.
 Trust Radius=2.56D+00 FncErr=1.00D-07 GrdErr=1.00D-06
 Number of steps in this run=    100 maximum allowed number of steps=    100.
 GradGradGradGradGradGradGradGradGradGradGradGradGradGradGradGradGradGrad

 Leave Link  103 at Mon Oct 19 21:13:55 2015, MaxMem=   524288000 cpu:         0.2
 (Enter /opt/g09/l202.exe)
                          Input orientation:                          
 ---------------------------------------------------------------------
 Center     Atomic      Atomic             Coordinates (Angstroms)
 Number     Number       Type             X           Y           Z
 ---------------------------------------------------------------------
      1         17           0        0.000000    0.000000    0.000000
 ---------------------------------------------------------------------
 Symmetry turned off by external request.
 Stoichiometry    Cl(2)
 Framework group  OH[O(Cl)]
 Deg. of freedom     0
 Full point group                 OH      NOp  48
 Leave Link  202 at Mon Oct 19 21:13:55 2015, MaxMem=   524288000 cpu:         0.3
 (Enter /opt/g09/l301.exe)
 Standard basis: 6-311+G(d,p) (5D, 7F)
 Ernie: Thresh=  0.10000D-02 Tol=  0.10000D-05 Strict=F.
 AO basis set in the form of general basis input (Overlap normalization):
      1 0
 S   6 1.00       0.000000000000
      0.1058190000D+06  0.7380002465D-03
      0.1587200000D+05  0.5718001910D-02
      0.3619650000D+04  0.2949500985D-01
      0.1030800000D+04  0.1172860392D+00
      0.3399080000D+03  0.3629491212D+00
      0.1245380000D+03  0.5841491951D+00
 S   3 1.00       0.000000000000
      0.1245380000D+03  0.1341769734D+00
      0.4951350000D+02  0.6242498762D+00
      0.2080560000D+02  0.2917559421D+00
 S   1 1.00       0.000000000000
      0.6583460000D+01  0.1000000000D+01
 S   1 1.00       0.000000000000
      0.2564680000D+01  0.1000000000D+01
 S   1 1.00       0.000000000000
      0.5597630000D+00  0.1000000000D+01
 S   1 1.00       0.000000000000
      0.1832730000D+00  0.1000000000D+01
 SP   1 1.00       0.000000000000
      0.4830000000D-01  0.1000000000D+01  0.1000000000D+01
 P   5 1.00       0.000000000000
      0.5897760000D+03  0.3665569355D-02
      0.1398490000D+03  0.2836791942D-01
      0.4514130000D+02  0.1247566028D+00
      0.1687330000D+02  0.3396546305D+00
      0.2771520000D+01  0.7475859630D+00
 P   2 1.00       0.000000000000
      0.6741100000D+01 -0.1572243813D+01
      0.2771520000D+01  0.9923888817D+00
 P   1 1.00       0.000000000000
      0.1023870000D+01  0.1000000000D+01
 P   1 1.00       0.000000000000
      0.3813680000D+00  0.1000000000D+01
 P   1 1.00       0.000000000000
      0.1094370000D+00  0.1000000000D+01
 D   1 1.00       0.000000000000
      0.7500000000D+00  0.1000000000D+01
 ****

    30 basis functions,    53 primitive gaussians,    31 cartesian basis functions
     9 alpha electrons        8 beta electrons
       nuclear repulsion energy         0.0000000000 Hartrees.
 IExCor= 1614 DFT=T Ex+Corr=B971 ExCW=0 ScaHFX=  0.210000
 ScaDFX=  1.000000  1.000000  1.000000  1.000000 ScalE2=  1.000000  1.000000
 IRadAn=      5 IRanWt=     -1 IRanGd=            0 ICorTp=0 IEmpDi=  4
 NAtoms=    1 NActive=    1 NUniq=    1 SFac= 1.00D+00 NAtFMM=   60 NAOKFM=F Big=F
 Integral buffers will be    131072 words long.
 Raffenetti 2 integral format.
 Two-electron integral symmetry is turned off.
 Leave Link  301 at Mon Oct 19 21:13:55 2015, MaxMem=   524288000 cpu:         0.4
 (Enter /opt/g09/l302.exe)
 NPDir=0 NMtPBC=     1 NCelOv=     1 NCel=       1 NClECP=     1 NCelD=      1
         NCelK=      1 NCelE2=     1 NClLst=     1 CellRange=     0.0.
 One-electron integrals computed using PRISM.
 NBasis=    30 RedAO= T EigKep=  3.40D-02  NBF=    30
 NBsUse=    30 1.00D-06 EigRej= -1.00D+00 NBFU=    30
 Precomputing XC quadrature grid using
 IXCGrd= 4 IRadAn=           5 IRanWt=          -1 IRanGd=           0 AccXCQ= 0.00D+00.
 Generated NRdTot=       0 NPtTot=           0 NUsed=           0 NTot=          32
 NSgBfM=    31    31    31    31    31 MxSgAt=     1 MxSgA2=     1.
 Leave Link  302 at Mon Oct 19 21:13:55 2015, MaxMem=   524288000 cpu:         1.1
 (Enter /opt/g09/l303.exe)
 DipDrv:  MaxL=1.
 Leave Link  303 at Mon Oct 19 21:13:55 2015, MaxMem=   524288000 cpu:         0.2
 (Enter /opt/g09/l401.exe)
 ExpMin= 4.83D-02 ExpMax= 1.06D+05 ExpMxC= 3.62D+03 IAcc=3 IRadAn=         5 AccDes= 0.00D+00
 Harris functional with IExCor= 1614 and IRadAn=       5 diagonalized for initial guess.
 HarFok:  IExCor= 1614 AccDes= 0.00D+00 IRadAn=         5 IDoV= 1 UseB2=F ITyADJ=14
 ICtDFT=  3500011 ScaDFX=  1.000000  1.000000  1.000000  1.000000
 FoFCou: FMM=F IPFlag=           0 FMFlag=      100000 FMFlg1=           0
         NFxFlg=           0 DoJE=T BraDBF=F KetDBF=T FulRan=T
         wScrn=  0.000000 ICntrl=     500 IOpCl=  0 I1Cent=   200000004 NGrid=           0
         NMat0=    1 NMatS0=      1 NMatT0=    0 NMatD0=    1 NMtDS0=    0 NMtDT0=    0
 Symmetry not used in FoFCou.
 Harris En= -454.347478354166    
 JPrj=0 DoOrth=F DoCkMO=T.
 Mixing orbitals, IMix= 1 IMixAn=  0 NRI=1 NE=    9 Coef=  7.07106781D-01  7.07106781D-01
 Mixing orbitals, IMix= 1 IMixAn=  0 NRI=1 NE=    8 Coef= -7.07106781D-01  7.07106781D-01
 Initial guess <Sx>= 0.0000 <Sy>= 0.0000 <Sz>= 0.5000 <S**2>= 1.0000 S= 0.6180
 Leave Link  401 at Mon Oct 19 21:13:55 2015, MaxMem=   524288000 cpu:         1.0
 (Enter /opt/g09/l502.exe)
 UHF open shell SCF:
 Using DIIS extrapolation, IDIIS=  1040.
 Two-electron integral symmetry not used.
 Keep R1 and R2 ints in memory in canonical form, NReq=1088375.
 IVT=        9261 IEndB=        9261 NGot=   524288000 MDV=   524062050
 LenX=   524062050 LenY=   524060648
 Requested convergence on RMS density matrix=1.00D-08 within  64 cycles.
 Requested convergence on MAX density matrix=1.00D-06.
 Requested convergence on             energy=1.00D-06.
 No special actions if energy rises.
 FoFCou: FMM=F IPFlag=           0 FMFlag=           0 FMFlg1=           0
         NFxFlg=           0 DoJE=F BraDBF=F KetDBF=F FulRan=T
         wScrn=  0.000000 ICntrl=     600 IOpCl=  0 I1Cent=           0 NGrid=           0
         NMat0=    1 NMatS0=    465 NMatT0=    0 NMatD0=    1 NMtDS0=    0 NMtDT0=    0
 Symmetry not used in FoFCou.

 Cycle   1  Pass 1  IDiag  1:
 E= -459.705307193643    
 DIIS: error= 2.72D-01 at cycle   1 NSaved=   1.
 NSaved= 1 IEnMin= 1 EnMin= -459.705307193643     IErMin= 1 ErrMin= 2.72D-01
 ErrMax= 2.72D-01  0.00D+00 EMaxC= 1.00D-01 BMatC= 4.15D+00 BMatP= 4.15D+00
 IDIUse=3 WtCom= 0.00D+00 WtEn= 1.00D+00
 Coeff-Com:  0.100D+01
 Coeff-En:   0.100D+01
 Coeff:      0.100D+01
 Gap=     0.046 Goal=   None    Shift=    0.000
 Gap=     0.080 Goal=   None    Shift=    0.000
 GapD=    0.046 DampG=0.250 DampE=0.250 DampFc=0.2500 IDamp=-1.
 Damping current iteration by 2.50D-01
 RMSDP=4.61D-02 MaxDP=1.03D+00              OVMax= 6.38D-01

 Cycle   2  Pass 1  IDiag  1:
 E= -459.830814669441     Delta-E=       -0.125507475798 Rises=F Damp=T
 DIIS: error= 1.90D-01 at cycle   2 NSaved=   2.
 NSaved= 2 IEnMin= 2 EnMin= -459.830814669441     IErMin= 2 ErrMin= 1.90D-01
 ErrMax= 1.90D-01  0.00D+00 EMaxC= 1.00D-01 BMatC= 1.90D+00 BMatP= 4.15D+00
 IDIUse=3 WtCom= 0.00D+00 WtEn= 1.00D+00
 Coeff-Com: -0.191D+01 0.291D+01
 Coeff-En:   0.000D+00 0.100D+01
 Coeff:      0.000D+00 0.100D+01
 Gap=     0.472 Goal=   None    Shift=    0.000
 Gap=     0.082 Goal=   None    Shift=    0.000
 RMSDP=3.26D-02 MaxDP=7.73D-01 DE=-1.26D-01 OVMax= 4.41D-02

 Cycle   3  Pass 1  IDiag  1:
 E= -460.054246370945     Delta-E=       -0.223431701504 Rises=F Damp=F
 DIIS: error= 3.71D-02 at cycle   3 NSaved=   3.
 NSaved= 3 IEnMin= 3 EnMin= -460.054246370945     IErMin= 3 ErrMin= 3.71D-02
 ErrMax= 3.71D-02  0.00D+00 EMaxC= 1.00D-01 BMatC= 2.64D-01 BMatP= 1.90D+00
 IDIUse=3 WtCom= 6.29D-01 WtEn= 3.71D-01
 Coeff-Com:  0.164D+01-0.206D+01 0.141D+01
 Coeff-En:   0.000D+00 0.000D+00 0.100D+01
 Coeff:      0.103D+01-0.129D+01 0.126D+01
 Gap=     0.342 Goal=   None    Shift=    0.000
 Gap=     0.092 Goal=   None    Shift=    0.000
 RMSDP=1.08D-02 MaxDP=1.63D-01 DE=-2.23D-01 OVMax= 1.12D-01

 Cycle   4  Pass 1  IDiag  1:
 E= -460.094043276750     Delta-E=       -0.039796905805 Rises=F Damp=F
 DIIS: error= 1.51D-02 at cycle   4 NSaved=   4.
 NSaved= 4 IEnMin= 4 EnMin= -460.094043276750     IErMin= 4 ErrMin= 1.51D-02
 ErrMax= 1.51D-02  0.00D+00 EMaxC= 1.00D-01 BMatC= 4.36D-02 BMatP= 2.64D-01
 IDIUse=3 WtCom= 8.49D-01 WtEn= 1.51D-01
 Coeff-Com: -0.114D+00 0.159D+00 0.239D+00 0.717D+00
 Coeff-En:   0.000D+00 0.000D+00 0.000D+00 0.100D+01
 Coeff:     -0.970D-01 0.135D+00 0.203D+00 0.760D+00
 Gap=     0.397 Goal=   None    Shift=    0.000
 Gap=     0.091 Goal=   None    Shift=    0.000
 RMSDP=3.35D-03 MaxDP=4.89D-02 DE=-3.98D-02 OVMax= 3.66D-02

 Cycle   5  Pass 1  IDiag  1:
 E= -460.101831325485     Delta-E=       -0.007788048736 Rises=F Damp=F
 DIIS: error= 1.79D-03 at cycle   5 NSaved=   5.
 NSaved= 5 IEnMin= 5 EnMin= -460.101831325485     IErMin= 5 ErrMin= 1.79D-03
 ErrMax= 1.79D-03  0.00D+00 EMaxC= 1.00D-01 BMatC= 6.11D-04 BMatP= 4.36D-02
 IDIUse=3 WtCom= 9.82D-01 WtEn= 1.79D-02
 Coeff-Com:  0.663D-02-0.102D-01-0.302D-01 0.391D-01 0.995D+00
 Coeff-En:   0.000D+00 0.000D+00 0.000D+00 0.000D+00 0.100D+01
 Coeff:      0.651D-02-0.100D-01-0.297D-01 0.384D-01 0.995D+00
 Gap=     0.393 Goal=   None    Shift=    0.000
 Gap=     0.091 Goal=   None    Shift=    0.000
 RMSDP=4.07D-04 MaxDP=6.14D-03 DE=-7.79D-03 OVMax= 4.81D-03

 Cycle   6  Pass 1  IDiag  1:
 E= -460.101953739511     Delta-E=       -0.000122414025 Rises=F Damp=F
 DIIS: error= 1.32D-04 at cycle   6 NSaved=   6.
 NSaved= 6 IEnMin= 6 EnMin= -460.101953739511     IErMin= 6 ErrMin= 1.32D-04
 ErrMax= 1.32D-04  0.00D+00 EMaxC= 1.00D-01 BMatC= 2.70D-06 BMatP= 6.11D-04
 IDIUse=3 WtCom= 9.99D-01 WtEn= 1.32D-03
 Coeff-Com:  0.404D-02-0.563D-02-0.901D-02-0.854D-02 0.185D+00 0.834D+00
 Coeff-En:   0.000D+00 0.000D+00 0.000D+00 0.000D+00 0.000D+00 0.100D+01
 Coeff:      0.403D-02-0.562D-02-0.900D-02-0.853D-02 0.185D+00 0.834D+00
 Gap=     0.393 Goal=   None    Shift=    0.000
 Gap=     0.091 Goal=   None    Shift=    0.000
 RMSDP=2.70D-05 MaxDP=3.17D-04 DE=-1.22D-04 OVMax= 4.11D-04

 Cycle   7  Pass 1  IDiag  1:
 E= -460.101954476481     Delta-E=       -0.000000736971 Rises=F Damp=F
 DIIS: error= 4.01D-05 at cycle   7 NSaved=   7.
 NSaved= 7 IEnMin= 7 EnMin= -460.101954476481     IErMin= 7 ErrMin= 4.01D-05
 ErrMax= 4.01D-05  0.00D+00 EMaxC= 1.00D-01 BMatC= 1.62D-07 BMatP= 2.70D-06
 IDIUse=1 WtCom= 1.00D+00 WtEn= 0.00D+00
 Coeff-Com:  0.335D-03-0.351D-03 0.131D-02-0.610D-02-0.642D-01 0.150D+00
 Coeff-Com:  0.919D+00
 Coeff:      0.335D-03-0.351D-03 0.131D-02-0.610D-02-0.642D-01 0.150D+00
 Coeff:      0.919D+00
 Gap=     0.394 Goal=   None    Shift=    0.000
 Gap=     0.091 Goal=   None    Shift=    0.000
 RMSDP=9.15D-06 MaxDP=8.34D-05 DE=-7.37D-07 OVMax= 2.29D-04

 Cycle   8  Pass 1  IDiag  1:
 E= -460.101954538918     Delta-E=       -0.000000062436 Rises=F Damp=F
 DIIS: error= 1.31D-05 at cycle   8 NSaved=   8.
 NSaved= 8 IEnMin= 8 EnMin= -460.101954538918     IErMin= 8 ErrMin= 1.31D-05
 ErrMax= 1.31D-05  0.00D+00 EMaxC= 1.00D-01 BMatC= 1.27D-08 BMatP= 1.62D-07
 IDIUse=1 WtCom= 1.00D+00 WtEn= 0.00D+00
 Coeff-Com: -0.174D-04 0.271D-04 0.380D-03-0.442D-03-0.146D-01-0.232D-01
 Coeff-Com:  0.157D+00 0.881D+00
 Coeff:     -0.174D-04 0.271D-04 0.380D-03-0.442D-03-0.146D-01-0.232D-01
 Coeff:      0.157D+00 0.881D+00
 Gap=     0.393 Goal=   None    Shift=    0.000
 Gap=     0.091 Goal=   None    Shift=    0.000
 RMSDP=1.82D-06 MaxDP=2.33D-05 DE=-6.24D-08 OVMax= 2.44D-05

 Cycle   9  Pass 1  IDiag  1:
 E= -460.101954542702     Delta-E=       -0.000000003785 Rises=F Damp=F
 DIIS: error= 1.98D-06 at cycle   9 NSaved=   9.
 NSaved= 9 IEnMin= 9 EnMin= -460.101954542702     IErMin= 9 ErrMin= 1.98D-06
 ErrMax= 1.98D-06  0.00D+00 EMaxC= 1.00D-01 BMatC= 3.17D-10 BMatP= 1.27D-08
 IDIUse=1 WtCom= 1.00D+00 WtEn= 0.00D+00
 Coeff-Com: -0.144D-04 0.159D-04-0.220D-04 0.243D-03 0.172D-02-0.111D-01
 Coeff-Com: -0.188D-01 0.536D-01 0.974D+00
 Coeff:     -0.144D-04 0.159D-04-0.220D-04 0.243D-03 0.172D-02-0.111D-01
 Coeff:     -0.188D-01 0.536D-01 0.974D+00
 Gap=     0.393 Goal=   None    Shift=    0.000
 Gap=     0.091 Goal=   None    Shift=    0.000
 RMSDP=3.62D-07 MaxDP=4.24D-06 DE=-3.78D-09 OVMax= 8.75D-06

 Cycle  10  Pass 1  IDiag  1:
 E= -460.101954542836     Delta-E=       -0.000000000134 Rises=F Damp=F
 DIIS: error= 8.42D-07 at cycle  10 NSaved=  10.
 NSaved=10 IEnMin=10 EnMin= -460.101954542836     IErMin=10 ErrMin= 8.42D-07
 ErrMax= 8.42D-07  0.00D+00 EMaxC= 1.00D-01 BMatC= 4.07D-11 BMatP= 3.17D-10
 IDIUse=1 WtCom= 1.00D+00 WtEn= 0.00D+00
 Coeff-Com: -0.701D-05 0.968D-05-0.194D-04 0.589D-04 0.106D-02-0.721D-03
 Coeff-Com: -0.113D-01-0.591D-01 0.156D+00 0.914D+00
 Coeff:     -0.701D-05 0.968D-05-0.194D-04 0.589D-04 0.106D-02-0.721D-03
 Coeff:     -0.113D-01-0.591D-01 0.156D+00 0.914D+00
 Gap=     0.393 Goal=   None    Shift=    0.000
 Gap=     0.091 Goal=   None    Shift=    0.000
 RMSDP=1.17D-07 MaxDP=1.28D-06 DE=-1.34D-10 OVMax= 1.67D-06

 Cycle  11  Pass 1  IDiag  1:
 E= -460.101954542850     Delta-E=       -0.000000000014 Rises=F Damp=F
 DIIS: error= 6.29D-08 at cycle  11 NSaved=  11.
 NSaved=11 IEnMin=11 EnMin= -460.101954542850     IErMin=11 ErrMin= 6.29D-08
 ErrMax= 6.29D-08  0.00D+00 EMaxC= 1.00D-01 BMatC= 5.64D-13 BMatP= 4.07D-11
 IDIUse=1 WtCom= 1.00D+00 WtEn= 0.00D+00
 Coeff-Com:  0.160D-07-0.483D-07 0.138D-05-0.114D-04-0.143D-03 0.342D-03
 Coeff-Com:  0.171D-02 0.219D-02-0.468D-01-0.769D-01 0.112D+01
 Coeff:      0.160D-07-0.483D-07 0.138D-05-0.114D-04-0.143D-03 0.342D-03
 Coeff:      0.171D-02 0.219D-02-0.468D-01-0.769D-01 0.112D+01
 Gap=     0.393 Goal=   None    Shift=    0.000
 DSYEVD-2 returned Info=          61 IAlg= 4 N=    30 NDim=    30 NE2=    17468687 trying  DSYEV.
 Gap=     0.091 Goal=   None    Shift=    0.000
 RMSDP=2.39D-08 MaxDP=1.99D-07 DE=-1.38D-11 OVMax= 4.34D-07

 Cycle  12  Pass 1  IDiag  1:
 E= -460.101954542850     Delta-E=       -0.000000000001 Rises=F Damp=F
 DIIS: error= 1.37D-08 at cycle  12 NSaved=  12.
 NSaved=12 IEnMin=12 EnMin= -460.101954542850     IErMin=12 ErrMin= 1.37D-08
 ErrMax= 1.37D-08  0.00D+00 EMaxC= 1.00D-01 BMatC= 1.01D-14 BMatP= 5.64D-13
 IDIUse=1 WtCom= 1.00D+00 WtEn= 0.00D+00
 Coeff-Com:  0.783D-07-0.921D-07 0.237D-06-0.163D-06-0.538D-05-0.835D-05
 Coeff-Com:  0.314D-04 0.428D-03 0.267D-02-0.257D-02-0.116D+00 0.111D+01
 Coeff:      0.783D-07-0.921D-07 0.237D-06-0.163D-06-0.538D-05-0.835D-05
 Coeff:      0.314D-04 0.428D-03 0.267D-02-0.257D-02-0.116D+00 0.111D+01
 Gap=     0.393 Goal=   None    Shift=    0.000
 DSYEVD-2 returned Info=          61 IAlg= 4 N=    30 NDim=    30 NE2=    17468687 trying  DSYEV.
 Gap=     0.091 Goal=   None    Shift=    0.000
 DSYEVD-2 returned Info=          61 IAlg= 4 N=    30 NDim=    30 NE2=    17468687 trying  DSYEV.
 RMSDP=1.03D-08 MaxDP=1.35D-07 DE=-5.68D-13 OVMax= 4.04D-07

 Cycle  13  Pass 1  IDiag  1:
 E= -460.101954542850     Delta-E=        0.000000000000 Rises=F Damp=F
 DIIS: error= 1.39D-08 at cycle  13 NSaved=  13.
 NSaved=13 IEnMin=12 EnMin= -460.101954542850     IErMin=12 ErrMin= 1.37D-08
 ErrMax= 1.39D-08  0.00D+00 EMaxC= 1.00D-01 BMatC= 7.45D-15 BMatP= 1.01D-14
 IDIUse=1 WtCom= 1.00D+00 WtEn= 0.00D+00
 Large coefficients: NSaved= 13 BigCof=    0.00 CofMax=   10.00 Det=-3.05D-16
 Inversion failed.  Reducing to 12 matrices.
 Large coefficients: NSaved= 12 BigCof=    0.00 CofMax=   10.00 Det=-3.13D-16
 Inversion failed.  Reducing to 11 matrices.
 Coeff-Com:  0.219D-06-0.415D-06-0.911D-05 0.295D-05 0.825D-04 0.187D-03
 Coeff-Com: -0.148D-02-0.212D-02 0.387D-01-0.368D+00 0.133D+01
 Coeff:      0.219D-06-0.415D-06-0.911D-05 0.295D-05 0.825D-04 0.187D-03
 Coeff:     -0.148D-02-0.212D-02 0.387D-01-0.368D+00 0.133D+01
 Gap=     0.393 Goal=   None    Shift=    0.000
 Gap=     0.091 Goal=   None    Shift=    0.000
 RMSDP=1.21D-08 MaxDP=1.60D-07 DE= 0.00D+00 OVMax= 4.86D-07

 Cycle  14  Pass 1  IDiag  1:
 E= -460.101954542851     Delta-E=        0.000000000000 Rises=F Damp=F
 DIIS: error= 1.39D-08 at cycle  14 NSaved=  12.
 NSaved=12 IEnMin=12 EnMin= -460.101954542851     IErMin=10 ErrMin= 1.37D-08
 ErrMax= 1.39D-08  0.00D+00 EMaxC= 1.00D-01 BMatC= 7.47D-15 BMatP= 7.45D-15
 IDIUse=1 WtCom= 1.00D+00 WtEn= 0.00D+00
 Coeff-Com:  0.217D-06-0.218D-06-0.711D-05-0.223D-05 0.680D-04 0.485D-05
 Coeff-Com: -0.162D-02 0.923D-03 0.548D-01-0.846D+00 0.707D+01-0.528D+01
 Coeff:      0.217D-06-0.218D-06-0.711D-05-0.223D-05 0.680D-04 0.485D-05
 Coeff:     -0.162D-02 0.923D-03 0.548D-01-0.846D+00 0.707D+01-0.528D+01
 Gap=     0.393 Goal=   None    Shift=    0.000
 Gap=     0.091 Goal=   None    Shift=    0.000
 RMSDP=5.94D-08 MaxDP=7.87D-07 DE=-1.14D-13 OVMax= 2.38D-06

 Cycle  15  Pass 1  IDiag  1:
 E= -460.101954542850     Delta-E=        0.000000000001 Rises=F Damp=F
 DIIS: error= 1.39D-08 at cycle  15 NSaved=  13.
 NSaved=13 IEnMin=12 EnMin= -460.101954542851     IErMin=10 ErrMin= 1.37D-08
 ErrMax= 1.39D-08  0.00D+00 EMaxC= 1.00D-01 BMatC= 7.47D-15 BMatP= 7.45D-15
 IDIUse=1 WtCom= 1.00D+00 WtEn= 0.00D+00
 Large coefficients: NSaved= 13 BigCof=   13.47 CofMax=   10.00 Det=-1.01D-18
 Inversion failed.  Reducing to 12 matrices.
 Large coefficients: NSaved= 12 BigCof=   15.81 CofMax=   10.00 Det=-1.03D-18
 Inversion failed.  Reducing to 11 matrices.
 Large coefficients: NSaved= 11 BigCof=   14.20 CofMax=   10.00 Det=-1.08D-18
 Inversion failed.  Reducing to 10 matrices.
 Large coefficients: NSaved= 10 BigCof=   14.20 CofMax=   10.00 Det=-1.09D-18
 Inversion failed.  Reducing to  9 matrices.
 Large coefficients: NSaved=  9 BigCof=   15.49 CofMax=   10.00 Det=-1.21D-18
 Inversion failed.  Reducing to  8 matrices.
 Large coefficients: NSaved=  8 BigCof=   15.90 CofMax=   10.00 Det=-1.30D-18
 Inversion failed.  Reducing to  7 matrices.
 Coeff-Com:  0.323D-03 0.153D-02-0.137D-01-0.211D+00 0.565D+01 0.296D+01
 Coeff-Com: -0.738D+01
 Coeff:      0.323D-03 0.153D-02-0.137D-01-0.211D+00 0.565D+01 0.296D+01
 Coeff:     -0.738D+01
 Gap=     0.393 Goal=   None    Shift=    0.000
 Gap=     0.091 Goal=   None    Shift=    0.000
 RMSDP=4.44D-07 MaxDP=5.88D-06 DE= 6.82D-13 OVMax= 1.78D-05

 Cycle  16  Pass 1  IDiag  1:
 E= -460.101954542852     Delta-E=       -0.000000000002 Rises=F Damp=F
 DIIS: error= 1.39D-08 at cycle  16 NSaved=   8.
 NSaved= 8 IEnMin= 8 EnMin= -460.101954542852     IErMin= 4 ErrMin= 1.37D-08
 ErrMax= 1.39D-08  0.00D+00 EMaxC= 1.00D-01 BMatC= 7.48D-15 BMatP= 7.45D-15
 IDIUse=1 WtCom= 1.00D+00 WtEn= 0.00D+00
 Coeff-Com: -0.288D-03 0.265D-02 0.154D-01-0.573D+00 0.817D+01-0.129D+01
 Coeff-Com: -0.878D+01 0.346D+01
 Coeff:     -0.288D-03 0.265D-02 0.154D-01-0.573D+00 0.817D+01-0.129D+01
 Coeff:     -0.878D+01 0.346D+01
 Gap=     0.393 Goal=   None    Shift=    0.000
 Gap=     0.091 Goal=   None    Shift=    0.000
 RMSDP=1.39D-06 MaxDP=1.84D-05 DE=-2.27D-12 OVMax= 5.38D-05

 Cycle  17  Pass 1  IDiag  1:
 E= -460.101954542858     Delta-E=       -0.000000000006 Rises=F Damp=F
 DIIS: error= 1.39D-08 at cycle  17 NSaved=   9.
 NSaved= 9 IEnMin= 9 EnMin= -460.101954542858     IErMin= 4 ErrMin= 1.37D-08
 ErrMax= 1.39D-08  0.00D+00 EMaxC= 1.00D-01 BMatC= 7.48D-15 BMatP= 7.45D-15
 IDIUse=1 WtCom= 1.00D+00 WtEn= 0.00D+00
 Coeff-Com:  0.145D-03 0.384D-02 0.897D-02-0.651D+00 0.940D+01-0.844D+00
 Coeff-Com: -0.772D+01 0.495D+01-0.414D+01
 Coeff:      0.145D-03 0.384D-02 0.897D-02-0.651D+00 0.940D+01-0.844D+00
 Coeff:     -0.772D+01 0.495D+01-0.414D+01
 Gap=     0.393 Goal=   None    Shift=    0.000
 Gap=     0.091 Goal=   None    Shift=    0.000
 RMSDP=6.84D-06 MaxDP=9.06D-05 DE=-6.14D-12 OVMax= 3.15D-04

 Cycle  18  Pass 1  IDiag  1:
 E= -460.101954542828     Delta-E=        0.000000000030 Rises=F Damp=F
 DIIS: error= 1.39D-08 at cycle  18 NSaved=  10.
 NSaved=10 IEnMin= 9 EnMin= -460.101954542858     IErMin= 4 ErrMin= 1.37D-08
 ErrMax= 1.39D-08  0.00D+00 EMaxC= 1.00D-01 BMatC= 7.58D-15 BMatP= 7.45D-15
 IDIUse=1 WtCom= 1.00D+00 WtEn= 0.00D+00
 Coeff-Com:  0.168D-03 0.392D-02 0.816D-02-0.642D+00 0.955D+01-0.891D+00
 Coeff-Com: -0.786D+01 0.518D+01-0.459D+01 0.243D+00
 Coeff:      0.168D-03 0.392D-02 0.816D-02-0.642D+00 0.955D+01-0.891D+00
 Coeff:     -0.786D+01 0.518D+01-0.459D+01 0.243D+00
 Gap=     0.393 Goal=   None    Shift=    0.000
 Gap=     0.091 Goal=   None    Shift=    0.000
 RMSDP=1.94D-06 MaxDP=2.57D-05 DE= 3.01D-11 OVMax= 9.31D-05

 Cycle  19  Pass 1  IDiag  1:
 E= -460.101954542820     Delta-E=        0.000000000008 Rises=F Damp=F
 DIIS: error= 1.39D-08 at cycle  19 NSaved=  11.
 NSaved=11 IEnMin= 9 EnMin= -460.101954542858     IErMin= 4 ErrMin= 1.37D-08
 ErrMax= 1.39D-08  0.00D+00 EMaxC= 1.00D-01 BMatC= 7.75D-15 BMatP= 7.45D-15
 IDIUse=1 WtCom= 1.00D+00 WtEn= 0.00D+00
 Large coefficients: NSaved= 11 BigCof=   23.61 CofMax=   10.00 Det=-1.37D-19
 Inversion failed.  Reducing to 10 matrices.
 Large coefficients: NSaved= 10 BigCof=   17.55 CofMax=   10.00 Det=-2.04D-19
 Inversion failed.  Reducing to  9 matrices.
 Large coefficients: NSaved=  9 BigCof=   20.87 CofMax=   10.00 Det=-2.07D-19
 Inversion failed.  Reducing to  8 matrices.
 Large coefficients: NSaved=  8 BigCof=   20.93 CofMax=   10.00 Det=-2.10D-19
 Inversion failed.  Reducing to  7 matrices.
 Large coefficients: NSaved=  7 BigCof=   13.41 CofMax=   10.00 Det=-2.91D-19
 Inversion failed.  Reducing to  6 matrices.
 Large coefficients: NSaved=  6 BigCof=   15.32 CofMax=   10.00 Det=-2.97D-19
 Inversion failed.  Reducing to  5 matrices.
 Large coefficients: NSaved=  5 BigCof=   14.63 CofMax=   10.00 Det=-2.98D-19
 Inversion failed.  Reducing to  4 matrices.
 Large coefficients: NSaved=  4 BigCof=   14.91 CofMax=   10.00 Det=-3.20D-19
 Inversion failed.  Reducing to  3 matrices.
 Coeff-Com: -0.170D+01 0.759D+01-0.489D+01
 Coeff:     -0.170D+01 0.759D+01-0.489D+01
 Gap=     0.393 Goal=   None    Shift=    0.000
 Gap=     0.091 Goal=   None    Shift=    0.000
 RMSDP=1.65D-07 MaxDP=2.19D-06 DE= 8.36D-12 OVMax= 8.15D-06

 Cycle  20  Pass 1  IDiag  1:
 E= -460.101954542819     Delta-E=        0.000000000001 Rises=F Damp=F
 DIIS: error= 1.38D-08 at cycle  20 NSaved=   4.
 NSaved= 4 IEnMin= 1 EnMin= -460.101954542858     IErMin= 4 ErrMin= 1.38D-08
 ErrMax= 1.38D-08  0.00D+00 EMaxC= 1.00D-01 BMatC= 8.50D-15 BMatP= 7.48D-15
 IDIUse=1 WtCom= 1.00D+00 WtEn= 0.00D+00
 Large coefficients: NSaved=  4 BigCof=   16.21 CofMax=   10.00 Det=-2.10D-19
 Inversion failed.  Reducing to  3 matrices.
 Coeff-Com:  0.917D+00 0.143D+00-0.603D-01
 Coeff:      0.917D+00 0.143D+00-0.603D-01
 Gap=     0.393 Goal=   None    Shift=    0.000
 Gap=     0.091 Goal=   None    Shift=    0.000
 RMSDP=8.24D-06 MaxDP=1.09D-04 DE= 6.25D-13 OVMax= 3.49D-04

 Cycle  21  Pass 1  IDiag  1:
 E= -460.101954542856     Delta-E=       -0.000000000036 Rises=F Damp=F
 DIIS: error= 1.39D-08 at cycle  21 NSaved=   4.
 NSaved= 4 IEnMin= 1 EnMin= -460.101954542858     IErMin= 3 ErrMin= 1.38D-08
 ErrMax= 1.39D-08  0.00D+00 EMaxC= 1.00D-01 BMatC= 7.48D-15 BMatP= 7.48D-15
 IDIUse=1 WtCom= 1.00D+00 WtEn= 0.00D+00
 Coeff-Com: -0.142D+01 0.136D+01-0.619D+00 0.168D+01
 Coeff:     -0.142D+01 0.136D+01-0.619D+00 0.168D+01
 Gap=     0.393 Goal=   None    Shift=    0.000
 Gap=     0.091 Goal=   None    Shift=    0.000
 RMSDP=6.84D-06 MaxDP=9.07D-05 DE=-3.65D-11 OVMax= 2.70D-04

 Cycle  22  Pass 1  IDiag  1:
 E= -460.101954542825     Delta-E=        0.000000000031 Rises=F Damp=F
 DIIS: error= 1.39D-08 at cycle  22 NSaved=   5.
 NSaved= 5 IEnMin= 1 EnMin= -460.101954542858     IErMin= 3 ErrMin= 1.38D-08
 ErrMax= 1.39D-08  0.00D+00 EMaxC= 1.00D-01 BMatC= 7.46D-15 BMatP= 7.48D-15
 IDIUse=1 WtCom= 1.00D+00 WtEn= 0.00D+00
 Coeff-Com: -0.501D+01 0.319D+01-0.164D+01 0.812D+00 0.364D+01
 Coeff:     -0.501D+01 0.319D+01-0.164D+01 0.812D+00 0.364D+01
 Gap=     0.393 Goal=   None    Shift=    0.000
 Gap=     0.091 Goal=   None    Shift=    0.000
 RMSDP=3.39D-05 MaxDP=4.49D-04 DE= 3.06D-11 OVMax= 1.69D-03

 Cycle  23  Pass 1  IDiag  1:
 E= -460.101954542677     Delta-E=        0.000000000148 Rises=F Damp=F
 DIIS: error= 6.98D-08 at cycle  23 NSaved=   6.
 NSaved= 6 IEnMin= 1 EnMin= -460.101954542858     IErMin= 3 ErrMin= 1.38D-08
 ErrMax= 6.98D-08  0.00D+00 EMaxC= 1.00D-01 BMatC= 1.97D-13 BMatP= 7.46D-15
 IDIUse=1 WtCom= 1.00D+00 WtEn= 0.00D+00
 Large coefficients: NSaved=  6 BigCof=   16.91 CofMax=   10.00 Det=-9.13D-19
 Inversion failed.  Reducing to  5 matrices.
 Coeff-Com: -0.693D+01 0.512D+01-0.299D+00 0.331D+01-0.199D+00
 Coeff:     -0.693D+01 0.512D+01-0.299D+00 0.331D+01-0.199D+00
 Gap=     0.393 Goal=   None    Shift=    0.000
 Gap=     0.091 Goal=   None    Shift=    0.000
 RMSDP=2.00D-05 MaxDP=2.66D-04 DE= 1.48D-10 OVMax= 9.95D-04

 Cycle  24  Pass 1  IDiag  1:
 E= -460.101954542590     Delta-E=        0.000000000088 Rises=F Damp=F
 DIIS: error= 1.68D-07 at cycle  24 NSaved=   6.
 NSaved= 6 IEnMin= 1 EnMin= -460.101954542858     IErMin= 4 ErrMin= 1.39D-08
 ErrMax= 1.68D-07  0.00D+00 EMaxC= 1.00D-01 BMatC= 1.22D-12 BMatP= 7.46D-15
 IDIUse=1 WtCom= 1.00D+00 WtEn= 0.00D+00
 Large coefficients: NSaved=  6 BigCof=   44.43 CofMax=   10.00 Det=-1.07D-18
 Inversion failed.  Reducing to  5 matrices.
 Large coefficients: NSaved=  5 BigCof=   26.66 CofMax=   10.00 Det=-2.76D-18
 Inversion failed.  Reducing to  4 matrices.
 Large coefficients: NSaved=  4 BigCof=   23.09 CofMax=   10.00 Det=-3.31D-18
 Inversion failed.  Reducing to  3 matrices.
 Coeff-Com: -0.355D+01 0.751D+01-0.297D+01
 Coeff:     -0.355D+01 0.751D+01-0.297D+01
 Gap=     0.393 Goal=   None    Shift=    0.000
 Gap=     0.091 Goal=   None    Shift=    0.000
 RMSDP=6.77D-05 MaxDP=9.02D-04 DE= 8.77D-11 OVMax= 3.37D-03

 Cycle  25  Pass 1  IDiag  1:
 E= -460.101954542291     Delta-E=        0.000000000298 Rises=F Damp=F
 DIIS: error= 6.97D-07 at cycle  25 NSaved=   4.
 NSaved= 4 IEnMin= 1 EnMin= -460.101954542858     IErMin= 1 ErrMin= 1.39D-08
 ErrMax= 6.97D-07  0.00D+00 EMaxC= 1.00D-01 BMatC= 2.18D-11 BMatP= 7.48D-15
 IDIUse=1 WtCom= 1.00D+00 WtEn= 0.00D+00
 Large coefficients: NSaved=  4 BigCof=   16.92 CofMax=   10.00 Det=-3.14D-18
 Inversion failed.  Reducing to  3 matrices.
 Coeff-Com: -0.256D+01 0.467D+01-0.110D+01
 Coeff:     -0.256D+01 0.467D+01-0.110D+01
 Gap=     0.393 Goal=   None    Shift=    0.000
 Gap=     0.091 Goal=   None    Shift=    0.000
 RMSDP=1.52D-05 MaxDP=2.02D-04 DE= 2.98D-10 OVMax= 7.55D-04

 Cycle  26  Pass 1  IDiag  1:
 E= -460.101954542218     Delta-E=        0.000000000073 Rises=F Damp=F
 DIIS: error= 1.00D-06 at cycle  26 NSaved=   4.
 NSaved= 4 IEnMin= 1 EnMin= -460.101954542858     IErMin= 1 ErrMin= 1.39D-08
 ErrMax= 1.00D-06  0.00D+00 EMaxC= 1.00D-01 BMatC= 4.54D-11 BMatP= 7.48D-15
 IDIUse=1 WtCom= 1.00D+00 WtEn= 0.00D+00
 Coeff-Com: -0.107D+01 0.324D+00 0.585D+01-0.410D+01
 Coeff:     -0.107D+01 0.324D+00 0.585D+01-0.410D+01
 Gap=     0.393 Goal=   None    Shift=    0.000
 Gap=     0.091 Goal=   None    Shift=    0.000
 RMSDP=3.83D-05 MaxDP=5.12D-04 DE= 7.30D-11 OVMax= 1.90D-03

 Cycle  27  Pass 1  IDiag  1:
 E= -460.101954542061     Delta-E=        0.000000000158 Rises=F Damp=F
 DIIS: error= 9.37D-07 at cycle  27 NSaved=   5.
 NSaved= 5 IEnMin= 1 EnMin= -460.101954542858     IErMin= 1 ErrMin= 1.39D-08
 ErrMax= 9.37D-07  0.00D+00 EMaxC= 1.00D-01 BMatC= 3.93D-11 BMatP= 7.48D-15
 IDIUse=1 WtCom= 1.00D+00 WtEn= 0.00D+00
 Coeff-Com: -0.525D+00 0.167D+01 0.779D+00 0.713D+00-0.164D+01
 Coeff:     -0.525D+00 0.167D+01 0.779D+00 0.713D+00-0.164D+01
 Gap=     0.394 Goal=   None    Shift=    0.000
 Gap=     0.091 Goal=   None    Shift=    0.000
 RMSDP=1.76D-04 MaxDP=2.34D-03 DE= 1.58D-10 OVMax= 8.76D-03

 Cycle  28  Pass 1  IDiag  1:
 E= -460.101954542814     Delta-E=       -0.000000000753 Rises=F Damp=F
 DIIS: error= 9.51D-07 at cycle  28 NSaved=   6.
 NSaved= 6 IEnMin= 1 EnMin= -460.101954542858     IErMin= 1 ErrMin= 1.39D-08
 ErrMax= 9.51D-07  0.00D+00 EMaxC= 1.00D-01 BMatC= 4.13D-11 BMatP= 7.48D-15
 IDIUse=1 WtCom= 1.00D+00 WtEn= 0.00D+00
 Coeff-Com:  0.783D+00-0.704D+00 0.263D+01-0.184D+01-0.356D+00 0.483D+00
 Coeff:      0.783D+00-0.704D+00 0.263D+01-0.184D+01-0.356D+00 0.483D+00
 Gap=     0.393 Goal=   None    Shift=    0.000
 Gap=     0.091 Goal=   None    Shift=    0.000
 RMSDP=3.70D-05 MaxDP=4.90D-04 DE=-7.53D-10 OVMax= 1.84D-03

 Cycle  29  Pass 1  IDiag  1:
 E= -460.101954542989     Delta-E=       -0.000000000175 Rises=F Damp=F
 DIIS: error= 4.55D-07 at cycle  29 NSaved=   7.
 NSaved= 7 IEnMin= 7 EnMin= -460.101954542989     IErMin= 1 ErrMin= 1.39D-08
 ErrMax= 4.55D-07  0.00D+00 EMaxC= 1.00D-01 BMatC= 9.37D-12 BMatP= 7.48D-15
 IDIUse=1 WtCom= 1.00D+00 WtEn= 0.00D+00
 Coeff-Com: -0.614D+00-0.640D+00 0.284D+01-0.264D+01 0.471D+00-0.764D+00
 Coeff-Com:  0.234D+01
 Coeff:     -0.614D+00-0.640D+00 0.284D+01-0.264D+01 0.471D+00-0.764D+00
 Coeff:      0.234D+01
 Gap=     0.394 Goal=   None    Shift=    0.000
 Gap=     0.091 Goal=   None    Shift=    0.000
 RMSDP=1.27D-05 MaxDP=1.68D-04 DE=-1.75D-10 OVMax= 6.33D-04

 Cycle  30  Pass 1  IDiag  1:
 E= -460.101954543047     Delta-E=       -0.000000000059 Rises=F Damp=F
 DIIS: error= 2.70D-07 at cycle  30 NSaved=   8.
 NSaved= 8 IEnMin= 8 EnMin= -460.101954543047     IErMin= 1 ErrMin= 1.39D-08
 ErrMax= 2.70D-07  0.00D+00 EMaxC= 1.00D-01 BMatC= 3.55D-12 BMatP= 7.48D-15
 IDIUse=1 WtCom= 1.00D+00 WtEn= 0.00D+00
 Coeff-Com: -0.356D+00 0.735D-01 0.106D+01-0.221D+01 0.126D+01-0.195D+01
 Coeff-Com:  0.411D+01-0.995D+00
 Coeff:     -0.356D+00 0.735D-01 0.106D+01-0.221D+01 0.126D+01-0.195D+01
 Coeff:      0.411D+01-0.995D+00
 Gap=     0.393 Goal=   None    Shift=    0.000
 Gap=     0.091 Goal=   None    Shift=    0.000
 RMSDP=1.83D-06 MaxDP=2.43D-05 DE=-5.88D-11 OVMax= 9.09D-05

 Cycle  31  Pass 1  IDiag  1:
 E= -460.101954543033     Delta-E=        0.000000000014 Rises=F Damp=F
 DIIS: error= 6.46D-07 at cycle  31 NSaved=   9.
 NSaved= 9 IEnMin= 8 EnMin= -460.101954543047     IErMin= 1 ErrMin= 1.39D-08
 ErrMax= 6.46D-07  0.00D+00 EMaxC= 1.00D-01 BMatC= 1.98D-11 BMatP= 7.48D-15
 IDIUse=1 WtCom= 1.00D+00 WtEn= 0.00D+00
 Large coefficients: NSaved=  9 BigCof=   23.95 CofMax=   10.00 Det=-6.96D-19
 Inversion failed.  Reducing to  8 matrices.
 Large coefficients: NSaved=  8 BigCof=   18.88 CofMax=   10.00 Det=-8.50D-19
 Inversion failed.  Reducing to  7 matrices.
 Large coefficients: NSaved=  7 BigCof=   14.61 CofMax=   10.00 Det=-9.52D-19
 Inversion failed.  Reducing to  6 matrices.
 Large coefficients: NSaved=  6 BigCof=   16.78 CofMax=   10.00 Det=-9.96D-19
 Inversion failed.  Reducing to  5 matrices.
 Coeff-Com:  0.316D+00-0.245D+01 0.533D+01-0.402D+01 0.182D+01
 Coeff:      0.316D+00-0.245D+01 0.533D+01-0.402D+01 0.182D+01
 Gap=     0.393 Goal=   None    Shift=    0.000
 Gap=     0.091 Goal=   None    Shift=    0.000
 RMSDP=3.90D-05 MaxDP=5.15D-04 DE= 1.43D-11 OVMax= 1.94D-03

 Cycle  32  Pass 1  IDiag  1:
 E= -460.101954543213     Delta-E=       -0.000000000179 Rises=F Damp=F
 DIIS: error= 2.80D-07 at cycle  32 NSaved=   6.
 NSaved= 6 IEnMin= 6 EnMin= -460.101954543213     IErMin= 1 ErrMin= 1.39D-08
 ErrMax= 2.80D-07  0.00D+00 EMaxC= 1.00D-01 BMatC= 3.51D-12 BMatP= 7.48D-15
 IDIUse=1 WtCom= 1.00D+00 WtEn= 0.00D+00
 Coeff-Com:  0.351D+00-0.220D+01 0.420D+01-0.391D+01 0.172D+01 0.836D+00
 Coeff:      0.351D+00-0.220D+01 0.420D+01-0.391D+01 0.172D+01 0.836D+00
 Gap=     0.393 Goal=   None    Shift=    0.000
 Gap=     0.091 Goal=   None    Shift=    0.000
 RMSDP=3.15D-05 MaxDP=4.14D-04 DE=-1.79D-10 OVMax= 1.57D-03

 Cycle  33  Pass 1  IDiag  1:
 E= -460.101954543352     Delta-E=       -0.000000000139 Rises=F Damp=F
 DIIS: error= 3.55D-07 at cycle  33 NSaved=   7.
 NSaved= 7 IEnMin= 7 EnMin= -460.101954543352     IErMin= 1 ErrMin= 1.39D-08
 ErrMax= 3.55D-07  0.00D+00 EMaxC= 1.00D-01 BMatC= 5.71D-12 BMatP= 7.48D-15
 IDIUse=1 WtCom= 1.00D+00 WtEn= 0.00D+00
 Coeff-Com: -0.256D+00-0.369D+01 0.883D+01-0.735D+01 0.352D+01 0.259D+01
 Coeff-Com: -0.264D+01
 Coeff:     -0.256D+00-0.369D+01 0.883D+01-0.735D+01 0.352D+01 0.259D+01
 Coeff:     -0.264D+01
 Gap=     0.393 Goal=   None    Shift=    0.000
 Gap=     0.091 Goal=   None    Shift=    0.000
 RMSDP=7.81D-05 MaxDP=1.03D-03 DE=-1.39D-10 OVMax= 3.89D-03

 Cycle  34  Pass 1  IDiag  1:
 E= -460.101954542995     Delta-E=        0.000000000357 Rises=F Damp=F
 DIIS: error= 7.90D-07 at cycle  34 NSaved=   8.
 NSaved= 8 IEnMin= 7 EnMin= -460.101954543352     IErMin= 1 ErrMin= 1.39D-08
 ErrMax= 7.90D-07  0.00D+00 EMaxC= 1.00D-01 BMatC= 2.86D-11 BMatP= 7.48D-15
 IDIUse=1 WtCom= 1.00D+00 WtEn= 0.00D+00
 Large coefficients: NSaved=  8 BigCof=   11.69 CofMax=   10.00 Det=-1.08D-18
 Inversion failed.  Reducing to  7 matrices.
 Coeff-Com:  0.113D+01 0.149D+00-0.348D+00-0.631D+00-0.720D+00 0.344D+01
 Coeff-Com: -0.202D+01
 Coeff:      0.113D+01 0.149D+00-0.348D+00-0.631D+00-0.720D+00 0.344D+01
 Coeff:     -0.202D+01
 Gap=     0.394 Goal=   None    Shift=    0.000
 Gap=     0.091 Goal=   None    Shift=    0.000
 RMSDP=1.88D-04 MaxDP=2.48D-03 DE= 3.57D-10 OVMax= 9.38D-03

 Cycle  35  Pass 1  IDiag  1:
 E= -460.101954543836     Delta-E=       -0.000000000840 Rises=F Damp=F
 DIIS: error= 6.80D-07 at cycle  35 NSaved=   8.
 NSaved= 8 IEnMin= 8 EnMin= -460.101954543836     IErMin= 1 ErrMin= 1.39D-08
 ErrMax= 6.80D-07  0.00D+00 EMaxC= 1.00D-01 BMatC= 2.16D-11 BMatP= 7.48D-15
 IDIUse=1 WtCom= 1.00D+00 WtEn= 0.00D+00
 Coeff-Com:  0.890D+00 0.158D+01-0.108D+01 0.194D+01 0.199D+01-0.768D+01
 Coeff-Com:  0.112D+01 0.223D+01
 Coeff:      0.890D+00 0.158D+01-0.108D+01 0.194D+01 0.199D+01-0.768D+01
 Coeff:      0.112D+01 0.223D+01
 Gap=     0.394 Goal=   None    Shift=    0.000
 Gap=     0.091 Goal=   None    Shift=    0.000
 RMSDP=3.05D-04 MaxDP=4.03D-03 DE=-8.40D-10 OVMax= 1.52D-02

 Cycle  36  Pass 1  IDiag  1:
 E= -460.101954542473     Delta-E=        0.000000001362 Rises=F Damp=F
 DIIS: error= 1.10D-06 at cycle  36 NSaved=   9.
 NSaved= 9 IEnMin= 8 EnMin= -460.101954543836     IErMin= 1 ErrMin= 1.39D-08
 ErrMax= 1.10D-06  0.00D+00 EMaxC= 1.00D-01 BMatC= 5.63D-11 BMatP= 7.48D-15
 IDIUse=1 WtCom= 1.00D+00 WtEn= 0.00D+00
 Coeff-Com:  0.526D+00 0.706D+00-0.118D+01 0.172D+01 0.122D+01-0.573D+01
 Coeff-Com:  0.188D+01 0.153D+01 0.328D+00
 Coeff:      0.526D+00 0.706D+00-0.118D+01 0.172D+01 0.122D+01-0.573D+01
 Coeff:      0.188D+01 0.153D+01 0.328D+00
 Gap=     0.393 Goal=   None    Shift=    0.000
 Gap=     0.091 Goal=   None    Shift=    0.000
 RMSDP=4.19D-05 MaxDP=5.59D-04 DE= 1.36D-09 OVMax= 2.09D-03

 Cycle  37  Pass 1  IDiag  1:
 E= -460.101954542316     Delta-E=        0.000000000157 Rises=F Damp=F
 DIIS: error= 8.04D-08 at cycle  37 NSaved=  10.
 NSaved=10 IEnMin= 8 EnMin= -460.101954543836     IErMin= 1 ErrMin= 1.39D-08
 ErrMax= 8.04D-08  0.00D+00 EMaxC= 1.00D-01 BMatC= 3.39D-13 BMatP= 7.48D-15
 IDIUse=1 WtCom= 1.00D+00 WtEn= 0.00D+00
 Large coefficients: NSaved= 10 BigCof=   37.23 CofMax=   10.00 Det=-9.99D-19
 Inversion failed.  Reducing to  9 matrices.
 Large coefficients: NSaved=  9 BigCof=   35.23 CofMax=   10.00 Det=-1.04D-18
 Inversion failed.  Reducing to  8 matrices.
 Large coefficients: NSaved=  8 BigCof=   27.14 CofMax=   10.00 Det=-1.88D-18
 Inversion failed.  Reducing to  7 matrices.
 Large coefficients: NSaved=  7 BigCof=   15.72 CofMax=   10.00 Det=-2.37D-18
 Inversion failed.  Reducing to  6 matrices.
 Coeff-Com:  0.259D+01 0.173D+01-0.768D+01 0.293D+01-0.103D+01 0.246D+01
 Coeff:      0.259D+01 0.173D+01-0.768D+01 0.293D+01-0.103D+01 0.246D+01
 Gap=     0.393 Goal=   None    Shift=    0.000
 Gap=     0.091 Goal=   None    Shift=    0.000
 RMSDP=5.24D-05 MaxDP=7.02D-04 DE= 1.57D-10 OVMax= 2.61D-03

 Cycle  38  Pass 1  IDiag  1:
 E= -460.101954541936     Delta-E=        0.000000000379 Rises=F Damp=F
 DIIS: error= 2.99D-06 at cycle  38 NSaved=   7.
 NSaved= 7 IEnMin= 4 EnMin= -460.101954543836     IErMin= 6 ErrMin= 8.04D-08
 ErrMax= 2.99D-06  0.00D+00 EMaxC= 1.00D-01 BMatC= 4.07D-10 BMatP= 3.39D-13
 IDIUse=1 WtCom= 1.00D+00 WtEn= 0.00D+00
 Coeff-Com:  0.263D+01 0.170D+01-0.744D+01 0.277D+01-0.128D+01 0.254D+01
 Coeff-Com:  0.731D-01
 Coeff:      0.263D+01 0.170D+01-0.744D+01 0.277D+01-0.128D+01 0.254D+01
 Coeff:      0.731D-01
 Gap=     0.393 Goal=   None    Shift=    0.000
 Gap=     0.091 Goal=   None    Shift=    0.000
 RMSDP=1.36D-05 MaxDP=1.82D-04 DE= 3.79D-10 OVMax= 6.78D-04

 Cycle  39  Pass 1  IDiag  1:
 E= -460.101954541918     Delta-E=        0.000000000018 Rises=F Damp=F
 DIIS: error= 2.61D-06 at cycle  39 NSaved=   8.
 NSaved= 8 IEnMin= 4 EnMin= -460.101954543836     IErMin= 6 ErrMin= 8.04D-08
 ErrMax= 2.61D-06  0.00D+00 EMaxC= 1.00D-01 BMatC= 3.08D-10 BMatP= 3.39D-13
 IDIUse=1 WtCom= 1.00D+00 WtEn= 0.00D+00
 Large coefficients: NSaved=  8 BigCof=   53.69 CofMax=   10.00 Det=-9.98D-20
 Inversion failed.  Reducing to  7 matrices.
 Coeff-Com:  0.271D+01 0.149D+01-0.541D+01 0.169D+01 0.209D-01-0.613D+01
 Coeff-Com:  0.662D+01
 Coeff:      0.271D+01 0.149D+01-0.541D+01 0.169D+01 0.209D-01-0.613D+01
 Coeff:      0.662D+01
 Gap=     0.393 Goal=   None    Shift=    0.000
 Gap=     0.091 Goal=   None    Shift=    0.000
 RMSDP=2.13D-05 MaxDP=2.85D-04 DE= 1.80D-11 OVMax= 1.06D-03

 Cycle  40  Pass 1  IDiag  1:
 E= -460.101954542030     Delta-E=       -0.000000000112 Rises=F Damp=F
 DIIS: error= 2.34D-06 at cycle  40 NSaved=   8.
 NSaved= 8 IEnMin= 4 EnMin= -460.101954543836     IErMin= 1 ErrMin= 2.70D-07
 ErrMax= 2.34D-06  0.00D+00 EMaxC= 1.00D-01 BMatC= 2.49D-10 BMatP= 3.51D-12
 IDIUse=1 WtCom= 1.00D+00 WtEn= 0.00D+00
 Coeff-Com:  0.240D+01 0.133D+01-0.490D+01 0.156D+01 0.765D-01-0.611D+01
 Coeff-Com:  0.634D+01 0.308D+00
 Coeff:      0.240D+01 0.133D+01-0.490D+01 0.156D+01 0.765D-01-0.611D+01
 Coeff:      0.634D+01 0.308D+00
 Gap=     0.393 Goal=   None    Shift=    0.000
 Gap=     0.091 Goal=   None    Shift=    0.000
 RMSDP=8.38D-06 MaxDP=1.12D-04 DE=-1.12D-10 OVMax= 4.17D-04

 Cycle  41  Pass 1  IDiag  1:
 E= -460.101954542014     Delta-E=        0.000000000016 Rises=F Damp=F
 DIIS: error= 2.10D-06 at cycle  41 NSaved=   9.
 NSaved= 9 IEnMin= 4 EnMin= -460.101954543836     IErMin= 1 ErrMin= 2.70D-07
 ErrMax= 2.10D-06  0.00D+00 EMaxC= 1.00D-01 BMatC= 2.00D-10 BMatP= 3.51D-12
 IDIUse=1 WtCom= 1.00D+00 WtEn= 0.00D+00
 Large coefficients: NSaved=  9 BigCof=   90.20 CofMax=   10.00 Det=-1.14D-19
 Inversion failed.  Reducing to  8 matrices.
 Large coefficients: NSaved=  8 BigCof=   13.07 CofMax=   10.00 Det=-2.43D-18
 Inversion failed.  Reducing to  7 matrices.
 Large coefficients: NSaved=  7 BigCof=   13.56 CofMax=   10.00 Det=-2.83D-18
 Inversion failed.  Reducing to  6 matrices.
 Large coefficients: NSaved=  6 BigCof=   12.35 CofMax=   10.00 Det=-3.22D-18
 Inversion failed.  Reducing to  5 matrices.
 Coeff-Com: -0.594D-01 0.725D+00-0.435D+00-0.694D+01 0.771D+01
 Coeff:     -0.594D-01 0.725D+00-0.435D+00-0.694D+01 0.771D+01
 Gap=     0.393 Goal=   None    Shift=    0.000
 Gap=     0.091 Goal=   None    Shift=    0.000
 RMSDP=3.74D-05 MaxDP=5.01D-04 DE= 1.62D-11 OVMax= 1.86D-03

 Cycle  42  Pass 1  IDiag  1:
 E= -460.101954541931     Delta-E=        0.000000000083 Rises=F Damp=F
 DIIS: error= 6.84D-07 at cycle  42 NSaved=   6.
 NSaved= 6 IEnMin= 3 EnMin= -460.101954543836     IErMin= 1 ErrMin= 2.80D-07
 ErrMax= 6.84D-07  0.00D+00 EMaxC= 1.00D-01 BMatC= 2.08D-11 BMatP= 3.51D-12
 IDIUse=1 WtCom= 1.00D+00 WtEn= 0.00D+00
 Coeff-Com:  0.193D+00-0.193D+01 0.113D+01 0.803D+00-0.428D+00 0.123D+01
 Coeff:      0.193D+00-0.193D+01 0.113D+01 0.803D+00-0.428D+00 0.123D+01
 Gap=     0.394 Goal=   None    Shift=    0.000
 Gap=     0.091 Goal=   None    Shift=    0.000
 RMSDP=5.97D-05 MaxDP=8.04D-04 DE= 8.31D-11 OVMax= 2.97D-03

 Cycle  43  Pass 1  IDiag  1:
 E= -460.101954541678     Delta-E=        0.000000000253 Rises=F Damp=F
 DIIS: error= 1.12D-06 at cycle  43 NSaved=   7.
 NSaved= 7 IEnMin= 3 EnMin= -460.101954543836     IErMin= 1 ErrMin= 2.80D-07
 ErrMax= 1.12D-06  0.00D+00 EMaxC= 1.00D-01 BMatC= 5.63D-11 BMatP= 3.51D-12
 IDIUse=1 WtCom= 1.00D+00 WtEn= 0.00D+00
 Large coefficients: NSaved=  7 BigCof=   30.80 CofMax=   10.00 Det=-3.01D-19
 Inversion failed.  Reducing to  6 matrices.
 Coeff-Com:  0.112D+00-0.135D+01 0.718D+00 0.132D+00 0.101D+01 0.379D+00
 Coeff:      0.112D+00-0.135D+01 0.718D+00 0.132D+00 0.101D+01 0.379D+00
 Gap=     0.393 Goal=   None    Shift=    0.000
 Gap=     0.091 Goal=   None    Shift=    0.000
 RMSDP=5.23D-05 MaxDP=7.04D-04 DE= 2.53D-10 OVMax= 2.60D-03

 Cycle  44  Pass 1  IDiag  1:
 E= -460.101954541495     Delta-E=        0.000000000183 Rises=F Damp=F
 DIIS: error= 4.03D-07 at cycle  44 NSaved=   7.
 NSaved= 7 IEnMin= 3 EnMin= -460.101954543836     IErMin= 1 ErrMin= 2.80D-07
 ErrMax= 4.03D-07  0.00D+00 EMaxC= 1.00D-01 BMatC= 7.09D-12 BMatP= 3.51D-12
 IDIUse=1 WtCom= 1.00D+00 WtEn= 0.00D+00
 Coeff-Com:  0.431D+00-0.743D+01 0.561D+01 0.287D+01-0.176D+01-0.402D+01
 Coeff-Com:  0.530D+01
 Coeff:      0.431D+00-0.743D+01 0.561D+01 0.287D+01-0.176D+01-0.402D+01
 Coeff:      0.530D+01
 Gap=     0.394 Goal=   None    Shift=    0.000
 Gap=     0.091 Goal=   None    Shift=    0.000
 RMSDP=4.14D-05 MaxDP=5.51D-04 DE= 1.83D-10 OVMax= 2.06D-03

 Cycle  45  Pass 1  IDiag  1:
 E= -460.101954536454     Delta-E=        0.000000005041 Rises=F Damp=F
 DIIS: error= 1.73D-05 at cycle  45 NSaved=   8.
 NSaved= 8 IEnMin= 3 EnMin= -460.101954543836     IErMin= 1 ErrMin= 2.80D-07
 ErrMax= 1.73D-05  0.00D+00 EMaxC= 1.00D-01 BMatC= 1.33D-08 BMatP= 3.51D-12
 IDIUse=1 WtCom= 1.00D+00 WtEn= 0.00D+00
 Coeff-Com:  0.426D+00-0.734D+01 0.556D+01 0.285D+01-0.176D+01-0.415D+01
 Coeff-Com:  0.540D+01 0.133D-01
 Coeff:      0.426D+00-0.734D+01 0.556D+01 0.285D+01-0.176D+01-0.415D+01
 Coeff:      0.540D+01 0.133D-01
 Gap=     0.393 Goal=   None    Shift=    0.000
 Gap=     0.091 Goal=   None    Shift=    0.000
 RMSDP=1.87D-07 MaxDP=2.51D-06 DE= 5.04D-09 OVMax= 9.29D-06

 Cycle  46  Pass 1  IDiag  1:
 E= -460.101954536440     Delta-E=        0.000000000014 Rises=F Damp=F
 DIIS: error= 1.73D-05 at cycle  46 NSaved=   9.
 NSaved= 9 IEnMin= 3 EnMin= -460.101954543836     IErMin= 1 ErrMin= 2.80D-07
 ErrMax= 1.73D-05  0.00D+00 EMaxC= 1.00D-01 BMatC= 1.33D-08 BMatP= 3.51D-12
 IDIUse=1 WtCom= 1.00D+00 WtEn= 0.00D+00
 Large coefficients: NSaved=  9 BigCof=  123.55 CofMax=   10.00 Det=-1.17D-19
 Inversion failed.  Reducing to  8 matrices.
 Large coefficients: NSaved=  8 BigCof=   33.01 CofMax=   10.00 Det=-2.75D-19
 Inversion failed.  Reducing to  7 matrices.
 Coeff-Com:  0.536D+00-0.643D+01 0.426D+01 0.222D+01 0.643D+00 0.312D+01
 Coeff-Com: -0.335D+01
 Coeff:      0.536D+00-0.643D+01 0.426D+01 0.222D+01 0.643D+00 0.312D+01
 Coeff:     -0.335D+01
 Gap=     0.393 Goal=   None    Shift=    0.000
 Gap=     0.091 Goal=   None    Shift=    0.000
 RMSDP=1.03D-04 MaxDP=1.39D-03 DE= 1.44D-11 OVMax= 5.15D-03

 Cycle  47  Pass 1  IDiag  1:
 E= -460.101954540898     Delta-E=       -0.000000004459 Rises=F Damp=F
 DIIS: error= 8.15D-06 at cycle  47 NSaved=   8.
 NSaved= 8 IEnMin= 3 EnMin= -460.101954543836     IErMin= 1 ErrMin= 2.80D-07
 ErrMax= 8.15D-06  0.00D+00 EMaxC= 1.00D-01 BMatC= 3.01D-09 BMatP= 3.51D-12
 IDIUse=1 WtCom= 1.00D+00 WtEn= 0.00D+00
 Large coefficients: NSaved=  8 BigCof=   37.22 CofMax=   10.00 Det=-2.52D-19
 Inversion failed.  Reducing to  7 matrices.
 Large coefficients: NSaved=  7 BigCof=   10.62 CofMax=   10.00 Det=-6.08D-18
 Inversion failed.  Reducing to  6 matrices.
 Coeff-Com:  0.550D+00-0.693D+01 0.486D+01 0.291D+01-0.287D+00-0.104D+00
 Coeff:      0.550D+00-0.693D+01 0.486D+01 0.291D+01-0.287D+00-0.104D+00
 Gap=     0.393 Goal=   None    Shift=    0.000
 Gap=     0.091 Goal=   None    Shift=    0.000
 RMSDP=1.38D-04 MaxDP=1.84D-03 DE=-4.46D-09 OVMax= 6.87D-03

 Cycle  48  Pass 1  IDiag  1:
 E= -460.101954540952     Delta-E=       -0.000000000054 Rises=F Damp=F
 DIIS: error= 9.74D-06 at cycle  48 NSaved=   7.
 NSaved= 7 IEnMin= 3 EnMin= -460.101954543836     IErMin= 1 ErrMin= 2.80D-07
 ErrMax= 9.74D-06  0.00D+00 EMaxC= 1.00D-01 BMatC= 4.37D-09 BMatP= 3.51D-12
 IDIUse=1 WtCom= 1.00D+00 WtEn= 0.00D+00
 Coeff-Com:  0.539D+00-0.825D+01 0.566D+01 0.297D+01-0.652D+00 0.116D+01
 Coeff-Com: -0.414D+00
 Coeff:      0.539D+00-0.825D+01 0.566D+01 0.297D+01-0.652D+00 0.116D+01
 Coeff:     -0.414D+00
 Gap=     0.393 Goal=   None    Shift=    0.000
 Gap=     0.091 Goal=   None    Shift=    0.000
 RMSDP=8.92D-05 MaxDP=1.19D-03 DE=-5.37D-11 OVMax= 4.44D-03

 Cycle  49  Pass 1  IDiag  1:
 E= -460.101954540235     Delta-E=        0.000000000717 Rises=F Damp=F
 DIIS: error= 1.07D-05 at cycle  49 NSaved=   8.
 NSaved= 8 IEnMin= 3 EnMin= -460.101954543836     IErMin= 1 ErrMin= 2.80D-07
 ErrMax= 1.07D-05  0.00D+00 EMaxC= 1.00D-01 BMatC= 5.23D-09 BMatP= 3.51D-12
 IDIUse=1 WtCom= 1.00D+00 WtEn= 0.00D+00
 Large coefficients: NSaved=  8 BigCof=   13.28 CofMax=   10.00 Det=-4.91D-18
 Inversion failed.  Reducing to  7 matrices.
 Coeff-Com:  0.122D+00-0.368D+01 0.256D+01 0.223D+01 0.583D+00 0.748D+00
 Coeff-Com: -0.157D+01
 Coeff:      0.122D+00-0.368D+01 0.256D+01 0.223D+01 0.583D+00 0.748D+00
 Coeff:     -0.157D+01
 Gap=     0.393 Goal=   None    Shift=    0.000
 Gap=     0.091 Goal=   None    Shift=    0.000
 RMSDP=6.97D-06 MaxDP=9.06D-05 DE= 7.17D-10 OVMax= 3.45D-04

 Cycle  50  Pass 1  IDiag  1:
 E= -460.101954541712     Delta-E=       -0.000000001477 Rises=F Damp=F
 DIIS: error= 5.49D-06 at cycle  50 NSaved=   8.
 NSaved= 8 IEnMin= 3 EnMin= -460.101954543836     IErMin= 1 ErrMin= 2.80D-07
 ErrMax= 5.49D-06  0.00D+00 EMaxC= 1.00D-01 BMatC= 1.37D-09 BMatP= 3.51D-12
 IDIUse=1 WtCom= 1.00D+00 WtEn= 0.00D+00
 Coeff-Com:  0.442D+00-0.674D+01 0.462D+01 0.520D+01 0.168D+01 0.165D+01
 Coeff-Com: -0.172D+01-0.414D+01
 Coeff:      0.442D+00-0.674D+01 0.462D+01 0.520D+01 0.168D+01 0.165D+01
 Coeff:     -0.172D+01-0.414D+01
 Gap=     0.393 Goal=   None    Shift=    0.000
 Gap=     0.091 Goal=   None    Shift=    0.000
 RMSDP=3.13D-06 MaxDP=4.24D-05 DE=-1.48D-09 OVMax= 1.52D-04

 Cycle  51  Pass 1  IDiag  1:
 E= -460.101954540351     Delta-E=        0.000000001361 Rises=F Damp=F
 DIIS: error= 1.03D-05 at cycle  51 NSaved=   9.
 NSaved= 9 IEnMin= 3 EnMin= -460.101954543836     IErMin= 1 ErrMin= 2.80D-07
 ErrMax= 1.03D-05  0.00D+00 EMaxC= 1.00D-01 BMatC= 4.82D-09 BMatP= 3.51D-12
 IDIUse=1 WtCom= 1.00D+00 WtEn= 0.00D+00
 Large coefficients: NSaved=  9 BigCof=   19.31 CofMax=   10.00 Det=-1.45D-18
 Inversion failed.  Reducing to  8 matrices.
 Large coefficients: NSaved=  8 BigCof=   11.60 CofMax=   10.00 Det=-4.58D-18
 Inversion failed.  Reducing to  7 matrices.
 Large coefficients: NSaved=  7 BigCof=   11.59 CofMax=   10.00 Det=-4.58D-18
 Inversion failed.  Reducing to  6 matrices.
 Coeff-Com:  0.336D+00-0.253D+01 0.126D+01 0.471D+00 0.334D+01-0.188D+01
 Coeff:      0.336D+00-0.253D+01 0.126D+01 0.471D+00 0.334D+01-0.188D+01
 Gap=     0.393 Goal=   None    Shift=    0.000
 Gap=     0.091 Goal=   None    Shift=    0.000
 RMSDP=1.11D-04 MaxDP=1.49D-03 DE= 1.36D-09 OVMax= 5.54D-03

 Cycle  52  Pass 1  IDiag  1:
 E= -460.101954541777     Delta-E=       -0.000000001425 Rises=F Damp=F
 DIIS: error= 3.96D-07 at cycle  52 NSaved=   7.
 NSaved= 7 IEnMin= 3 EnMin= -460.101954543836     IErMin= 1 ErrMin= 2.80D-07
 ErrMax= 3.96D-07  0.00D+00 EMaxC= 1.00D-01 BMatC= 7.20D-12 BMatP= 3.51D-12
 IDIUse=1 WtCom= 1.00D+00 WtEn= 0.00D+00
 Coeff-Com:  0.109D+01-0.679D+01 0.373D+01-0.428D+01 0.916D+01-0.394D+01
 Coeff-Com:  0.204D+01
 Coeff:      0.109D+01-0.679D+01 0.373D+01-0.428D+01 0.916D+01-0.394D+01
 Coeff:      0.204D+01
 Gap=     0.393 Goal=   None    Shift=    0.000
 Gap=     0.091 Goal=   None    Shift=    0.000
 RMSDP=1.02D-04 MaxDP=1.38D-03 DE=-1.43D-09 OVMax= 5.10D-03

 Cycle  53  Pass 1  IDiag  1:
 E= -460.101954541091     Delta-E=        0.000000000685 Rises=F Damp=F
 DIIS: error= 4.11D-06 at cycle  53 NSaved=   8.
 NSaved= 8 IEnMin= 3 EnMin= -460.101954543836     IErMin= 1 ErrMin= 2.80D-07
 ErrMax= 4.11D-06  0.00D+00 EMaxC= 1.00D-01 BMatC= 7.50D-10 BMatP= 3.51D-12
 IDIUse=1 WtCom= 1.00D+00 WtEn= 0.00D+00
 Large coefficients: NSaved=  8 BigCof=   15.10 CofMax=   10.00 Det=-4.01D-18
 Inversion failed.  Reducing to  7 matrices.
 Coeff-Com:  0.416D+00-0.340D+01 0.232D+01 0.369D+00 0.891D-01 0.157D+01
 Coeff-Com: -0.362D+00
 Coeff:      0.416D+00-0.340D+01 0.232D+01 0.369D+00 0.891D-01 0.157D+01
 Coeff:     -0.362D+00
 Gap=     0.393 Goal=   None    Shift=    0.000
 Gap=     0.091 Goal=   None    Shift=    0.000
 RMSDP=1.80D-04 MaxDP=2.42D-03 DE= 6.85D-10 OVMax= 8.93D-03

 Cycle  54  Pass 1  IDiag  1:
 E= -460.101954541623     Delta-E=       -0.000000000531 Rises=F Damp=F
 DIIS: error= 5.15D-06 at cycle  54 NSaved=   8.
 NSaved= 8 IEnMin= 3 EnMin= -460.101954543836     IErMin= 1 ErrMin= 2.80D-07
 ErrMax= 5.15D-06  0.00D+00 EMaxC= 1.00D-01 BMatC= 1.20D-09 BMatP= 3.51D-12
 IDIUse=1 WtCom= 1.00D+00 WtEn= 0.00D+00
 Large coefficients: NSaved=  8 BigCof=   21.34 CofMax=   10.00 Det=-3.35D-18
 Inversion failed.  Reducing to  7 matrices.
 Coeff-Com:  0.102D+01-0.861D+01 0.629D+01-0.442D+01 0.512D+01-0.151D+01
 Coeff-Com:  0.311D+01
 Coeff:      0.102D+01-0.861D+01 0.629D+01-0.442D+01 0.512D+01-0.151D+01
 Coeff:      0.311D+01
 Gap=     0.393 Goal=   None    Shift=    0.000
 Gap=     0.091 Goal=   None    Shift=    0.000
 RMSDP=1.25D-04 MaxDP=1.66D-03 DE=-5.31D-10 OVMax= 6.22D-03

 Cycle  55  Pass 1  IDiag  1:
 E= -460.101954538766     Delta-E=        0.000000002857 Rises=F Damp=F
 DIIS: error= 1.46D-05 at cycle  55 NSaved=   8.
 NSaved= 8 IEnMin= 3 EnMin= -460.101954543836     IErMin= 1 ErrMin= 2.80D-07
 ErrMax= 1.46D-05  0.00D+00 EMaxC= 1.00D-01 BMatC= 9.87D-09 BMatP= 3.51D-12
 IDIUse=1 WtCom= 1.00D+00 WtEn= 0.00D+00
 Large coefficients: NSaved=  8 BigCof=   19.45 CofMax=   10.00 Det=-3.33D-18
 Inversion failed.  Reducing to  7 matrices.
 Coeff-Com:  0.471D+00-0.303D+01 0.230D+01 0.993D-01 0.153D+01-0.542D+00
 Coeff-Com:  0.176D+00
 Coeff:      0.471D+00-0.303D+01 0.230D+01 0.993D-01 0.153D+01-0.542D+00
 Coeff:      0.176D+00
 Gap=     0.393 Goal=   None    Shift=    0.000
 Gap=     0.091 Goal=   None    Shift=    0.000
 RMSDP=5.86D-05 MaxDP=7.77D-04 DE= 2.86D-09 OVMax= 2.91D-03

 Cycle  56  Pass 1  IDiag  1:
 E= -460.101954541492     Delta-E=       -0.000000002726 Rises=F Damp=F
 DIIS: error= 7.02D-06 at cycle  56 NSaved=   8.
 NSaved= 8 IEnMin= 3 EnMin= -460.101954543836     IErMin= 1 ErrMin= 2.80D-07
 ErrMax= 7.02D-06  0.00D+00 EMaxC= 1.00D-01 BMatC= 2.25D-09 BMatP= 3.51D-12
 IDIUse=1 WtCom= 1.00D+00 WtEn= 0.00D+00
 Coeff-Com:  0.356D+00-0.356D+01 0.275D+01-0.288D+01 0.337D+01-0.136D+01
 Coeff-Com: -0.423D+00 0.275D+01
 Coeff:      0.356D+00-0.356D+01 0.275D+01-0.288D+01 0.337D+01-0.136D+01
 Coeff:     -0.423D+00 0.275D+01
 Gap=     0.393 Goal=   None    Shift=    0.000
 Gap=     0.091 Goal=   None    Shift=    0.000
 RMSDP=6.30D-05 MaxDP=8.43D-04 DE=-2.73D-09 OVMax= 3.14D-03

 Cycle  57  Pass 1  IDiag  1:
 E= -460.101954540739     Delta-E=        0.000000000753 Rises=F Damp=F
 DIIS: error= 8.79D-06 at cycle  57 NSaved=   9.
 NSaved= 9 IEnMin= 3 EnMin= -460.101954543836     IErMin= 1 ErrMin= 2.80D-07
 ErrMax= 8.79D-06  0.00D+00 EMaxC= 1.00D-01 BMatC= 3.50D-09 BMatP= 3.51D-12
 IDIUse=1 WtCom= 1.00D+00 WtEn= 0.00D+00
 Large coefficients: NSaved=  9 BigCof=   18.48 CofMax=   10.00 Det=-3.00D-18
 Inversion failed.  Reducing to  8 matrices.
 Coeff-Com:  0.543D+00-0.412D+01 0.312D+01-0.995D+00 0.225D+01-0.621D+00
 Coeff-Com:  0.106D+01-0.227D+00
 Coeff:      0.543D+00-0.412D+01 0.312D+01-0.995D+00 0.225D+01-0.621D+00
 Coeff:      0.106D+01-0.227D+00
 Gap=     0.393 Goal=   None    Shift=    0.000
 Gap=     0.091 Goal=   None    Shift=    0.000
 RMSDP=7.67D-05 MaxDP=1.02D-03 DE= 7.53D-10 OVMax= 3.82D-03

 Cycle  58  Pass 1  IDiag  1:
 E= -460.101954540900     Delta-E=       -0.000000000161 Rises=F Damp=F
 DIIS: error= 9.25D-06 at cycle  58 NSaved=   9.
 NSaved= 9 IEnMin= 3 EnMin= -460.101954543836     IErMin= 1 ErrMin= 2.80D-07
 ErrMax= 9.25D-06  0.00D+00 EMaxC= 1.00D-01 BMatC= 3.91D-09 BMatP= 3.51D-12
 IDIUse=1 WtCom= 1.00D+00 WtEn= 0.00D+00
 Large coefficients: NSaved=  9 BigCof=   33.79 CofMax=   10.00 Det=-4.94D-19
 Inversion failed.  Reducing to  8 matrices.
 Coeff-Com:  0.516D+00-0.362D+01 0.278D+01-0.651D+00 0.208D+01-0.564D+00
 Coeff-Com: -0.122D+00 0.586D+00
 Coeff:      0.516D+00-0.362D+01 0.278D+01-0.651D+00 0.208D+01-0.564D+00
 Coeff:     -0.122D+00 0.586D+00
 Gap=     0.393 Goal=   None    Shift=    0.000
 Gap=     0.091 Goal=   None    Shift=    0.000
 RMSDP=5.38D-06 MaxDP=7.14D-05 DE=-1.61D-10 OVMax= 2.68D-04

 Cycle  59  Pass 1  IDiag  1:
 E= -460.101954541100     Delta-E=       -0.000000000200 Rises=F Damp=F
 DIIS: error= 8.55D-06 at cycle  59 NSaved=   9.
 NSaved= 9 IEnMin= 3 EnMin= -460.101954543836     IErMin= 1 ErrMin= 2.80D-07
 ErrMax= 8.55D-06  0.00D+00 EMaxC= 1.00D-01 BMatC= 3.35D-09 BMatP= 3.51D-12
 IDIUse=1 WtCom= 1.00D+00 WtEn= 0.00D+00
 Large coefficients: NSaved=  9 BigCof=   71.40 CofMax=   10.00 Det=-2.74D-19
 Inversion failed.  Reducing to  8 matrices.
 Large coefficients: NSaved=  8 BigCof=   12.05 CofMax=   10.00 Det=-1.43D-18
 Inversion failed.  Reducing to  7 matrices.
 Coeff-Com:  0.315D+00-0.166D+01 0.150D+01-0.217D+01 0.240D+01-0.876D+00
 Coeff-Com:  0.149D+01
 Coeff:      0.315D+00-0.166D+01 0.150D+01-0.217D+01 0.240D+01-0.876D+00
 Coeff:      0.149D+01
 Gap=     0.393 Goal=   None    Shift=    0.000
 Gap=     0.091 Goal=   None    Shift=    0.000
 RMSDP=3.59D-05 MaxDP=4.78D-04 DE=-2.00D-10 OVMax= 1.79D-03

 Cycle  60  Pass 1  IDiag  1:
 E= -460.101954541536     Delta-E=       -0.000000000436 Rises=F Damp=F
 DIIS: error= 6.36D-06 at cycle  60 NSaved=   8.
 NSaved= 8 IEnMin= 3 EnMin= -460.101954543836     IErMin= 1 ErrMin= 2.80D-07
 ErrMax= 6.36D-06  0.00D+00 EMaxC= 1.00D-01 BMatC= 1.84D-09 BMatP= 3.51D-12
 IDIUse=1 WtCom= 1.00D+00 WtEn= 0.00D+00
 Large coefficients: NSaved=  8 BigCof=   19.44 CofMax=   10.00 Det=-3.26D-19
 Inversion failed.  Reducing to  7 matrices.
 Coeff-Com:  0.428D+00-0.234D+01 0.195D+01-0.147D+01 0.218D+01 0.723D+00
 Coeff-Com: -0.471D+00
 Coeff:      0.428D+00-0.234D+01 0.195D+01-0.147D+01 0.218D+01 0.723D+00
 Coeff:     -0.471D+00
 Gap=     0.393 Goal=   None    Shift=    0.000
 Gap=     0.091 Goal=   None    Shift=    0.000
 RMSDP=3.08D-05 MaxDP=4.11D-04 DE=-4.36D-10 OVMax= 1.53D-03

 Cycle  61  Pass 1  IDiag  1:
 E= -460.101954541458     Delta-E=        0.000000000078 Rises=F Damp=F
 DIIS: error= 7.21D-06 at cycle  61 NSaved=   8.
 NSaved= 8 IEnMin= 3 EnMin= -460.101954543836     IErMin= 1 ErrMin= 2.80D-07
 ErrMax= 7.21D-06  0.00D+00 EMaxC= 1.00D-01 BMatC= 2.37D-09 BMatP= 3.51D-12
 IDIUse=1 WtCom= 1.00D+00 WtEn= 0.00D+00
 Coeff-Com:  0.434D+00-0.266D+01 0.214D+01-0.141D+01 0.212D+01-0.237D+00
 Coeff-Com: -0.802D+00 0.142D+01
 Coeff:      0.434D+00-0.266D+01 0.214D+01-0.141D+01 0.212D+01-0.237D+00
 Coeff:     -0.802D+00 0.142D+01
 Gap=     0.393 Goal=   None    Shift=    0.000
 Gap=     0.091 Goal=   None    Shift=    0.000
 RMSDP=3.95D-07 MaxDP=5.19D-06 DE= 7.78D-11 OVMax= 1.96D-05

 Cycle  62  Pass 1  IDiag  1:
 E= -460.101954541419     Delta-E=        0.000000000040 Rises=F Damp=F
 DIIS: error= 7.37D-06 at cycle  62 NSaved=   9.
 NSaved= 9 IEnMin= 3 EnMin= -460.101954543836     IErMin= 1 ErrMin= 2.80D-07
 ErrMax= 7.37D-06  0.00D+00 EMaxC= 1.00D-01 BMatC= 2.48D-09 BMatP= 3.51D-12
 IDIUse=1 WtCom= 1.00D+00 WtEn= 0.00D+00
 Large coefficients: NSaved=  9 BigCof=   91.61 CofMax=   10.00 Det=-9.98D-19
 Inversion failed.  Reducing to  8 matrices.
 Coeff-Com:  0.622D+00-0.359D+01 0.278D+01-0.152D+01 0.248D+01-0.114D+01
 Coeff-Com: -0.356D+01 0.492D+01
 Coeff:      0.622D+00-0.359D+01 0.278D+01-0.152D+01 0.248D+01-0.114D+01
 Coeff:     -0.356D+01 0.492D+01
 Gap=     0.393 Goal=   None    Shift=    0.000
 Gap=     0.091 Goal=   None    Shift=    0.000
 RMSDP=1.10D-05 MaxDP=1.46D-04 DE= 3.95D-11 OVMax= 5.46D-04

 Cycle  63  Pass 1  IDiag  1:
 E= -460.101954540935     Delta-E=        0.000000000483 Rises=F Damp=F
 DIIS: error= 9.15D-06 at cycle  63 NSaved=   9.
 NSaved= 9 IEnMin= 3 EnMin= -460.101954543836     IErMin= 1 ErrMin= 2.80D-07
 ErrMax= 9.15D-06  0.00D+00 EMaxC= 1.00D-01 BMatC= 3.83D-09 BMatP= 3.51D-12
 IDIUse=1 WtCom= 1.00D+00 WtEn= 0.00D+00
 Large coefficients: NSaved=  9 BigCof=   46.67 CofMax=   10.00 Det=-5.48D-19
 Inversion failed.  Reducing to  8 matrices.
 Large coefficients: NSaved=  8 BigCof=   11.18 CofMax=   10.00 Det=-4.91D-18
 Inversion failed.  Reducing to  7 matrices.
 Coeff-Com:  0.353D+00-0.210D+01 0.172D+01-0.337D+01 0.310D+01 0.261D+01
 Coeff-Com: -0.131D+01
 Coeff:      0.353D+00-0.210D+01 0.172D+01-0.337D+01 0.310D+01 0.261D+01
 Coeff:     -0.131D+01
 Gap=     0.393 Goal=   None    Shift=    0.000
 Gap=     0.091 Goal=   None    Shift=    0.000
 RMSDP=1.01D-04 MaxDP=1.34D-03 DE= 4.83D-10 OVMax= 5.00D-03

 Cycle  64  Pass 1  IDiag  1:
 E= -460.101954541212     Delta-E=       -0.000000000276 Rises=F Damp=F
 DIIS: error= 6.73D-06 at cycle  64 NSaved=   8.
 NSaved= 8 IEnMin= 3 EnMin= -460.101954543836     IErMin= 1 ErrMin= 2.80D-07
 ErrMax= 6.73D-06  0.00D+00 EMaxC= 1.00D-01 BMatC= 2.05D-09 BMatP= 3.51D-12
 IDIUse=1 WtCom= 1.00D+00 WtEn= 0.00D+00
 Large coefficients: NSaved=  8 BigCof=   19.84 CofMax=   10.00 Det=-3.69D-18
 Inversion failed.  Reducing to  7 matrices.
 Coeff-Com:  0.535D+00-0.359D+01 0.266D+01-0.192D+00 0.167D+01 0.423D+00
 Coeff-Com: -0.506D+00
 Coeff:      0.535D+00-0.359D+01 0.266D+01-0.192D+00 0.167D+01 0.423D+00
 Coeff:     -0.506D+00
 Gap=     0.393 Goal=   None    Shift=    0.000
 Gap=     0.091 Goal=   None    Shift=    0.000
 RMSDP=9.50D-05 MaxDP=1.27D-03 DE=-2.76D-10 OVMax= 4.73D-03

 >>>>>>>>>> Convergence criterion not met.
 SCF Done:  E(UB971) =  -460.101954541     A.U. after   65 cycles
            NFock= 64  Conv=0.95D-04     -V/T= 2.0021
 <Sx>= 0.0000 <Sy>= 0.0000 <Sz>= 0.5000 <S**2>= 0.7521 S= 0.5010
 <L.S>= 0.000000000000E+00
 KE= 4.591430033339D+02 PE=-1.094034983347D+03 EE= 1.747900254721D+02
 Annihilation of the first spin contaminant:
 S**2 before annihilation     0.7521,   after     0.7500
 Leave Link  502 at Mon Oct 19 21:13:57 2015, MaxMem=   524288000 cpu:        15.5
 (Enter /opt/g09/l508.exe)
 Direct SCF.
 Tight linear equation convergence will be used.
 UB971 wavefunction.
 Quadratic Convergence SCF Method.
 Line search only if initial step raises energy.
 Two-electron integral symmetry not used.
 ReadGW:  IGet=1 IStart=         402 Next=         402 LGW=           0.
 Keep R1 and R2 ints in memory in canonical form, NReq=1088568.
 FoFCou: FMM=F IPFlag=           0 FMFlag=           0 FMFlg1=           0
         NFxFlg=           0 DoJE=F BraDBF=F KetDBF=F FulRan=T
         wScrn=  0.000000 ICntrl=     600 IOpCl=  0 I1Cent=           0 NGrid=           0
         NMat0=    1 NMatS0=    465 NMatT0=    0 NMatD0=    1 NMtDS0=    0 NMtDT0=    0
 Symmetry not used in FoFCou.
 Iteration   1 EE= -460.101954541350                                    Grad=3.684D-05 Max rot=    0.0013 deg.
 QCNR:  CnvC1=3.68D-10 CnvC2=3.68D-09
 LinEq1:  Iter=  0 NonCon=     1 RMS=1.55D-06 Max=1.43D-05 NDo=     1
 AX will form     1 AO Fock derivatives at one time.
 LinEq1:  Iter=  1 NonCon=     1 RMS=3.83D-07 Max=3.10D-06 NDo=     1
 LinEq1:  Iter=  2 NonCon=     1 RMS=8.55D-08 Max=7.39D-07 NDo=     1
 LinEq1:  Iter=  3 NonCon=     1 RMS=2.93D-08 Max=5.09D-07 NDo=     1
 LinEq1:  Iter=  4 NonCon=     1 RMS=4.16D-09 Max=3.62D-08 NDo=     1
 LinEq1:  Iter=  5 NonCon=     1 RMS=4.32D-10 Max=2.79D-09 NDo=     1
 LinEq1:  Iter=  6 NonCon=     0 RMS=6.29D-11 Max=3.41D-10 NDo=     1
 Linear equations converged to 3.684D-10 3.684D-09 after     6 iterations.
 Angle between quadratic step and gradient=  89.76 degrees.
     ILin= 1 X=0.000D+00 Y=-4.601019545413D+02 DE= 0.00D+00 F= -1.60D-09
     ILin= 2 X=1.000D+00 Y=-4.601019545414D+02 DE=-3.40D-11
 Iteration   2 EE= -460.101954541384     Delta-E=       -0.000000000034 Grad=8.550D-05 Max rot=    0.0017 deg.
 QCNR:  CnvC1=8.55D-10 CnvC2=8.55D-09
 LinEq1:  Iter=  0 NonCon=     1 RMS=6.82D-07 Max=3.81D-06 NDo=     1
 LinEq1:  Iter=  1 NonCon=     1 RMS=2.70D-07 Max=1.81D-06 NDo=     1
 LinEq1:  Iter=  2 NonCon=     1 RMS=8.20D-08 Max=7.15D-07 NDo=     1
 LinEq1:  Iter=  3 NonCon=     1 RMS=3.27D-08 Max=5.36D-07 NDo=     1
 LinEq1:  Iter=  4 NonCon=     1 RMS=4.98D-09 Max=3.41D-08 NDo=     1
 LinEq1:  Iter=  5 NonCon=     0 RMS=4.51D-10 Max=3.19D-09 NDo=     1
 Linear equations converged to 8.550D-10 8.550D-09 after     5 iterations.
 Angle between quadratic step and gradient=  89.72 degrees.
     ILin= 1 X=0.000D+00 Y=-4.601019545414D+02 DE= 0.00D+00 F= -1.16D-09
     ILin= 2 X=1.000D+00 Y=-4.601019545416D+02 DE=-2.11D-10
 Iteration   3 EE= -460.101954541595     Delta-E=       -0.000000000211 Grad=4.144D-05 Max rot=    0.0008 deg.
 QCNR:  CnvC1=4.14D-10 CnvC2=4.14D-09
 LinEq1:  Iter=  0 NonCon=     1 RMS=1.02D-06 Max=7.17D-06 NDo=     1
 LinEq1:  Iter=  1 NonCon=     1 RMS=2.96D-07 Max=1.70D-06 NDo=     1
 LinEq1:  Iter=  2 NonCon=     1 RMS=6.59D-08 Max=5.65D-07 NDo=     1
 LinEq1:  Iter=  3 NonCon=     1 RMS=3.43D-08 Max=4.86D-07 NDo=     1
 LinEq1:  Iter=  4 NonCon=     1 RMS=2.06D-08 Max=1.85D-07 NDo=     1
 LinEq1:  Iter=  5 NonCon=     1 RMS=2.99D-09 Max=2.78D-08 NDo=     1
 LinEq1:  Iter=  6 NonCon=     0 RMS=3.48D-10 Max=1.95D-09 NDo=     1
 Linear equations converged to 4.144D-10 4.144D-09 after     6 iterations.
 Angle between quadratic step and gradient=  89.83 degrees.
     ILin= 1 X=0.000D+00 Y=-4.601019545416D+02 DE= 0.00D+00 F= -1.06D-09
     ILin= 2 X=1.000D+00 Y=-4.601019545383D+02 DE= 3.27D-09 F=  7.64D-09
     Reject lnstep minimum 1.231D-01 FVal=-4.601019545417D+02 Lims=  0.00D+00  1.00D+00
     ILin= 3 X=1.000D-01 Y=-4.601019545417D+02 DE=-6.30D-11 F= -1.99D-10
     A contracting polynomial of degree  3 produced  0.1228
 Iteration   4 EE= -460.101954541660     Delta-E=       -0.000000000065 Grad=5.318D-05 Max rot=    0.0010 deg.
 QCNR:  CnvC1=5.32D-10 CnvC2=5.32D-09
 LinEq1:  Iter=  0 NonCon=     1 RMS=9.26D-07 Max=7.01D-06 NDo=     1
 LinEq1:  Iter=  1 NonCon=     1 RMS=2.63D-07 Max=1.53D-06 NDo=     1
 LinEq1:  Iter=  2 NonCon=     1 RMS=7.15D-08 Max=5.69D-07 NDo=     1
 LinEq1:  Iter=  3 NonCon=     1 RMS=3.53D-08 Max=5.30D-07 NDo=     1
 LinEq1:  Iter=  4 NonCon=     1 RMS=1.85D-08 Max=1.47D-07 NDo=     1
 LinEq1:  Iter=  5 NonCon=     1 RMS=4.25D-09 Max=3.33D-08 NDo=     1
 LinEq1:  Iter=  6 NonCon=     1 RMS=6.25D-10 Max=3.58D-09 NDo=     1
 LinEq1:  Iter=  7 NonCon=     0 RMS=9.92D-11 Max=6.13D-10 NDo=     1
 Linear equations converged to 5.318D-10 5.318D-09 after     7 iterations.
 Angle between quadratic step and gradient=  90.05 degrees.
 Incorrect curvature in search direction -- initial direction reversed.
     ILin= 1 X=0.000D+00 Y=-4.601019545417D+02 DE= 0.00D+00 F= -3.71D-09
     ILin= 2 X=1.000D+00 Y=-4.601019545162D+02 DE= 2.55D-08 F=  7.97D-08
     Reject lnstep minimum 1.406D-01 FVal=-4.601019545419D+02 Lims=  0.00D+00  1.00D+00
     ILin= 3 X=1.000D-01 Y=-4.601019545419D+02 DE=-1.95D-10 F= -3.12D-10
     A contracting polynomial of degree  3 produced  0.0820
 Iteration   5 EE= -460.101954541844     Delta-E=       -0.000000000184 Grad=4.203D-05 Max rot=    0.0007 deg.
 QCNR:  CnvC1=4.20D-10 CnvC2=4.20D-09
 LinEq1:  Iter=  0 NonCon=     1 RMS=1.08D-06 Max=7.59D-06 NDo=     1
 LinEq1:  Iter=  1 NonCon=     1 RMS=3.84D-07 Max=3.88D-06 NDo=     1
 LinEq1:  Iter=  2 NonCon=     1 RMS=8.41D-08 Max=5.69D-07 NDo=     1
 LinEq1:  Iter=  3 NonCon=     1 RMS=3.98D-08 Max=5.23D-07 NDo=     1
 LinEq1:  Iter=  4 NonCon=     1 RMS=2.52D-08 Max=2.91D-07 NDo=     1
 LinEq1:  Iter=  5 NonCon=     1 RMS=5.15D-09 Max=4.20D-08 NDo=     1
 LinEq1:  Iter=  6 NonCon=     1 RMS=8.58D-10 Max=5.00D-09 NDo=     1
 LinEq1:  Iter=  7 NonCon=     0 RMS=2.04D-10 Max=1.74D-09 NDo=     1
 Linear equations converged to 4.203D-10 4.203D-09 after     7 iterations.
 Angle between quadratic step and gradient=  89.92 degrees.
     ILin= 1 X=0.000D+00 Y=-4.601019545418D+02 DE= 0.00D+00 F= -1.52D-09
     ILin= 2 X=1.000D+00 Y=-4.601019545395D+02 DE= 2.34D-09 F=  6.45D-09
     Reject lnstep minimum 2.064D-01 FVal=-4.601019545420D+02 Lims=  0.00D+00  1.00D+00
     ILin= 3 X=2.000D-01 Y=-4.601019545420D+02 DE=-1.55D-10 F= -2.70D-11
     A contracting polynomial of degree  3 produced  0.1997
 Iteration   6 EE= -460.101954541999     Delta-E=       -0.000000000155 Grad=5.131D-05 Max rot=    0.0009 deg.
 QCNR:  CnvC1=5.13D-10 CnvC2=5.13D-09
 LinEq1:  Iter=  0 NonCon=     1 RMS=1.11D-06 Max=7.51D-06 NDo=     1
 LinEq1:  Iter=  1 NonCon=     1 RMS=4.13D-07 Max=3.73D-06 NDo=     1
 LinEq1:  Iter=  2 NonCon=     1 RMS=9.84D-08 Max=6.01D-07 NDo=     1
 LinEq1:  Iter=  3 NonCon=     1 RMS=3.88D-08 Max=5.85D-07 NDo=     1
 LinEq1:  Iter=  4 NonCon=     1 RMS=2.30D-08 Max=2.23D-07 NDo=     1
 LinEq1:  Iter=  5 NonCon=     1 RMS=2.58D-09 Max=1.36D-08 NDo=     1
 LinEq1:  Iter=  6 NonCon=     0 RMS=4.84D-10 Max=4.21D-09 NDo=     1
 Linear equations converged to 5.131D-10 5.131D-09 after     6 iterations.
 Angle between quadratic step and gradient=  89.81 degrees.
     ILin= 1 X=0.000D+00 Y=-4.601019545420D+02 DE= 0.00D+00 F= -1.03D-09
     ILin= 2 X=1.000D+00 Y=-4.601019545402D+02 DE= 1.80D-09 F=  4.65D-09
     Reject lnstep minimum 1.822D-01 FVal=-4.601019545421D+02 Lims=  0.00D+00  1.00D+00
     ILin= 3 X=2.000D-01 Y=-4.601019545421D+02 DE=-9.24D-11 F=  1.01D-10
     A contracting polynomial of degree  3 produced  0.1816
 Iteration   7 EE= -460.101954542093     Delta-E=       -0.000000000094 Grad=6.414D-05 Max rot=    0.0013 deg.
 QCNR:  CnvC1=6.41D-10 CnvC2=6.41D-09
 LinEq1:  Iter=  0 NonCon=     1 RMS=9.58D-07 Max=6.75D-06 NDo=     1
 LinEq1:  Iter=  1 NonCon=     1 RMS=3.49D-07 Max=2.12D-06 NDo=     1
 LinEq1:  Iter=  2 NonCon=     1 RMS=1.07D-07 Max=6.09D-07 NDo=     1
 LinEq1:  Iter=  3 NonCon=     1 RMS=3.81D-08 Max=5.89D-07 NDo=     1
 LinEq1:  Iter=  4 NonCon=     1 RMS=1.96D-08 Max=1.75D-07 NDo=     1
 LinEq1:  Iter=  5 NonCon=     1 RMS=5.18D-09 Max=5.45D-08 NDo=     1
 LinEq1:  Iter=  6 NonCon=     1 RMS=1.02D-09 Max=6.30D-09 NDo=     1
 LinEq1:  Iter=  7 NonCon=     0 RMS=1.92D-10 Max=1.33D-09 NDo=     1
 Linear equations converged to 6.414D-10 6.414D-09 after     7 iterations.
 Angle between quadratic step and gradient=  89.87 degrees.
     ILin= 1 X=0.000D+00 Y=-4.601019545421D+02 DE= 0.00D+00 F= -4.56D-09
     ILin= 2 X=1.000D+00 Y=-4.601019545337D+02 DE= 8.40D-09 F=  2.20D-08
     Reject lnstep minimum 1.823D-01 FVal=-4.601019545425D+02 Lims=  0.00D+00  1.00D+00
     ILin= 3 X=2.000D-01 Y=-4.601019545425D+02 DE=-4.06D-10 F=  5.06D-10
     A contracting polynomial of degree  3 produced  0.1779
 Iteration   8 EE= -460.101954542503     Delta-E=       -0.000000000411 Grad=2.793D-05 Max rot=    0.0005 deg.
 QCNR:  CnvC1=2.79D-10 CnvC2=2.79D-09
 LinEq1:  Iter=  0 NonCon=     1 RMS=1.10D-06 Max=9.45D-06 NDo=     1
 LinEq1:  Iter=  1 NonCon=     1 RMS=4.97D-07 Max=4.19D-06 NDo=     1
 LinEq1:  Iter=  2 NonCon=     1 RMS=5.96D-08 Max=5.95D-07 NDo=     1
 LinEq1:  Iter=  3 NonCon=     1 RMS=2.96D-08 Max=4.52D-07 NDo=     1
 LinEq1:  Iter=  4 NonCon=     1 RMS=1.22D-08 Max=7.34D-08 NDo=     1
 LinEq1:  Iter=  5 NonCon=     1 RMS=1.64D-09 Max=1.76D-08 NDo=     1
 LinEq1:  Iter=  6 NonCon=     1 RMS=4.24D-10 Max=2.15D-09 NDo=     1
 LinEq1:  Iter=  7 NonCon=     0 RMS=1.03D-10 Max=7.75D-10 NDo=     1
 Linear equations converged to 2.793D-10 2.793D-09 after     7 iterations.
 Angle between quadratic step and gradient=  89.88 degrees.
     ILin= 1 X=0.000D+00 Y=-4.601019545425D+02 DE= 0.00D+00 F= -3.45D-09
     ILin= 2 X=1.000D+00 Y=-4.601019545382D+02 DE= 4.33D-09 F=  1.90D-08
     Reject lnstep minimum 3.536D-01 FVal=-4.601019545432D+02 Lims=  0.00D+00  1.00D+00
     ILin= 3 X=4.000D-01 Y=-4.601019545431D+02 DE=-5.89D-10 F=  8.92D-10
     A contracting polynomial of degree  3 produced  0.2761
 Iteration   9 EE= -460.101954543097     Delta-E=       -0.000000000594 Grad=5.012D-05 Max rot=    0.0009 deg.
 QCNR:  CnvC1=5.01D-10 CnvC2=5.01D-09
 LinEq1:  Iter=  0 NonCon=     1 RMS=1.10D-06 Max=1.02D-05 NDo=     1
 LinEq1:  Iter=  1 NonCon=     1 RMS=4.58D-07 Max=3.24D-06 NDo=     1
 LinEq1:  Iter=  2 NonCon=     1 RMS=9.09D-08 Max=6.41D-07 NDo=     1
 LinEq1:  Iter=  3 NonCon=     1 RMS=3.37D-08 Max=5.38D-07 NDo=     1
 LinEq1:  Iter=  4 NonCon=     1 RMS=1.14D-08 Max=7.72D-08 NDo=     1
 LinEq1:  Iter=  5 NonCon=     1 RMS=2.47D-09 Max=1.25D-08 NDo=     1
 LinEq1:  Iter=  6 NonCon=     1 RMS=7.68D-10 Max=5.75D-09 NDo=     1
 LinEq1:  Iter=  7 NonCon=     0 RMS=1.97D-10 Max=8.72D-10 NDo=     1
 Linear equations converged to 5.012D-10 5.012D-09 after     7 iterations.
 Angle between quadratic step and gradient=  89.82 degrees.
     ILin= 1 X=0.000D+00 Y=-4.601019545431D+02 DE= 0.00D+00 F= -2.75D-09
     ILin= 2 X=1.000D+00 Y=-4.601019545401D+02 DE= 2.99D-09 F=  8.78D-09
     Reject lnstep minimum 2.407D-01 FVal=-4.601019545434D+02 Lims=  0.00D+00  1.00D+00
     ILin= 3 X=2.000D-01 Y=-4.601019545434D+02 DE=-3.21D-10 F= -4.60D-10
     A contracting polynomial of degree  3 produced  0.2396
 Iteration  10 EE= -460.101954543427     Delta-E=       -0.000000000330 Grad=4.773D-05 Max rot=    0.0011 deg.
 QCNR:  CnvC1=4.77D-10 CnvC2=4.77D-09
 LinEq1:  Iter=  0 NonCon=     1 RMS=1.03D-06 Max=7.81D-06 NDo=     1
 LinEq1:  Iter=  1 NonCon=     1 RMS=4.46D-07 Max=3.93D-06 NDo=     1
 LinEq1:  Iter=  2 NonCon=     1 RMS=6.73D-08 Max=6.00D-07 NDo=     1
 LinEq1:  Iter=  3 NonCon=     1 RMS=3.59D-08 Max=5.29D-07 NDo=     1
 LinEq1:  Iter=  4 NonCon=     1 RMS=1.74D-08 Max=1.24D-07 NDo=     1
 LinEq1:  Iter=  5 NonCon=     1 RMS=1.80D-09 Max=1.25D-08 NDo=     1
 LinEq1:  Iter=  6 NonCon=     0 RMS=3.33D-10 Max=1.98D-09 NDo=     1
 Linear equations converged to 4.773D-10 4.773D-09 after     6 iterations.
 Angle between quadratic step and gradient=  89.85 degrees.
     ILin= 1 X=0.000D+00 Y=-4.601019545434D+02 DE= 0.00D+00 F= -8.98D-10
     ILin= 2 X=1.000D+00 Y=-4.601019545419D+02 DE= 1.55D-09 F=  4.00D-09
     Reject lnstep minimum 1.827D-01 FVal=-4.601019545435D+02 Lims=  0.00D+00  1.00D+00
     ILin= 3 X=2.000D-01 Y=-4.601019545435D+02 DE=-8.08D-11 F=  8.53D-11
     A contracting polynomial of degree  3 produced  0.1826
 Iteration  11 EE= -460.101954543509     Delta-E=       -0.000000000081 Grad=6.324D-05 Max rot=    0.0015 deg.
 QCNR:  CnvC1=6.32D-10 CnvC2=6.32D-09
 LinEq1:  Iter=  0 NonCon=     1 RMS=8.90D-07 Max=7.21D-06 NDo=     1
 LinEq1:  Iter=  1 NonCon=     1 RMS=3.93D-07 Max=3.11D-06 NDo=     1
 LinEq1:  Iter=  2 NonCon=     1 RMS=7.48D-08 Max=6.17D-07 NDo=     1
 LinEq1:  Iter=  3 NonCon=     1 RMS=3.62D-08 Max=5.55D-07 NDo=     1
 LinEq1:  Iter=  4 NonCon=     1 RMS=1.55D-08 Max=9.97D-08 NDo=     1
 LinEq1:  Iter=  5 NonCon=     1 RMS=3.12D-09 Max=3.19D-08 NDo=     1
 LinEq1:  Iter=  6 NonCon=     1 RMS=6.68D-10 Max=5.65D-09 NDo=     1
 LinEq1:  Iter=  7 NonCon=     0 RMS=2.59D-10 Max=1.97D-09 NDo=     1
 Linear equations converged to 6.324D-10 6.324D-09 after     7 iterations.
 Angle between quadratic step and gradient=  89.91 degrees.
     ILin= 1 X=0.000D+00 Y=-4.601019545435D+02 DE= 0.00D+00 F= -1.82D-09
     ILin= 2 X=1.000D+00 Y=-4.601019545420D+02 DE= 1.50D-09 F=  4.87D-09
     Reject lnstep minimum 2.761D-01 FVal=-4.601019545438D+02 Lims=  0.00D+00  1.00D+00
     ILin= 3 X=3.000D-01 Y=-4.601019545438D+02 DE=-2.49D-10 F=  1.66D-10
     A contracting polynomial of degree  3 produced  0.2744
 Iteration  12 EE= -460.101954543759     Delta-E=       -0.000000000251 Grad=2.690D-05 Max rot=    0.0005 deg.
 QCNR:  CnvC1=2.69D-10 CnvC2=2.69D-09
 LinEq1:  Iter=  0 NonCon=     1 RMS=1.00D-06 Max=8.06D-06 NDo=     1
 LinEq1:  Iter=  1 NonCon=     1 RMS=4.60D-07 Max=5.32D-06 NDo=     1
 LinEq1:  Iter=  2 NonCon=     1 RMS=4.62D-08 Max=5.49D-07 NDo=     1
 LinEq1:  Iter=  3 NonCon=     1 RMS=2.33D-08 Max=3.00D-07 NDo=     1
 LinEq1:  Iter=  4 NonCon=     1 RMS=6.66D-09 Max=5.25D-08 NDo=     1
 LinEq1:  Iter=  5 NonCon=     1 RMS=1.54D-09 Max=1.04D-08 NDo=     1
 LinEq1:  Iter=  6 NonCon=     0 RMS=2.33D-10 Max=1.88D-09 NDo=     1
 Linear equations converged to 2.690D-10 2.690D-09 after     6 iterations.
 Angle between quadratic step and gradient=  90.07 degrees.
 Incorrect curvature in search direction -- initial direction reversed.
     ILin= 1 X=0.000D+00 Y=-4.601019545438D+02 DE= 0.00D+00 F= -1.11D-09
     ILin= 2 X=1.000D+00 Y=-4.601019545336D+02 DE= 1.02D-08 F=  2.27D-08
     Reject lnstep minimum 5.409D-02 FVal=-4.601019545438D+02 Lims=  0.00D+00  1.00D+00
     ILin= 3 X=5.409D-02 Y=-4.601019545438D+02 DE=-2.93D-11 F=  3.07D-11
     A contracting polynomial of degree  3 produced  0.0510
     Minimum is close to point  3 DX= -3.12D-03 DF= -2.27D-13 DXR=  6.13D-02 DFR=  7.77D-03 which will be used.
 Iteration  13 EE= -460.101954543789     Delta-E=       -0.000000000029 Grad=2.962D-05 Max rot=    0.0005 deg.
 QCNR:  CnvC1=2.96D-10 CnvC2=2.96D-09
 LinEq1:  Iter=  0 NonCon=     1 RMS=1.10D-06 Max=8.99D-06 NDo=     1
 LinEq1:  Iter=  1 NonCon=     1 RMS=5.02D-07 Max=5.41D-06 NDo=     1
 LinEq1:  Iter=  2 NonCon=     1 RMS=5.10D-08 Max=5.73D-07 NDo=     1
 LinEq1:  Iter=  3 NonCon=     1 RMS=2.56D-08 Max=3.66D-07 NDo=     1
 LinEq1:  Iter=  4 NonCon=     1 RMS=7.47D-09 Max=5.78D-08 NDo=     1
 LinEq1:  Iter=  5 NonCon=     1 RMS=2.13D-09 Max=1.22D-08 NDo=     1
 LinEq1:  Iter=  6 NonCon=     1 RMS=5.50D-10 Max=5.07D-09 NDo=     1
 LinEq1:  Iter=  7 NonCon=     0 RMS=9.01D-11 Max=5.47D-10 NDo=     1
 Linear equations converged to 2.962D-10 2.962D-09 after     7 iterations.
 Angle between quadratic step and gradient=  89.91 degrees.
     ILin= 1 X=0.000D+00 Y=-4.601019545438D+02 DE= 0.00D+00 F= -1.45D-09
     ILin= 2 X=1.000D+00 Y=-4.601019545405D+02 DE= 3.24D-09 F=  8.81D-09
     Reject lnstep minimum 1.778D-01 FVal=-4.601019545439D+02 Lims=  0.00D+00  1.00D+00
     ILin= 3 X=2.000D-01 Y=-4.601019545439D+02 DE=-1.21D-10 F=  2.47D-10
     A contracting polynomial of degree  3 produced  0.1627
 Iteration  14 EE= -460.101954543912     Delta-E=       -0.000000000124 Grad=5.645D-05 Max rot=    0.0011 deg.
 QCNR:  CnvC1=5.64D-10 CnvC2=5.64D-09
 LinEq1:  Iter=  0 NonCon=     1 RMS=9.91D-07 Max=8.10D-06 NDo=     1
 LinEq1:  Iter=  1 NonCon=     1 RMS=4.64D-07 Max=4.68D-06 NDo=     1
 LinEq1:  Iter=  2 NonCon=     1 RMS=8.71D-08 Max=5.98D-07 NDo=     1
[...]
 4/5=101/1;
 5/5=2,8=3,13=1,98=1/2,8;
 8/6=4,10=90,11=11/1;
 11/6=1,8=1,9=11,15=111,16=1,31=1/1,2,10;
 10/6=1,31=1/2;
 7/8=1,10=1,25=1,30=1/1,2,3,16;
 1/6=512,7=10,8=256,10=4,30=1/3;
 99//99;
 Leave Link    1 at Mon Oct 19 21:14:19 2015, MaxMem=   524288000 cpu:         0.3
 (Enter /opt/g09/l101.exe)
 Structure from the checkpoint file:  "/scratch/pb556/g09_run/ti_runs//Gau-5855.chk"
 -----------------------
 ./00_00fine-Cl_west.g09
 -----------------------
 Charge =  0 Multiplicity = 2
 No Z-Matrix found in file; cartesian coordinates used.
  Cl                                                0.000000000000      0.000000000000      0.000000000000
 Recover connectivity data from disk.
 NAtoms=      1 NQM=        1 NQMF=       0 NMMI=      0 NMMIF=      0
                NMic=       0 NMicF=      0.
                    Isotopes and Nuclear Properties:
 (Nuclear quadrupole moments (NQMom) in fm**2, nuclear magnetic moments (NMagM)
  in nuclear magnetons)

  Atom         1
 IAtWgt=          35
 AtmWgt=  34.9688527
 NucSpn=           3
 AtZEff= -14.2400000
 NQMom=   -8.1650000
 NMagM=    0.8218740
 AtZNuc=  17.0000000
 Leave Link  101 at Mon Oct 19 21:14:19 2015, MaxMem=   524288000 cpu:         0.6
 (Enter /opt/g09/l103.exe)

 GradGradGradGradGradGradGradGradGradGradGradGradGradGradGradGradGradGrad
 Berny optimization.
 Initialization pass.
 Trust Radius=2.56D+00 FncErr=1.00D-07 GrdErr=1.00D-07
 Number of steps in this run=      2 maximum allowed number of steps=      2.
 GradGradGradGradGradGradGradGradGradGradGradGradGradGradGradGradGradGrad

 Leave Link  103 at Mon Oct 19 21:14:19 2015, MaxMem=   524288000 cpu:         0.1
 (Enter /opt/g09/l202.exe)
                          Input orientation:                          
 ---------------------------------------------------------------------
 Center     Atomic      Atomic             Coordinates (Angstroms)
 Number     Number       Type             X           Y           Z
 ---------------------------------------------------------------------
      1         17           0        0.000000    0.000000    0.000000
 ---------------------------------------------------------------------
 Symmetry turned off by external request.
 Stoichiometry    Cl(2)
 Framework group  OH[O(Cl)]
 Deg. of freedom     0
 Full point group                 OH      NOp  48
 Leave Link  202 at Mon Oct 19 21:14:19 2015, MaxMem=   524288000 cpu:         0.3
 (Enter /opt/g09/l301.exe)
 Standard basis: 6-311+G(d,p) (5D, 7F)
 Ernie: Thresh=  0.10000D-02 Tol=  0.10000D-05 Strict=F.
 AO basis set in the form of general basis input (Overlap normalization):
      1 0
 S   6 1.00       0.000000000000
      0.1058190000D+06  0.7380002465D-03
      0.1587200000D+05  0.5718001910D-02
      0.3619650000D+04  0.2949500985D-01
      0.1030800000D+04  0.1172860392D+00
      0.3399080000D+03  0.3629491212D+00
      0.1245380000D+03  0.5841491951D+00
 S   3 1.00       0.000000000000
      0.1245380000D+03  0.1341769734D+00
      0.4951350000D+02  0.6242498762D+00
      0.2080560000D+02  0.2917559421D+00
 S   1 1.00       0.000000000000
      0.6583460000D+01  0.1000000000D+01
 S   1 1.00       0.000000000000
      0.2564680000D+01  0.1000000000D+01
 S   1 1.00       0.000000000000
      0.5597630000D+00  0.1000000000D+01
 S   1 1.00       0.000000000000
      0.1832730000D+00  0.1000000000D+01
 SP   1 1.00       0.000000000000
      0.4830000000D-01  0.1000000000D+01  0.1000000000D+01
 P   5 1.00       0.000000000000
      0.5897760000D+03  0.3665569355D-02
      0.1398490000D+03  0.2836791942D-01
      0.4514130000D+02  0.1247566028D+00
      0.1687330000D+02  0.3396546305D+00
      0.2771520000D+01  0.7475859630D+00
 P   2 1.00       0.000000000000
      0.6741100000D+01 -0.1572243813D+01
      0.2771520000D+01  0.9923888817D+00
 P   1 1.00       0.000000000000
      0.1023870000D+01  0.1000000000D+01
 P   1 1.00       0.000000000000
      0.3813680000D+00  0.1000000000D+01
 P   1 1.00       0.000000000000
      0.1094370000D+00  0.1000000000D+01
 D   1 1.00       0.000000000000
      0.7500000000D+00  0.1000000000D+01
 ****

    30 basis functions,    53 primitive gaussians,    31 cartesian basis functions
     9 alpha electrons        8 beta electrons
       nuclear repulsion energy         0.0000000000 Hartrees.
 IExCor= 1614 DFT=T Ex+Corr=B971 ExCW=0 ScaHFX=  0.210000
 ScaDFX=  1.000000  1.000000  1.000000  1.000000 ScalE2=  1.000000  1.000000
 IRadAn=      5 IRanWt=     -1 IRanGd=            0 ICorTp=0 IEmpDi=  4
 NAtoms=    1 NActive=    1 NUniq=    1 SFac= 1.00D+00 NAtFMM=   60 NAOKFM=F Big=F
 Integral buffers will be    131072 words long.
 Raffenetti 2 integral format.
 Two-electron integral symmetry is turned off.
 Leave Link  301 at Mon Oct 19 21:14:19 2015, MaxMem=   524288000 cpu:         0.4
 (Enter /opt/g09/l302.exe)
 NPDir=0 NMtPBC=     1 NCelOv=     1 NCel=       1 NClECP=     1 NCelD=      1
         NCelK=      1 NCelE2=     1 NClLst=     1 CellRange=     0.0.
 One-electron integrals computed using PRISM.
 NBasis=    30 RedAO= T EigKep=  3.40D-02  NBF=    30
 NBsUse=    30 1.00D-06 EigRej= -1.00D+00 NBFU=    30
 Precomputing XC quadrature grid using
 IXCGrd= 4 IRadAn=           5 IRanWt=          -1 IRanGd=           0 AccXCQ= 0.00D+00.
 Generated NRdTot=       0 NPtTot=           0 NUsed=           0 NTot=          32
 NSgBfM=    31    31    31    31    31 MxSgAt=     1 MxSgA2=     1.
 Leave Link  302 at Mon Oct 19 21:14:19 2015, MaxMem=   524288000 cpu:         1.1
 (Enter /opt/g09/l303.exe)
 DipDrv:  MaxL=1.
 Leave Link  303 at Mon Oct 19 21:14:19 2015, MaxMem=   524288000 cpu:         0.2
 (Enter /opt/g09/l401.exe)
 Initial guess from the checkpoint file:  "/scratch/pb556/g09_run/ti_runs//Gau-5855.chk"
 B after Tr=     0.000000    0.000000    0.000000
         Rot=    1.000000    0.000000    0.000000    0.000000 Ang=   0.00 deg.
 Guess basis will be translated and rotated to current coordinates.
 JPrj=2 DoOrth=T DoCkMO=T.
 Initial guess <Sx>= 0.0000 <Sy>= 0.0000 <Sz>= 0.5000 <S**2>= 0.7521 S= 0.5010
 Leave Link  401 at Mon Oct 19 21:14:19 2015, MaxMem=   524288000 cpu:         0.7
 (Enter /opt/g09/l502.exe)
 UHF open shell SCF:
 Using DIIS extrapolation, IDIIS=  1040.
 Two-electron integral symmetry not used.
 Keep R1 and R2 ints in memory in canonical form, NReq=1088375.
 IVT=        9261 IEndB=        9261 NGot=   524288000 MDV=   524062050
 LenX=   524062050 LenY=   524060648
 Requested convergence on RMS density matrix=1.00D-08 within  64 cycles.
 Requested convergence on MAX density matrix=1.00D-06.
 Requested convergence on             energy=1.00D-06.
 No special actions if energy rises.
 FoFCou: FMM=F IPFlag=           0 FMFlag=           0 FMFlg1=           0
         NFxFlg=           0 DoJE=F BraDBF=F KetDBF=F FulRan=T
         wScrn=  0.000000 ICntrl=     600 IOpCl=  0 I1Cent=           0 NGrid=           0
         NMat0=    1 NMatS0=    465 NMatT0=    0 NMatD0=    1 NMtDS0=    0 NMtDT0=    0
 Symmetry not used in FoFCou.

 Cycle   1  Pass 1  IDiag  1:
 E= -460.101954548080    
 DIIS: error= 1.17D-08 at cycle   1 NSaved=   1.
 NSaved= 1 IEnMin= 1 EnMin= -460.101954548080     IErMin= 1 ErrMin= 1.17D-08
 ErrMax= 1.17D-08  0.00D+00 EMaxC= 1.00D-01 BMatC= 2.78D-14 BMatP= 2.78D-14
 IDIUse=1 WtCom= 1.00D+00 WtEn= 0.00D+00
 Coeff-Com:  0.100D+01
 Coeff:      0.100D+01
 Gap=     0.393 Goal=   None    Shift=    0.000
 Gap=     0.091 Goal=   None    Shift=    0.000
 RMSDP=1.23D-08 MaxDP=8.70D-08              OVMax= 1.74D-07

 Cycle   2  Pass 1  IDiag  1:
 E= -460.101954548081     Delta-E=       -0.000000000001 Rises=F Damp=F
 DIIS: error= 2.49D-09 at cycle   2 NSaved=   2.
 NSaved= 2 IEnMin= 2 EnMin= -460.101954548081     IErMin= 2 ErrMin= 2.49D-09
 ErrMax= 2.49D-09  0.00D+00 EMaxC= 1.00D-01 BMatC= 6.76D-16 BMatP= 2.78D-14
 IDIUse=1 WtCom= 1.00D+00 WtEn= 0.00D+00
 Coeff-Com: -0.927D-01 0.109D+01
 Coeff:     -0.927D-01 0.109D+01
 Gap=     0.393 Goal=   None    Shift=    0.000
 Gap=     0.091 Goal=   None    Shift=    0.000
 RMSDP=1.79D-09 MaxDP=1.40D-08 DE=-5.68D-13 OVMax= 5.44D-08

 SCF Done:  E(UB971) =  -460.101954548     A.U. after    2 cycles
            NFock=  2  Conv=0.18D-08     -V/T= 2.0021
 <Sx>= 0.0000 <Sy>= 0.0000 <Sz>= 0.5000 <S**2>= 0.7521 S= 0.5010
 <L.S>= 0.000000000000E+00
 KE= 4.591430649873D+02 PE=-1.094035126647D+03 EE= 1.747901071120D+02
 Annihilation of the first spin contaminant:
 S**2 before annihilation     0.7521,   after     0.7500
 Leave Link  502 at Mon Oct 19 21:14:19 2015, MaxMem=   524288000 cpu:         1.4
 (Enter /opt/g09/l508.exe)
 QCSCF skips out because SCF is already converged.
 Leave Link  508 at Mon Oct 19 21:14:19 2015, MaxMem=   524288000 cpu:         0.0
 (Enter /opt/g09/l801.exe)
 DoSCS=F DFT=T ScalE2(SS,OS)=  1.000000  1.000000
 Range of M.O.s used for correlation:     1    30
 NBasis=    30 NAE=     9 NBE=     8 NFC=     0 NFV=     0
 NROrb=     30 NOA=     9 NOB=     8 NVA=    21 NVB=    22

 **** Warning!!: The smallest beta delta epsilon is  0.90981790D-01

 Leave Link  801 at Mon Oct 19 21:14:19 2015, MaxMem=   524288000 cpu:         0.2
 (Enter /opt/g09/l1101.exe)
 Using compressed storage, NAtomX=     1.
 Will process      2 centers per pass.
 Leave Link 1101 at Mon Oct 19 21:14:20 2015, MaxMem=   524288000 cpu:         1.1
 (Enter /opt/g09/l1102.exe)
 Symmetrizing basis deriv contribution to polar:
 IMax=3 JMax=2 DiffMx= 0.00D+00
 Leave Link 1102 at Mon Oct 19 21:14:20 2015, MaxMem=   524288000 cpu:         0.2
 (Enter /opt/g09/l1110.exe)
 Forming Gx(P) for the SCF density, NAtomX=     1.
 Integral derivatives from FoFJK, PRISM(SPDF).
 Do as many integral derivatives as possible in FoFJK.
 G2DrvN: MDV=     524287888.
 G2DrvN: will do     2 centers at a time, making    1 passes.
 Calling FoFCou, ICntrl=  3107 FMM=F I1Cent=   0 AccDes= 0.00D+00.
 FoFJK:  IHMeth= 1 ICntrl=    3107 DoSepK=F KAlg= 0 I1Cent=   0 FoldK=F
 IRaf=         0 NMat=   1 IRICut=       1 DoRegI=T DoRafI=F ISym2E= 0.
 FoFCou: FMM=F IPFlag=           0 FMFlag=      100000 FMFlg1=           0
         NFxFlg=           0 DoJE=F BraDBF=F KetDBF=F FulRan=T
         wScrn=  0.000000 ICntrl=    3107 IOpCl=  1 I1Cent=           0 NGrid=           0
         NMat0=    1 NMatS0=      1 NMatT0=    0 NMatD0=    1 NMtDS0=    0 NMtDT0=    0
 Symmetry not used in FoFCou.
 End of G2Drv F.D. properties file   721 does not exist.
 End of G2Drv F.D. properties file   722 does not exist.
 End of G2Drv F.D. properties file   788 does not exist.
 Leave Link 1110 at Mon Oct 19 21:14:20 2015, MaxMem=   524288000 cpu:         2.2
 (Enter /opt/g09/l1002.exe)
 Minotr:  UHF open shell wavefunction.
          IDoAtm=1
          Direct CPHF calculation.
          Differentiating once with respect to electric field.
                with respect to dipole field.
          Differentiating once with respect to nuclear coordinates.
          Requested convergence is 1.0D-08 RMS, and 1.0D-07 maximum.
          Secondary convergence is 1.0D-12 RMS, and 1.0D-12 maximum.
          NewPWx=T KeepS1=F KeepF1=F KeepIn=T MapXYZ=F SortEE=F KeepMc=T.
          MDV=     524287926 using IRadAn=       1.
 Generate precomputed XC quadrature information.
 Keep R1 and R2 ints in memory in canonical form, NReq=1076488.
 FoFCou: FMM=F IPFlag=           0 FMFlag=           0 FMFlg1=           0
         NFxFlg=           0 DoJE=F BraDBF=F KetDBF=F FulRan=T
         wScrn=  0.000000 ICntrl=     600 IOpCl=  0 I1Cent=           0 NGrid=           0
         NMat0=    1 NMatS0=    465 NMatT0=    0 NMatD0=    1 NMtDS0=    0 NMtDT0=    0
 Symmetry not used in FoFCou.
          Solving linear equations simultaneously, MaxMat=       0.
 FoF2E skips out because all densities are zero.
 CalDSu exits because no D1Ps are significant.
          There are     6 degrees of freedom in the 1st order CPHF.  IDoFFX=6 NUNeed=     3.
      3 vectors produced by pass  0 Test12= 6.08D-15 1.67D-08 XBig12= 6.46D+00 1.50D+00.
 AX will form     3 AO Fock derivatives at one time.
      3 vectors produced by pass  1 Test12= 6.08D-15 1.67D-08 XBig12= 6.72D-01 5.30D-01.
      3 vectors produced by pass  2 Test12= 6.08D-15 1.67D-08 XBig12= 8.55D-03 4.18D-02.
      3 vectors produced by pass  3 Test12= 6.08D-15 1.67D-08 XBig12= 4.66D-05 4.04D-03.
      3 vectors produced by pass  4 Test12= 6.08D-15 1.67D-08 XBig12= 4.49D-08 1.04D-04.
      3 vectors produced by pass  5 Test12= 6.08D-15 1.67D-08 XBig12= 5.63D-11 3.03D-06.
      3 vectors produced by pass  6 Test12= 6.08D-15 1.67D-08 XBig12= 1.74D-13 2.08D-07.
 InvSVY:  IOpt=1 It=  1 EMax= 3.33D-16
 Solved reduced A of dimension    21 with     3 vectors.
 FullF1:  Do perturbations    1 to     3.
 Isotropic polarizability for W=    0.000000        7.06 Bohr**3.
 End of Minotr F.D. properties file   721 does not exist.
 End of Minotr F.D. properties file   722 does not exist.
 End of Minotr F.D. properties file   788 does not exist.
 Leave Link 1002 at Mon Oct 19 21:14:20 2015, MaxMem=   524288000 cpu:         2.5
 (Enter /opt/g09/l701.exe)
 Compute integral second derivatives.
 ... and contract with generalized density number  0.
 Leave Link  701 at Mon Oct 19 21:14:20 2015, MaxMem=   524288000 cpu:         2.0
 (Enter /opt/g09/l702.exe)
 L702 exits ... SP integral derivatives will be done elsewhere.
 Leave Link  702 at Mon Oct 19 21:14:20 2015, MaxMem=   524288000 cpu:         0.2
 (Enter /opt/g09/l703.exe)
 Compute integral second derivatives, UseDBF=F ICtDFT=           0.
 Integral derivatives from FoFJK, PRISM(SPDF).
 Calling FoFJK, ICntrl=    100127 FMM=F ISym2X=0 I1Cent= 0 IOpClX= 1 NMat=1 NMatS=1 NMatT=0.
 FoFJK:  IHMeth= 1 ICntrl=  100127 DoSepK=F KAlg= 0 I1Cent=   0 FoldK=F
 IRaf=         0 NMat=   1 IRICut=       1 DoRegI=T DoRafI=F ISym2E= 0.
 FoFCou: FMM=F IPFlag=           0 FMFlag=      100000 FMFlg1=         800
         NFxFlg=           0 DoJE=F BraDBF=F KetDBF=F FulRan=T
         wScrn=  0.000000 ICntrl=  100127 IOpCl=  1 I1Cent=           0 NGrid=           0
         NMat0=    1 NMatS0=      1 NMatT0=    0 NMatD0=    1 NMtDS0=    0 NMtDT0=    0
 Symmetry not used in FoFCou.
 Leave Link  703 at Mon Oct 19 21:14:21 2015, MaxMem=   524288000 cpu:         4.8
 (Enter /opt/g09/l716.exe)
 Dipole        = 2.11994760D-09 9.01824653D-10-1.23619179D-09
 Polarizability= 6.56727910D+00-3.51046217D-01 7.30384628D+00
                 3.51366457D-01 1.40851299D-01 7.30358379D+00
 Full mass-weighted force constant matrix:
 Low frequencies ---   -0.0046   -0.0046   -0.0046
 Diagonal vibrational polarizability:
        0.0000000       0.0000000       0.0000000
 Harmonic frequencies (cm**-1), IR intensities (KM/Mole), Raman scattering
 activities (A**4/AMU), depolarization ratios for plane and unpolarized
 incident light, reduced masses (AMU), force constants (mDyne/A),
 and normal coordinates:

 -------------------
 - Thermochemistry -
 -------------------
 Temperature   298.150 Kelvin.  Pressure   1.00000 Atm.
 Atom     1 has atomic number 17 and mass  34.96885
 Molecular mass:    34.96885 amu.
 Zero-point vibrational energy          0.0 (Joules/Mol)
                                    0.00000 (Kcal/Mol)
 Vibrational temperatures: 
          (Kelvin)
 
 Zero-point correction=                           0.000000 (Hartree/Particle)
 Thermal correction to Energy=                    0.001416
 Thermal correction to Enthalpy=                  0.002360
 Thermal correction to Gibbs Free Energy=        -0.015677
 Sum of electronic and zero-point Energies=           -460.101955
 Sum of electronic and thermal Energies=              -460.100538
 Sum of electronic and thermal Enthalpies=            -460.099594
 Sum of electronic and thermal Free Energies=         -460.117632
 
                     E (Thermal)             CV                S
                      KCal/Mol        Cal/Mol-Kelvin    Cal/Mol-Kelvin
 Total                    0.889              2.981             37.964
 Electronic               0.000              0.000              1.377
 Translational            0.889              2.981             36.586
 Rotational               0.000              0.000              0.000
 Vibrational              0.000              0.000              0.000
                       Q            Log10(Q)             Ln(Q)
 Total Bot       0.162558D+08          7.211007         16.603958
 Total V=0       0.162558D+08          7.211007         16.603958
 Vib (Bot)       0.100000D+01          0.000000          0.000000
 Vib (V=0)       0.100000D+01          0.000000          0.000000
 Electronic      0.200000D+01          0.301030          0.693147
 Translational   0.812788D+07          6.909977         15.910811
 Rotational      0.100000D+01          0.000000          0.000000
 -------------------------------------------------------------------
 Center     Atomic                   Forces (Hartrees/Bohr)
 Number     Number              X              Y              Z
 -------------------------------------------------------------------
      1       17           0.000000000    0.000000000    0.000000000
 -------------------------------------------------------------------
 Cartesian Forces:  Max     0.000000000 RMS     0.000000000
 Force constants in Cartesian coordinates: 
                1             2             3 
      1  0.000000D+00
      2  0.000000D+00  0.000000D+00
      3  0.000000D+00  0.000000D+00  0.000000D+00
 Leave Link  716 at Mon Oct 19 21:14:21 2015, MaxMem=   524288000 cpu:         0.2
 (Enter /opt/g09/l103.exe)

 GradGradGradGradGradGradGradGradGradGradGradGradGradGradGradGradGradGrad
 Berny optimization.
 Search for a local minimum.
 Step number   1 out of a maximum of    2
 All quantities printed in internal units (Hartrees-Bohrs-Radians)
 Second derivative matrix not updated -- analytic derivatives used.
 The second derivative matrix:
                          X1        Y1        Z1
           X1           0.00000
           Y1           0.00000   0.00000
           Z1           0.00000   0.00000   0.00000
 ITU=  0
     Eigenvalues --- 
 Angle between quadratic step and forces=  90.00 degrees.
 Linear search not attempted -- first point.
 TrRot=  0.000000  0.000000  0.000000  0.000000  0.000000  0.000000
 Variable       Old X    -DE/DX   Delta X   Delta X   Delta X     New X
                                 (Linear)    (Quad)   (Total)
    X1        0.00000   0.00000   0.00000   0.00000   0.00000   0.00000
    Y1        0.00000   0.00000   0.00000   0.00000   0.00000   0.00000
    Z1        0.00000   0.00000   0.00000   0.00000   0.00000   0.00000
         Item               Value     Threshold  Converged?
 Maximum Force            0.000000     0.000015     YES
 RMS     Force            0.000000     0.000010     YES
 Maximum Displacement     0.000000     0.000060     YES
 RMS     Displacement     0.000000     0.000040     YES
 Predicted change in Energy= 0.000000D+00
 Optimization completed.
    -- Stationary point found.
 GradGradGradGradGradGradGradGradGradGradGradGradGradGradGradGradGradGrad

 Leave Link  103 at Mon Oct 19 21:14:21 2015, MaxMem=   524288000 cpu:         0.1
 (Enter /opt/g09/l9999.exe)
 1\1\GINC-CARAVAGGIO\Freq\UB971\6-311+G(d,p)\Cl1(2)\PB556\19-Oct-2015\0
 \\#P Geom=AllCheck Guess=TCheck SCRF=Check GenChk UB971/6-311+G(d,p) F
 req\\./00_00fine-Cl_west.g09\\0,2\Cl,0.,0.,0.\\Version=ES64L-G09RevD.0
 1\HF=-460.1019545\S2=0.752068\S2-1=0.\S2A=0.750002\RMSD=1.791e-09\RMSF
 =3.986e-24\Thermal=0.0014163\Dipole=0.,0.,0.\DipoleDeriv=0.,0.,0.,0.,0
 .,0.,0.,0.,0.\Polar=6.5672791,-0.3510462,7.3038463,0.3513665,0.1408513
 ,7.3035838\PG=OH [O(Cl1)]\NImag=0\\0.,0.,0.,0.,0.,0.\\0.,0.,0.\\\@


 "THE TIME HAS COME", THE WALRUS SAID,
 "TO TALK OF MANY THINGS,
 OF SHOES AND SHIPS AND SEALING WAX,
 OF CABBAGES AND KINGS,
 AND WHY THE SEA IS BOILING HOT,
 AND WHETHER PIGS HAVE WINGS."
 Job cpu time:       0 days  0 hours  0 minutes 19.2 seconds.
 File lengths (MBytes):  RWF=      5 Int=      0 D2E=      0 Chk=      1 Scr=      1
 Normal termination of Gaussian 09 at Mon Oct 19 21:14:21 2015.
