 Entering Gaussian System, Link 0=g09
 Input=1_internal-freq-cl-33_trimer_type-f.gau
 Output=1_internal-freq-cl-33_trimer_type-f.log
 Initial command:
 /opt/g09/l1.exe "/scratch/pb556/g09_run/ti_runs//Gau-19802.inp" -scrdir="/scratch/pb556/g09_run/ti_runs//"
 Entering Link 1 = /opt/g09/l1.exe PID=     19803.
  
 Copyright (c) 1988,1990,1992,1993,1995,1998,2003,2009,2013,
            Gaussian, Inc.  All Rights Reserved.
  
 This is part of the Gaussian(R) 09 program.  It is based on
 the Gaussian(R) 03 system (copyright 2003, Gaussian, Inc.),
 the Gaussian(R) 98 system (copyright 1998, Gaussian, Inc.),
 the Gaussian(R) 94 system (copyright 1995, Gaussian, Inc.),
 the Gaussian 92(TM) system (copyright 1992, Gaussian, Inc.),
 the Gaussian 90(TM) system (copyright 1990, Gaussian, Inc.),
 the Gaussian 88(TM) system (copyright 1988, Gaussian, Inc.),
 the Gaussian 86(TM) system (copyright 1986, Carnegie Mellon
 University), and the Gaussian 82(TM) system (copyright 1983,
 Carnegie Mellon University). Gaussian is a federally registered
 trademark of Gaussian, Inc.
  
 This software contains proprietary and confidential information,
 including trade secrets, belonging to Gaussian, Inc.
  
 This software is provided under written license and may be
 used, copied, transmitted, or stored only in accord with that
 written license.
  
 The following legend is applicable only to US Government
 contracts under FAR:
  
                    RESTRICTED RIGHTS LEGEND
  
 Use, reproduction and disclosure by the US Government is
 subject to restrictions as set forth in subparagraphs (a)
 and (c) of the Commercial Computer Software - Restricted
 Rights clause in FAR 52.227-19.
  
 Gaussian, Inc.
 340 Quinnipiac St., Bldg. 40, Wallingford CT 06492
  
  
 ---------------------------------------------------------------
 Warning -- This program may not be used in any manner that
 competes with the business of Gaussian, Inc. or will provide
 assistance to any competitor of Gaussian, Inc.  The licensee
 of this program is prohibited from giving any competitor of
 Gaussian, Inc. access to this program.  By using this program,
 the user acknowledges that Gaussian, Inc. is engaged in the
 business of creating and licensing software in the field of
 computational chemistry and represents and warrants to the
 licensee that it is not a competitor of Gaussian, Inc. and that
 it will not use this program in any manner prohibited above.
 ---------------------------------------------------------------
  

 Cite this work as:
 Gaussian 09, Revision D.01,
 M. J. Frisch, G. W. Trucks, H. B. Schlegel, G. E. Scuseria, 
 M. A. Robb, J. R. Cheeseman, G. Scalmani, V. Barone, B. Mennucci, 
 G. A. Petersson, H. Nakatsuji, M. Caricato, X. Li, H. P. Hratchian, 
 A. F. Izmaylov, J. Bloino, G. Zheng, J. L. Sonnenberg, M. Hada, 
 M. Ehara, K. Toyota, R. Fukuda, J. Hasegawa, M. Ishida, T. Nakajima, 
 Y. Honda, O. Kitao, H. Nakai, T. Vreven, J. A. Montgomery, Jr., 
 J. E. Peralta, F. Ogliaro, M. Bearpark, J. J. Heyd, E. Brothers, 
 K. N. Kudin, V. N. Staroverov, T. Keith, R. Kobayashi, J. Normand, 
 K. Raghavachari, A. Rendell, J. C. Burant, S. S. Iyengar, J. Tomasi, 
 M. Cossi, N. Rega, J. M. Millam, M. Klene, J. E. Knox, J. B. Cross, 
 V. Bakken, C. Adamo, J. Jaramillo, R. Gomperts, R. E. Stratmann, 
 O. Yazyev, A. J. Austin, R. Cammi, C. Pomelli, J. W. Ochterski, 
 R. L. Martin, K. Morokuma, V. G. Zakrzewski, G. A. Voth, 
 P. Salvador, J. J. Dannenberg, S. Dapprich, A. D. Daniels, 
 O. Farkas, J. B. Foresman, J. V. Ortiz, J. Cioslowski, 
 and D. J. Fox, Gaussian, Inc., Wallingford CT, 2013.
 
 ******************************************
 Gaussian 09:  ES64L-G09RevD.01 24-Apr-2013
                23-Oct-2015 
 ******************************************
 %NProcShared=8
 Will use up to    8 processors via shared memory.
 %Mem=500MW
 ----------------------------------------------------------------------
 #p uB971/6-311+G(d,p) Opt=(Tight, CalcAll, MaxCycles=512, MaxStep=256)
  Freq GFInput Population=None Integral(Grid=UltraFine) SCF=XQC Guess=M
 IX NoSymmetry
 ----------------------------------------------------------------------
 1/6=512,7=10,8=256,10=4,14=-1,18=20,19=15,26=4,38=1/1,3;
 2/9=110,12=2,15=1,17=6,18=5,40=1/2;
 3/5=4,6=6,7=111,11=2,16=1,24=10,25=1,30=1,71=2,74=-20,75=-5,116=2,140=1/1,2,3;
 4/13=-1/1;
 5/5=2,8=3,13=1,38=5/2,8;
 8/6=4,10=90,11=11/1;
 11/6=1,8=1,9=11,15=111,16=1,31=1/1,2,10;
 10/6=1,31=1/2;
 7/10=1,25=1,30=1/1,2,3,16;
 1/6=512,7=10,8=256,10=4,14=-1,18=20,19=15,26=4/3(3);
 2/9=110,15=1/2;
 7/8=1,9=1,25=1,30=1,44=-1/16;
 99//99;
 2/9=110,15=1/2;
 3/5=4,6=6,7=111,11=2,16=1,25=1,30=1,71=2,74=-20,75=-5,116=2,140=1/1,2,3;
 4/5=5,16=3,69=1/1;
 5/5=2,8=3,13=1,38=5/2,8;
 8/6=4,10=90,11=11/1;
 11/6=1,8=1,9=11,15=111,16=1,31=1/1,2,10;
 10/6=1,31=1/2;
 7/10=1,25=1,30=1/1,2,3,16;
 1/6=512,7=10,8=256,10=4,14=-1,18=20,19=15,26=4/3(-8);
 2/9=110,15=1/2;
 7/8=1,9=1,25=1,30=1,44=-1/16;
 99//99;
 Leave Link    1 at Fri Oct 23 07:45:00 2015, MaxMem=   524288000 cpu:         0.6
 (Enter /opt/g09/l101.exe)
 -----------------------------------------
 ./0_internal-fine-cl-33_trimer_type-f.g09
 -----------------------------------------
 Symbolic Z-matrix:
 Charge =  0 Multiplicity = 3
 Ti                   -0.66034   2.93604  -0.89148 
 O                    -0.07351   1.40478  -0.09726 
 Ti                   -1.12837   0.49749   1.11328 
 O                    -2.72916   1.34606   1.3511 
 Ti                   -2.93704   2.88723   0.34872 
 O                    -1.39928   3.88964   0.49018 
 O                    -2.38633   2.54319  -1.37357 
 O                     0.32953   3.90939  -2.11929 
 Cl                    1.8687    3.66085  -2.76854 
 Cl                   -0.54582  -1.40153   2.16315 
 
 NAtoms=     10 NQM=       10 NQMF=       0 NMMI=      0 NMMIF=      0
                NMic=       0 NMicF=      0.
                    Isotopes and Nuclear Properties:
 (Nuclear quadrupole moments (NQMom) in fm**2, nuclear magnetic moments (NMagM)
  in nuclear magnetons)

  Atom         1           2           3           4           5           6           7           8           9          10
 IAtWgt=          48          16          48          16          48          16          16          16          35          35
 AtmWgt=  47.9479467  15.9949146  47.9479467  15.9949146  47.9479467  15.9949146  15.9949146  15.9949146  34.9688527  34.9688527
 NucSpn=           0           0           0           0           0           0           0           0           3           3
 AtZEff=   0.0000000   0.0000000   0.0000000   0.0000000   0.0000000   0.0000000   0.0000000   0.0000000   0.0000000   0.0000000
 NQMom=    0.0000000   0.0000000   0.0000000   0.0000000   0.0000000   0.0000000   0.0000000   0.0000000  -8.1650000  -8.1650000
 NMagM=    0.0000000   0.0000000   0.0000000   0.0000000   0.0000000   0.0000000   0.0000000   0.0000000   0.8218740   0.8218740
 AtZNuc=  22.0000000   8.0000000  22.0000000   8.0000000  22.0000000   8.0000000   8.0000000   8.0000000  17.0000000  17.0000000
 Leave Link  101 at Fri Oct 23 07:45:00 2015, MaxMem=   524288000 cpu:         1.3
 (Enter /opt/g09/l103.exe)

 GradGradGradGradGradGradGradGradGradGradGradGradGradGradGradGradGradGrad
 Berny optimization.
 Initialization pass.
                           ----------------------------
                           !    Initial Parameters    !
                           ! (Angstroms and Degrees)  !
 --------------------------                            --------------------------
 ! Name  Definition              Value          Derivative Info.                !
 --------------------------------------------------------------------------------
 ! R1    R(1,2)                  1.8221         calculate D2E/DX2 analytically  !
 ! R2    R(1,5)                  2.593          calculate D2E/DX2 analytically  !
 ! R3    R(1,6)                  1.8342         calculate D2E/DX2 analytically  !
 ! R4    R(1,7)                  1.8346         calculate D2E/DX2 analytically  !
 ! R5    R(1,8)                  1.8533         calculate D2E/DX2 analytically  !
 ! R6    R(2,3)                  1.8443         calculate D2E/DX2 analytically  !
 ! R7    R(3,4)                  1.8273         calculate D2E/DX2 analytically  !
 ! R8    R(3,5)                  3.093          calculate D2E/DX2 analytically  !
 ! R9    R(3,10)                 2.2467         calculate D2E/DX2 analytically  !
 ! R10   R(4,5)                  1.8502         calculate D2E/DX2 analytically  !
 ! R11   R(5,6)                  1.8411         calculate D2E/DX2 analytically  !
 ! R12   R(5,7)                  1.8406         calculate D2E/DX2 analytically  !
 ! R13   R(8,9)                  1.6889         calculate D2E/DX2 analytically  !
 ! A1    A(2,1,5)               93.3526         calculate D2E/DX2 analytically  !
 ! A2    A(2,1,6)              103.7877         calculate D2E/DX2 analytically  !
 ! A3    A(2,1,7)              103.7441         calculate D2E/DX2 analytically  !
 ! A4    A(2,1,8)              123.9265         calculate D2E/DX2 analytically  !
 ! A5    A(5,1,8)              142.7209         calculate D2E/DX2 analytically  !
 ! A6    A(6,1,7)               86.0007         calculate D2E/DX2 analytically  !
 ! A7    A(6,1,8)              116.1781         calculate D2E/DX2 analytically  !
 ! A8    A(7,1,8)              116.1588         calculate D2E/DX2 analytically  !
 ! A9    A(1,2,3)              121.0197         calculate D2E/DX2 analytically  !
 ! A10   A(2,3,4)              110.9794         calculate D2E/DX2 analytically  !
 ! A11   A(2,3,5)               78.0018         calculate D2E/DX2 analytically  !
 ! A12   A(2,3,10)             125.0455         calculate D2E/DX2 analytically  !
 ! A13   A(4,3,10)             123.9749         calculate D2E/DX2 analytically  !
 ! A14   A(5,3,10)             156.9519         calculate D2E/DX2 analytically  !
 ! A15   A(1,5,3)               67.6258         calculate D2E/DX2 analytically  !
 ! A16   A(1,5,4)              100.1456         calculate D2E/DX2 analytically  !
 ! A17   A(3,5,6)               85.0237         calculate D2E/DX2 analytically  !
 ! A18   A(3,5,7)               84.9471         calculate D2E/DX2 analytically  !
 ! A19   A(4,5,6)              108.5457         calculate D2E/DX2 analytically  !
 ! A20   A(4,5,7)              108.5195         calculate D2E/DX2 analytically  !
 ! A21   A(6,5,7)               85.6276         calculate D2E/DX2 analytically  !
 ! A22   A(1,8,9)              131.6172         calculate D2E/DX2 analytically  !
 ! D1    D(5,1,2,3)              0.0642         calculate D2E/DX2 analytically  !
 ! D2    D(6,1,2,3)             44.6693         calculate D2E/DX2 analytically  !
 ! D3    D(7,1,2,3)            -44.5337         calculate D2E/DX2 analytically  !
 ! D4    D(8,1,2,3)           -179.8906         calculate D2E/DX2 analytically  !
 ! D5    D(2,1,5,3)             -0.0355         calculate D2E/DX2 analytically  !
 ! D6    D(2,1,5,4)              0.0104         calculate D2E/DX2 analytically  !
 ! D7    D(8,1,5,3)            179.9026         calculate D2E/DX2 analytically  !
 ! D8    D(8,1,5,4)            179.9485         calculate D2E/DX2 analytically  !
 ! D9    D(2,1,8,9)              0.4129         calculate D2E/DX2 analytically  !
 ! D10   D(5,1,8,9)           -179.5126         calculate D2E/DX2 analytically  !
 ! D11   D(6,1,8,9)            131.0084         calculate D2E/DX2 analytically  !
 ! D12   D(7,1,8,9)           -130.0825         calculate D2E/DX2 analytically  !
 ! D13   D(1,2,3,4)             -0.1248         calculate D2E/DX2 analytically  !
 ! D14   D(1,2,3,5)             -0.0549         calculate D2E/DX2 analytically  !
 ! D15   D(1,2,3,10)           179.728          calculate D2E/DX2 analytically  !
 ! D16   D(2,3,5,1)              0.0358         calculate D2E/DX2 analytically  !
 ! D17   D(2,3,5,6)            -42.956          calculate D2E/DX2 analytically  !
 ! D18   D(2,3,5,7)             43.0801         calculate D2E/DX2 analytically  !
 ! D19   D(10,3,5,1)          -179.5103         calculate D2E/DX2 analytically  !
 ! D20   D(10,3,5,6)           137.498          calculate D2E/DX2 analytically  !
 ! D21   D(10,3,5,7)          -136.4659         calculate D2E/DX2 analytically  !
 --------------------------------------------------------------------------------
 Trust Radius=2.56D+00 FncErr=1.00D-07 GrdErr=1.00D-06
 Number of steps in this run=    100 maximum allowed number of steps=    100.
 GradGradGradGradGradGradGradGradGradGradGradGradGradGradGradGradGradGrad

 Leave Link  103 at Fri Oct 23 07:45:00 2015, MaxMem=   524288000 cpu:         0.1
 (Enter /opt/g09/l202.exe)
                          Input orientation:                          
 ---------------------------------------------------------------------
 Center     Atomic      Atomic             Coordinates (Angstroms)
 Number     Number       Type             X           Y           Z
 ---------------------------------------------------------------------
      1         22           0       -0.660340    2.936040   -0.891480
      2          8           0       -0.073510    1.404780   -0.097260
      3         22           0       -1.128370    0.497490    1.113280
      4          8           0       -2.729160    1.346060    1.351100
      5         22           0       -2.937040    2.887230    0.348720
      6          8           0       -1.399280    3.889640    0.490180
      7          8           0       -2.386330    2.543190   -1.373570
      8          8           0        0.329530    3.909390   -2.119290
      9         17           0        1.868700    3.660850   -2.768540
     10         17           0       -0.545820   -1.401530    2.163150
 ---------------------------------------------------------------------
                    Distance matrix (angstroms):
                    1          2          3          4          5
     1  Ti   0.000000
     2  O    1.822063   0.000000
     3  Ti   3.191338   1.844265   0.000000
     4  O    3.440526   3.025504   1.827336   0.000000
     5  Ti   2.593037   3.255205   3.093008   1.850185   0.000000
     6  O    1.834222   2.877026   3.459527   2.996592   1.841071
     7  O    1.834607   2.876470   3.457134   2.995744   1.840632
     8  O    1.853313   3.244090   4.920980   5.288653   4.219759
     9  Cl   3.231833   3.999721   5.835906   6.593179   5.780219
    10  Cl   5.306448   3.634268   2.246746   3.602173   5.234840
                    6          7          8          9         10
     6  O    0.000000
     7  O    2.502151   0.000000
     8  O    3.130257   3.130255   0.000000
     9  Cl   4.620746   4.615234   1.688888   0.000000
    10  Cl   5.614597   5.608626   6.878328   7.468545   0.000000
 Symmetry turned off by external request.
 Stoichiometry    Cl2O5Ti3(3)
 Framework group  C1[X(Cl2O5Ti3)]
 Deg. of freedom    24
 Full point group                 C1      NOp   1
 Rotational constants (GHZ):      0.7892411      0.3360810      0.2472581
 Leave Link  202 at Fri Oct 23 07:45:00 2015, MaxMem=   524288000 cpu:         0.1
 (Enter /opt/g09/l301.exe)
 Standard basis: 6-311+G(d,p) (5D, 7F)
 Ernie: Thresh=  0.10000D-02 Tol=  0.10000D-05 Strict=F.
 AO basis set in the form of general basis input (Overlap normalization):
      1 0
 S   6 1.00       0.000000000000
      0.2060820000D+06  0.5673151380D-03
      0.3122680000D+05  0.4379672866D-02
      0.7199320000D+04  0.2242029425D-01
      0.2048750000D+04  0.9063426645D-01
      0.6707900000D+03  0.2890357165D+00
      0.2436500000D+03  0.6803470061D+00
 S   1 1.00       0.000000000000
      0.9592500000D+02  0.1000000000D+01
 S   1 1.00       0.000000000000
      0.3981010000D+02  0.1000000000D+01
 S   1 1.00       0.000000000000
      0.1222050000D+02  0.1000000000D+01
 S   1 1.00       0.000000000000
      0.5008820000D+01  0.1000000000D+01
 S   1 1.00       0.000000000000
      0.1285690000D+01  0.1000000000D+01
 S   1 1.00       0.000000000000
      0.5128060000D+00  0.1000000000D+01
 S   1 1.00       0.000000000000
      0.8557600000D-01  0.1000000000D+01
 S   1 1.00       0.000000000000
      0.3330200000D-01  0.1000000000D+01
 S   1 1.00       0.000000000000
      0.9991000000D-02  0.1000000000D+01
 P   5 1.00       0.000000000000
      0.1264700000D+04  0.3122017423D-02
      0.3012300000D+03  0.2516579464D-01
      0.9697770000D+02  0.1184178291D+00
      0.3637270000D+02  0.3522190030D+00
      0.1478140000D+02  0.6219379661D+00
 P   1 1.00       0.000000000000
      0.6274650000D+01  0.1000000000D+01
 P   1 1.00       0.000000000000
      0.2478780000D+01  0.1000000000D+01
 P   1 1.00       0.000000000000
      0.1016180000D+01  0.1000000000D+01
 P   1 1.00       0.000000000000
      0.3981620000D+00  0.1000000000D+01
 P   1 1.00       0.000000000000
      0.1015610000D+00  0.1000000000D+01
 P   1 1.00       0.000000000000
      0.3405400000D-01  0.1000000000D+01
 D   3 1.00       0.000000000000
      0.2599240000D+02  0.5411706153D-01
      0.7086340000D+01  0.2873032281D+00
      0.2348710000D+01  0.7854540223D+00
 D   1 1.00       0.000000000000
      0.8001980000D+00  0.1000000000D+01
 D   1 1.00       0.000000000000
      0.2620490000D+00  0.1000000000D+01
 D   1 1.00       0.000000000000
      0.7200000000D-01  0.1000000000D+01
 F   1 1.00       0.000000000000
      0.6900000000D+00  0.1000000000D+01
 ****
      2 0
 S   6 1.00       0.000000000000
      0.8588500000D+04  0.1895150083D-02
      0.1297230000D+04  0.1438590063D-01
      0.2992960000D+03  0.7073200310D-01
      0.8737710000D+02  0.2400010105D+00
      0.2567890000D+02  0.5947970261D+00
      0.3740040000D+01  0.2808020123D+00
 SP   3 1.00       0.000000000000
      0.4211750000D+02  0.1138890124D+00  0.3651139738D-01
      0.9628370000D+01  0.9208111006D+00  0.2371529830D+00
      0.2853320000D+01 -0.3274470358D-02  0.8197019412D+00
 SP   1 1.00       0.000000000000
      0.9056610000D+00  0.1000000000D+01  0.1000000000D+01
 SP   1 1.00       0.000000000000
      0.2556110000D+00  0.1000000000D+01  0.1000000000D+01
 SP   1 1.00       0.000000000000
      0.8450000000D-01  0.1000000000D+01  0.1000000000D+01
 D   1 1.00       0.000000000000
      0.1292000000D+01  0.1000000000D+01
 ****
      3 0
 S   6 1.00       0.000000000000
      0.2060820000D+06  0.5673151380D-03
      0.3122680000D+05  0.4379672866D-02
      0.7199320000D+04  0.2242029425D-01
      0.2048750000D+04  0.9063426645D-01
      0.6707900000D+03  0.2890357165D+00
      0.2436500000D+03  0.6803470061D+00
 S   1 1.00       0.000000000000
      0.9592500000D+02  0.1000000000D+01
 S   1 1.00       0.000000000000
      0.3981010000D+02  0.1000000000D+01
 S   1 1.00       0.000000000000
      0.1222050000D+02  0.1000000000D+01
 S   1 1.00       0.000000000000
      0.5008820000D+01  0.1000000000D+01
 S   1 1.00       0.000000000000
      0.1285690000D+01  0.1000000000D+01
 S   1 1.00       0.000000000000
      0.5128060000D+00  0.1000000000D+01
 S   1 1.00       0.000000000000
      0.8557600000D-01  0.1000000000D+01
 S   1 1.00       0.000000000000
      0.3330200000D-01  0.1000000000D+01
 S   1 1.00       0.000000000000
      0.9991000000D-02  0.1000000000D+01
 P   5 1.00       0.000000000000
      0.1264700000D+04  0.3122017423D-02
      0.3012300000D+03  0.2516579464D-01
      0.9697770000D+02  0.1184178291D+00
      0.3637270000D+02  0.3522190030D+00
      0.1478140000D+02  0.6219379661D+00
 P   1 1.00       0.000000000000
      0.6274650000D+01  0.1000000000D+01
 P   1 1.00       0.000000000000
      0.2478780000D+01  0.1000000000D+01
 P   1 1.00       0.000000000000
      0.1016180000D+01  0.1000000000D+01
 P   1 1.00       0.000000000000
      0.3981620000D+00  0.1000000000D+01
 P   1 1.00       0.000000000000
      0.1015610000D+00  0.1000000000D+01
 P   1 1.00       0.000000000000
      0.3405400000D-01  0.1000000000D+01
 D   3 1.00       0.000000000000
      0.2599240000D+02  0.5411706153D-01
      0.7086340000D+01  0.2873032281D+00
      0.2348710000D+01  0.7854540223D+00
 D   1 1.00       0.000000000000
      0.8001980000D+00  0.1000000000D+01
 D   1 1.00       0.000000000000
      0.2620490000D+00  0.1000000000D+01
 D   1 1.00       0.000000000000
      0.7200000000D-01  0.1000000000D+01
 F   1 1.00       0.000000000000
      0.6900000000D+00  0.1000000000D+01
 ****
      4 0
 S   6 1.00       0.000000000000
      0.8588500000D+04  0.1895150083D-02
      0.1297230000D+04  0.1438590063D-01
      0.2992960000D+03  0.7073200310D-01
      0.8737710000D+02  0.2400010105D+00
      0.2567890000D+02  0.5947970261D+00
      0.3740040000D+01  0.2808020123D+00
 SP   3 1.00       0.000000000000
      0.4211750000D+02  0.1138890124D+00  0.3651139738D-01
      0.9628370000D+01  0.9208111006D+00  0.2371529830D+00
      0.2853320000D+01 -0.3274470358D-02  0.8197019412D+00
 SP   1 1.00       0.000000000000
      0.9056610000D+00  0.1000000000D+01  0.1000000000D+01
 SP   1 1.00       0.000000000000
      0.2556110000D+00  0.1000000000D+01  0.1000000000D+01
 SP   1 1.00       0.000000000000
      0.8450000000D-01  0.1000000000D+01  0.1000000000D+01
 D   1 1.00       0.000000000000
      0.1292000000D+01  0.1000000000D+01
 ****
      5 0
 S   6 1.00       0.000000000000
      0.2060820000D+06  0.5673151380D-03
      0.3122680000D+05  0.4379672866D-02
      0.7199320000D+04  0.2242029425D-01
      0.2048750000D+04  0.9063426645D-01
      0.6707900000D+03  0.2890357165D+00
      0.2436500000D+03  0.6803470061D+00
 S   1 1.00       0.000000000000
      0.9592500000D+02  0.1000000000D+01
 S   1 1.00       0.000000000000
      0.3981010000D+02  0.1000000000D+01
 S   1 1.00       0.000000000000
      0.1222050000D+02  0.1000000000D+01
 S   1 1.00       0.000000000000
      0.5008820000D+01  0.1000000000D+01
 S   1 1.00       0.000000000000
      0.1285690000D+01  0.1000000000D+01
 S   1 1.00       0.000000000000
      0.5128060000D+00  0.1000000000D+01
 S   1 1.00       0.000000000000
      0.8557600000D-01  0.1000000000D+01
 S   1 1.00       0.000000000000
      0.3330200000D-01  0.1000000000D+01
 S   1 1.00       0.000000000000
      0.9991000000D-02  0.1000000000D+01
 P   5 1.00       0.000000000000
      0.1264700000D+04  0.3122017423D-02
      0.3012300000D+03  0.2516579464D-01
      0.9697770000D+02  0.1184178291D+00
      0.3637270000D+02  0.3522190030D+00
      0.1478140000D+02  0.6219379661D+00
 P   1 1.00       0.000000000000
      0.6274650000D+01  0.1000000000D+01
 P   1 1.00       0.000000000000
      0.2478780000D+01  0.1000000000D+01
 P   1 1.00       0.000000000000
      0.1016180000D+01  0.1000000000D+01
 P   1 1.00       0.000000000000
      0.3981620000D+00  0.1000000000D+01
 P   1 1.00       0.000000000000
      0.1015610000D+00  0.1000000000D+01
 P   1 1.00       0.000000000000
      0.3405400000D-01  0.1000000000D+01
 D   3 1.00       0.000000000000
      0.2599240000D+02  0.5411706153D-01
      0.7086340000D+01  0.2873032281D+00
      0.2348710000D+01  0.7854540223D+00
 D   1 1.00       0.000000000000
      0.8001980000D+00  0.1000000000D+01
 D   1 1.00       0.000000000000
      0.2620490000D+00  0.1000000000D+01
 D   1 1.00       0.000000000000
      0.7200000000D-01  0.1000000000D+01
 F   1 1.00       0.000000000000
      0.6900000000D+00  0.1000000000D+01
 ****
      6 0
 S   6 1.00       0.000000000000
      0.8588500000D+04  0.1895150083D-02
      0.1297230000D+04  0.1438590063D-01
      0.2992960000D+03  0.7073200310D-01
      0.8737710000D+02  0.2400010105D+00
      0.2567890000D+02  0.5947970261D+00
      0.3740040000D+01  0.2808020123D+00
 SP   3 1.00       0.000000000000
      0.4211750000D+02  0.1138890124D+00  0.3651139738D-01
      0.9628370000D+01  0.9208111006D+00  0.2371529830D+00
      0.2853320000D+01 -0.3274470358D-02  0.8197019412D+00
 SP   1 1.00       0.000000000000
      0.9056610000D+00  0.1000000000D+01  0.1000000000D+01
 SP   1 1.00       0.000000000000
      0.2556110000D+00  0.1000000000D+01  0.1000000000D+01
 SP   1 1.00       0.000000000000
      0.8450000000D-01  0.1000000000D+01  0.1000000000D+01
 D   1 1.00       0.000000000000
      0.1292000000D+01  0.1000000000D+01
 ****
      7 0
 S   6 1.00       0.000000000000
      0.8588500000D+04  0.1895150083D-02
      0.1297230000D+04  0.1438590063D-01
      0.2992960000D+03  0.7073200310D-01
      0.8737710000D+02  0.2400010105D+00
      0.2567890000D+02  0.5947970261D+00
      0.3740040000D+01  0.2808020123D+00
 SP   3 1.00       0.000000000000
      0.4211750000D+02  0.1138890124D+00  0.3651139738D-01
      0.9628370000D+01  0.9208111006D+00  0.2371529830D+00
      0.2853320000D+01 -0.3274470358D-02  0.8197019412D+00
 SP   1 1.00       0.000000000000
      0.9056610000D+00  0.1000000000D+01  0.1000000000D+01
 SP   1 1.00       0.000000000000
      0.2556110000D+00  0.1000000000D+01  0.1000000000D+01
 SP   1 1.00       0.000000000000
      0.8450000000D-01  0.1000000000D+01  0.1000000000D+01
 D   1 1.00       0.000000000000
      0.1292000000D+01  0.1000000000D+01
 ****
      8 0
 S   6 1.00       0.000000000000
      0.8588500000D+04  0.1895150083D-02
      0.1297230000D+04  0.1438590063D-01
      0.2992960000D+03  0.7073200310D-01
      0.8737710000D+02  0.2400010105D+00
      0.2567890000D+02  0.5947970261D+00
      0.3740040000D+01  0.2808020123D+00
 SP   3 1.00       0.000000000000
      0.4211750000D+02  0.1138890124D+00  0.3651139738D-01
      0.9628370000D+01  0.9208111006D+00  0.2371529830D+00
      0.2853320000D+01 -0.3274470358D-02  0.8197019412D+00
 SP   1 1.00       0.000000000000
      0.9056610000D+00  0.1000000000D+01  0.1000000000D+01
 SP   1 1.00       0.000000000000
      0.2556110000D+00  0.1000000000D+01  0.1000000000D+01
 SP   1 1.00       0.000000000000
      0.8450000000D-01  0.1000000000D+01  0.1000000000D+01
 D   1 1.00       0.000000000000
      0.1292000000D+01  0.1000000000D+01
 ****
      9 0
 S   6 1.00       0.000000000000
      0.1058190000D+06  0.7380002465D-03
      0.1587200000D+05  0.5718001910D-02
      0.3619650000D+04  0.2949500985D-01
      0.1030800000D+04  0.1172860392D+00
      0.3399080000D+03  0.3629491212D+00
      0.1245380000D+03  0.5841491951D+00
 S   3 1.00       0.000000000000
      0.1245380000D+03  0.1341769734D+00
      0.4951350000D+02  0.6242498762D+00
      0.2080560000D+02  0.2917559421D+00
 S   1 1.00       0.000000000000
      0.6583460000D+01  0.1000000000D+01
 S   1 1.00       0.000000000000
      0.2564680000D+01  0.1000000000D+01
 S   1 1.00       0.000000000000
      0.5597630000D+00  0.1000000000D+01
 S   1 1.00       0.000000000000
      0.1832730000D+00  0.1000000000D+01
 SP   1 1.00       0.000000000000
      0.4830000000D-01  0.1000000000D+01  0.1000000000D+01
 P   5 1.00       0.000000000000
      0.5897760000D+03  0.3665569355D-02
      0.1398490000D+03  0.2836791942D-01
      0.4514130000D+02  0.1247566028D+00
      0.1687330000D+02  0.3396546305D+00
      0.2771520000D+01  0.7475859630D+00
 P   2 1.00       0.000000000000
      0.6741100000D+01 -0.1572243813D+01
      0.2771520000D+01  0.9923888817D+00
 P   1 1.00       0.000000000000
      0.1023870000D+01  0.1000000000D+01
 P   1 1.00       0.000000000000
      0.3813680000D+00  0.1000000000D+01
 P   1 1.00       0.000000000000
      0.1094370000D+00  0.1000000000D+01
 D   1 1.00       0.000000000000
      0.7500000000D+00  0.1000000000D+01
 ****
     10 0
 S   6 1.00       0.000000000000
      0.1058190000D+06  0.7380002465D-03
      0.1587200000D+05  0.5718001910D-02
      0.3619650000D+04  0.2949500985D-01
      0.1030800000D+04  0.1172860392D+00
      0.3399080000D+03  0.3629491212D+00
      0.1245380000D+03  0.5841491951D+00
 S   3 1.00       0.000000000000
      0.1245380000D+03  0.1341769734D+00
      0.4951350000D+02  0.6242498762D+00
      0.2080560000D+02  0.2917559421D+00
 S   1 1.00       0.000000000000
      0.6583460000D+01  0.1000000000D+01
 S   1 1.00       0.000000000000
      0.2564680000D+01  0.1000000000D+01
 S   1 1.00       0.000000000000
      0.5597630000D+00  0.1000000000D+01
 S   1 1.00       0.000000000000
      0.1832730000D+00  0.1000000000D+01
 SP   1 1.00       0.000000000000
      0.4830000000D-01  0.1000000000D+01  0.1000000000D+01
 P   5 1.00       0.000000000000
      0.5897760000D+03  0.3665569355D-02
      0.1398490000D+03  0.2836791942D-01
      0.4514130000D+02  0.1247566028D+00
      0.1687330000D+02  0.3396546305D+00
      0.2771520000D+01  0.7475859630D+00
 P   2 1.00       0.000000000000
      0.6741100000D+01 -0.1572243813D+01
      0.2771520000D+01  0.9923888817D+00
 P   1 1.00       0.000000000000
      0.1023870000D+01  0.1000000000D+01
 P   1 1.00       0.000000000000
      0.3813680000D+00  0.1000000000D+01
 P   1 1.00       0.000000000000
      0.1094370000D+00  0.1000000000D+01
 D   1 1.00       0.000000000000
      0.7500000000D+00  0.1000000000D+01
 ****

   344 basis functions,   568 primitive gaussians,   372 cartesian basis functions
    71 alpha electrons       69 beta electrons
       nuclear repulsion energy      1469.2866289821 Hartrees.
 IExCor= 1614 DFT=T Ex+Corr=B971 ExCW=0 ScaHFX=  0.210000
 ScaDFX=  1.000000  1.000000  1.000000  1.000000 ScalE2=  1.000000  1.000000
 IRadAn=      5 IRanWt=     -1 IRanGd=            0 ICorTp=0 IEmpDi=  4
 NAtoms=   10 NActive=   10 NUniq=   10 SFac= 1.00D+00 NAtFMM=   60 NAOKFM=F Big=F
 Integral buffers will be    131072 words long.
 Raffenetti 2 integral format.
 Two-electron integral symmetry is turned off.
 Leave Link  301 at Fri Oct 23 07:45:00 2015, MaxMem=   524288000 cpu:         0.4
 (Enter /opt/g09/l302.exe)
 NPDir=0 NMtPBC=     1 NCelOv=     1 NCel=       1 NClECP=     1 NCelD=      1
         NCelK=      1 NCelE2=     1 NClLst=     1 CellRange=     0.0.
 One-electron integrals computed using PRISM.
 NBasis=   344 RedAO= T EigKep=  1.70D-04  NBF=   344
 NBsUse=   344 1.00D-06 EigRej= -1.00D+00 NBFU=   344
 Precomputing XC quadrature grid using
 IXCGrd= 4 IRadAn=           5 IRanWt=          -1 IRanGd=           0 AccXCQ= 0.00D+00.
 Generated NRdTot=       0 NPtTot=           0 NUsed=           0 NTot=          32
 NSgBfM=   355   355   358   358   358 MxSgAt=    10 MxSgA2=    10.
 Leave Link  302 at Fri Oct 23 07:45:00 2015, MaxMem=   524288000 cpu:         3.2
 (Enter /opt/g09/l303.exe)
 DipDrv:  MaxL=1.
 Leave Link  303 at Fri Oct 23 07:45:01 2015, MaxMem=   524288000 cpu:         0.4
 (Enter /opt/g09/l401.exe)
 ExpMin= 9.99D-03 ExpMax= 2.06D+05 ExpMxC= 7.20D+03 IAcc=3 IRadAn=         5 AccDes= 0.00D+00
 Harris functional with IExCor= 1614 and IRadAn=       5 diagonalized for initial guess.
 HarFok:  IExCor= 1614 AccDes= 0.00D+00 IRadAn=         5 IDoV= 1 UseB2=F ITyADJ=14
 ICtDFT=  3500011 ScaDFX=  1.000000  1.000000  1.000000  1.000000
 FoFCou: FMM=F IPFlag=           0 FMFlag=      100000 FMFlg1=           0
         NFxFlg=           0 DoJE=T BraDBF=F KetDBF=T FulRan=T
         wScrn=  0.000000 ICntrl=     500 IOpCl=  0 I1Cent=   200000004 NGrid=           0
         NMat0=    1 NMatS0=      1 NMatT0=    0 NMatD0=    1 NMtDS0=    0 NMtDT0=    0
 Symmetry not used in FoFCou.
 Harris En= -3799.51486245969    
 JPrj=0 DoOrth=F DoCkMO=T.
 Mixing orbitals, IMix= 1 IMixAn=  0 NRI=1 NE=   71 Coef=  7.07106781D-01  7.07106781D-01
 Mixing orbitals, IMix= 1 IMixAn=  0 NRI=1 NE=   69 Coef= -7.07106781D-01  7.07106781D-01
 Initial guess <Sx>= 0.0000 <Sy>= 0.0000 <Sz>= 1.0000 <S**2>= 2.0000 S= 1.0000
 Leave Link  401 at Fri Oct 23 07:45:03 2015, MaxMem=   524288000 cpu:        16.2
 (Enter /opt/g09/l502.exe)
 UHF open shell SCF:
 Using DIIS extrapolation, IDIIS=  1040.
 Two-electron integral symmetry not used.
 IVT=      426322 IEndB=      426322 NGot=   524288000 MDV=   524004659
 LenX=   524004659 LenY=   523865834
 Requested convergence on RMS density matrix=1.00D-08 within  64 cycles.
 Requested convergence on MAX density matrix=1.00D-06.
 Requested convergence on             energy=1.00D-06.
 No special actions if energy rises.
 Fock matrices will be formed incrementally for  20 cycles.

 Cycle   1  Pass 1  IDiag  1:
 FoFJK:  IHMeth= 1 ICntrl=       0 DoSepK=F KAlg= 0 I1Cent=   0 FoldK=F
 IRaf= 790000000 NMat=   1 IRICut=       1 DoRegI=T DoRafI=F ISym2E= 0.
 FoFCou: FMM=F IPFlag=           0 FMFlag=      100000 FMFlg1=           0
         NFxFlg=           0 DoJE=F BraDBF=F KetDBF=F FulRan=T
         wScrn=  0.000000 ICntrl=       0 IOpCl=  1 I1Cent=           0 NGrid=           0
         NMat0=    1 NMatS0=      1 NMatT0=    0 NMatD0=    1 NMtDS0=    0 NMtDT0=    0
 Symmetry not used in FoFCou.
 E= -3843.00252507448    
 DIIS: error= 2.13D-01 at cycle   1 NSaved=   1.
 NSaved= 1 IEnMin= 1 EnMin= -3843.00252507448     IErMin= 1 ErrMin= 2.13D-01
 ErrMax= 2.13D-01  0.00D+00 EMaxC= 1.00D-01 BMatC= 4.17D+01 BMatP= 4.17D+01
 IDIUse=3 WtCom= 0.00D+00 WtEn= 1.00D+00
 Coeff-Com:  0.100D+01
 Coeff-En:   0.100D+01
 Coeff:      0.100D+01
 Gap=    -0.031 Goal=   None    Shift=    0.000
 Gap=     0.022 Goal=   None    Shift=    0.000
 GapD=   -0.031 DampG=0.250 DampE=0.125 DampFc=0.1250 IDamp=-1.
 Damping current iteration by 1.25D-01
 RMSDP=1.19D-02 MaxDP=5.27D-01              OVMax= 9.50D-01

 Cycle   2  Pass 1  IDiag  1:
 RMSU=  1.46D-03    CP:  9.84D-01
 E= -3843.35398548851     Delta-E=       -0.351460414029 Rises=F Damp=T
 DIIS: error= 1.84D-01 at cycle   2 NSaved=   2.
 NSaved= 2 IEnMin= 2 EnMin= -3843.35398548851     IErMin= 2 ErrMin= 1.84D-01
 ErrMax= 1.84D-01  0.00D+00 EMaxC= 1.00D-01 BMatC= 2.49D+01 BMatP= 4.17D+01
 IDIUse=3 WtCom= 0.00D+00 WtEn= 1.00D+00
 Coeff-Com: -0.131D+01 0.231D+01
 Coeff-En:   0.279D+00 0.721D+00
 Coeff:      0.279D+00 0.721D+00
 Gap=     0.036 Goal=   None    Shift=    0.000
 Gap=    -0.002 Goal=   None    Shift=    0.000
 RMSDP=8.18D-03 MaxDP=2.79D-01 DE=-3.51D-01 OVMax= 8.57D-01

 Cycle   3  Pass 1  IDiag  1:
 RMSU=  6.37D-03    CP:  9.11D-01  3.00D+00
 E= -3839.80997657570     Delta-E=        3.544008912814 Rises=F Damp=F
 DIIS: error= 1.75D-01 at cycle   3 NSaved=   3.
 NSaved= 3 IEnMin= 2 EnMin= -3843.35398548851     IErMin= 3 ErrMin= 1.75D-01
 ErrMax= 1.75D-01  0.00D+00 EMaxC= 1.00D-01 BMatC= 2.99D+01 BMatP= 2.49D+01
 IDIUse=2 WtCom= 0.00D+00 WtEn= 1.00D+00
 EnCoef did   100 forward-backward iterations
 Coeff-En:   0.658D+00 0.386D-01 0.303D+00
 Coeff:      0.658D+00 0.386D-01 0.303D+00
 Gap=    -0.026 Goal=   None    Shift=    0.000
 Gap=    -0.203 Goal=   None    Shift=    0.000
 RMSDP=9.47D-03 MaxDP=5.73D-01 DE= 3.54D+00 OVMax= 9.56D-01

 Cycle   4  Pass 1  IDiag  1:
 RMSU=  7.20D-03    CP:  8.99D-01  3.00D+00  3.44D-02
 E= -3824.98194826832     Delta-E=       14.828028307374 Rises=F Damp=F
 DIIS: error= 3.58D-01 at cycle   4 NSaved=   4.
 NSaved= 4 IEnMin= 2 EnMin= -3843.35398548851     IErMin= 3 ErrMin= 1.75D-01
 ErrMax= 3.58D-01  0.00D+00 EMaxC= 1.00D-01 BMatC= 1.13D+02 BMatP= 2.49D+01
 IDIUse=2 WtCom= 0.00D+00 WtEn= 1.00D+00
 EnCoef did   100 forward-backward iterations
 Coeff-En:   0.639D+00 0.118D-01 0.283D+00 0.664D-01
 Coeff:      0.639D+00 0.118D-01 0.283D+00 0.664D-01
 Gap=     0.016 Goal=   None    Shift=    0.000
 Gap=     0.027 Goal=   None    Shift=    0.000
 RMSDP=5.70D-03 MaxDP=3.50D-01 DE= 1.48D+01 OVMax= 9.66D-01

 Cycle   5  Pass 1  IDiag  1:
 RMSU=  3.76D-03    CP:  9.17D-01  2.51D+00  2.68D-01  4.59D-01
 E= -3844.24205278304     Delta-E=      -19.260104514713 Rises=F Damp=F
 DIIS: error= 5.48D-02 at cycle   5 NSaved=   5.
 NSaved= 5 IEnMin= 5 EnMin= -3844.24205278304     IErMin= 5 ErrMin= 5.48D-02
 ErrMax= 5.48D-02  0.00D+00 EMaxC= 1.00D-01 BMatC= 4.45D+00 BMatP= 2.49D+01
 IDIUse=3 WtCom= 4.52D-01 WtEn= 5.48D-01
 EnCoef did     3 forward-backward iterations
 Coeff-Com:  0.462D+00-0.354D+00 0.209D+00-0.419D-02 0.686D+00
 Coeff-En:   0.226D+00 0.000D+00 0.116D+00 0.000D+00 0.658D+00
 Coeff:      0.333D+00-0.160D+00 0.158D+00-0.190D-02 0.671D+00
 Gap=     0.176 Goal=   None    Shift=    0.000
 Gap=     0.315 Goal=   None    Shift=    0.000
 RMSDP=7.34D-03 MaxDP=5.00D-01 DE=-1.93D+01 OVMax= 9.62D-01

 Cycle   6  Pass 1  IDiag  1:
 RMSU=  6.02D-03    CP:  8.95D-01  2.68D+00  1.17D-01  3.53D-01 -6.07D-02
 E= -3832.31572492572     Delta-E=       11.926327857316 Rises=F Damp=F
 DIIS: error= 3.04D-01 at cycle   6 NSaved=   6.
 NSaved= 6 IEnMin= 5 EnMin= -3844.24205278304     IErMin= 5 ErrMin= 5.48D-02
 ErrMax= 3.04D-01  0.00D+00 EMaxC= 1.00D-01 BMatC= 5.65D+01 BMatP= 4.45D+00
 IDIUse=2 WtCom= 0.00D+00 WtEn= 1.00D+00
 EnCoef did     5 forward-backward iterations
 Coeff-En:   0.197D+00 0.000D+00 0.975D-01 0.000D+00 0.657D+00 0.492D-01
 Coeff:      0.197D+00 0.000D+00 0.975D-01 0.000D+00 0.657D+00 0.492D-01
 Gap=    -0.094 Goal=   None    Shift=    0.000
 Gap=    -0.090 Goal=   None    Shift=    0.000
 RMSDP=5.51D-03 MaxDP=5.08D-01 DE= 1.19D+01 OVMax= 9.91D-01

 Cycle   7  Pass 1  IDiag  1:
 RMSU=  3.50D-03    CP:  9.00D-01  2.05D+00  3.82D-01  1.01D-01  5.35D-01
                    CP:  5.91D-01
 E= -3841.86574399663     Delta-E=       -9.550019070906 Rises=F Damp=F
 DIIS: error= 1.24D-01 at cycle   7 NSaved=   7.
 NSaved= 7 IEnMin= 5 EnMin= -3844.24205278304     IErMin= 5 ErrMin= 5.48D-02
 ErrMax= 1.24D-01  0.00D+00 EMaxC= 1.00D-01 BMatC= 1.66D+01 BMatP= 4.45D+00
 IDIUse=2 WtCom= 0.00D+00 WtEn= 1.00D+00
 EnCoef did     1 forward-backward iterations
 Coeff-En:   0.000D+00 0.000D+00 0.000D+00 0.000D+00 0.711D+00 0.279D-01
 Coeff-En:   0.261D+00
 Coeff:      0.000D+00 0.000D+00 0.000D+00 0.000D+00 0.711D+00 0.279D-01
 Coeff:      0.261D+00
 Gap=     0.011 Goal=   None    Shift=    0.000
 Gap=     0.274 Goal=   None    Shift=    0.000
 RMSDP=4.29D-03 MaxDP=4.04D-01 DE=-9.55D+00 OVMax= 9.91D-01

 Cycle   8  Pass 1  IDiag  1:
 RMSU=  2.56D-03    CP:  9.00D-01  2.38D+00  2.28D-01  3.10D-01  6.40D-01
                    CP:  4.33D-01  2.27D-01
 E= -3843.80575426587     Delta-E=       -1.940010269240 Rises=F Damp=F
 DIIS: error= 6.95D-02 at cycle   8 NSaved=   8.
 NSaved= 8 IEnMin= 5 EnMin= -3844.24205278304     IErMin= 5 ErrMin= 5.48D-02
 ErrMax= 6.95D-02  0.00D+00 EMaxC= 1.00D-01 BMatC= 4.77D+00 BMatP= 4.45D+00
 IDIUse=3 WtCom= 4.52D-01 WtEn= 5.48D-01
 EnCoef did     1 forward-backward iterations
 Coeff-Com:  0.484D-01 0.283D-02 0.259D-01-0.270D-01 0.501D+00 0.326D-02
 Coeff-Com:  0.144D+00 0.302D+00
 Coeff-En:   0.000D+00 0.000D+00 0.000D+00 0.000D+00 0.556D+00 0.000D+00
 Coeff-En:   0.177D+00 0.267D+00
 Coeff:      0.219D-01 0.128D-02 0.117D-01-0.122D-01 0.531D+00 0.147D-02
 Coeff:      0.162D+00 0.282D+00
 Gap=     0.037 Goal=   None    Shift=    0.000
 Gap=     0.156 Goal=   None    Shift=    0.000
 RMSDP=4.10D-03 MaxDP=4.18D-01 DE=-1.94D+00 OVMax= 9.79D-01

 Cycle   9  Pass 1  IDiag  1:
 RMSU=  1.93D-03    CP:  9.32D-01  1.89D+00  2.95D-01  3.59D-01  7.60D-01
                    CP:  1.51D-01  1.98D-01 -1.59D-01
 E= -3844.84871749879     Delta-E=       -1.042963232920 Rises=F Damp=F
 DIIS: error= 2.37D-02 at cycle   9 NSaved=   9.
 NSaved= 9 IEnMin= 9 EnMin= -3844.84871749879     IErMin= 9 ErrMin= 2.37D-02
 ErrMax= 2.37D-02  0.00D+00 EMaxC= 1.00D-01 BMatC= 7.13D-01 BMatP= 4.45D+00
 IDIUse=3 WtCom= 7.63D-01 WtEn= 2.37D-01
 Coeff-Com: -0.186D-01 0.283D-01 0.233D-01-0.197D-01 0.178D+00-0.402D-02
 Coeff-Com:  0.115D-01 0.267D+00 0.535D+00
 Coeff-En:   0.000D+00 0.000D+00 0.000D+00 0.000D+00 0.000D+00 0.000D+00
 Coeff-En:   0.000D+00 0.183D+00 0.817D+00
 Coeff:     -0.142D-01 0.216D-01 0.178D-01-0.151D-01 0.136D+00-0.307D-02
 Coeff:      0.877D-02 0.247D+00 0.602D+00
 Gap=     0.061 Goal=   None    Shift=    0.000
 Gap=     0.191 Goal=   None    Shift=    0.000
 RMSDP=1.60D-03 MaxDP=1.17D-01 DE=-1.04D+00 OVMax= 3.39D-01

 Cycle  10  Pass 1  IDiag  1:
 RMSU=  1.19D-03    CP:  9.25D-01  2.11D+00  2.78D-01  3.68D-01  7.28D-01
                    CP:  2.02D-01  1.87D-01  6.51D-02  6.07D-01
 E= -3844.96317387632     Delta-E=       -0.114456377531 Rises=F Damp=F
 DIIS: error= 1.63D-02 at cycle  10 NSaved=  10.
 NSaved=10 IEnMin=10 EnMin= -3844.96317387632     IErMin=10 ErrMin= 1.63D-02
 ErrMax= 1.63D-02  0.00D+00 EMaxC= 1.00D-01 BMatC= 2.78D-01 BMatP= 7.13D-01
 IDIUse=3 WtCom= 8.37D-01 WtEn= 1.63D-01
 Coeff-Com: -0.239D-01 0.217D-01 0.639D-02-0.223D-02-0.351D-02-0.500D-02
 Coeff-Com: -0.276D-02 0.115D+00 0.422D+00 0.473D+00
 Coeff-En:   0.000D+00 0.000D+00 0.000D+00 0.000D+00 0.000D+00 0.000D+00
 Coeff-En:   0.000D+00 0.000D+00 0.238D+00 0.762D+00
 Coeff:     -0.200D-01 0.182D-01 0.535D-02-0.186D-02-0.294D-02-0.419D-02
 Coeff:     -0.231D-02 0.964D-01 0.392D+00 0.520D+00
 Gap=     0.088 Goal=   None    Shift=    0.000
 Gap=     0.190 Goal=   None    Shift=    0.000
 RMSDP=7.38D-04 MaxDP=2.78D-02 DE=-1.14D-01 OVMax= 9.94D-02

 Cycle  11  Pass 1  IDiag  1:
 RMSU=  6.45D-04    CP:  9.22D-01  2.16D+00  2.89D-01  3.66D-01  7.43D-01
                    CP:  2.03D-01  1.99D-01  1.20D-01  6.52D-01  7.59D-01
 E= -3844.99744136643     Delta-E=       -0.034267490114 Rises=F Damp=F
 DIIS: error= 1.02D-02 at cycle  11 NSaved=  11.
 NSaved=11 IEnMin=11 EnMin= -3844.99744136643     IErMin=11 ErrMin= 1.02D-02
 ErrMax= 1.02D-02  0.00D+00 EMaxC= 1.00D-01 BMatC= 1.04D-01 BMatP= 2.78D-01
 IDIUse=3 WtCom= 8.98D-01 WtEn= 1.02D-01
 Coeff-Com: -0.262D-01 0.291D-01-0.420D-03 0.123D-02-0.307D-01-0.126D-02
 Coeff-Com: -0.124D-02 0.103D-01 0.166D+00 0.404D+00 0.449D+00
 Coeff-En:   0.000D+00 0.000D+00 0.000D+00 0.000D+00 0.000D+00 0.000D+00
 Coeff-En:   0.000D+00 0.000D+00 0.000D+00 0.303D+00 0.697D+00
 Coeff:     -0.235D-01 0.261D-01-0.377D-03 0.110D-02-0.275D-01-0.114D-02
 Coeff:     -0.111D-02 0.926D-02 0.149D+00 0.394D+00 0.475D+00
 Gap=     0.115 Goal=   None    Shift=    0.000
 Gap=     0.184 Goal=   None    Shift=    0.000
 RMSDP=3.86D-04 MaxDP=2.09D-02 DE=-3.43D-02 OVMax= 4.07D-02

 Cycle  12  Pass 1  IDiag  1:
 RMSU=  3.08D-04    CP:  9.24D-01  2.15D+00  2.90D-01  3.69D-01  7.36D-01
                    CP:  2.02D-01  2.02D-01  9.14D-02  6.93D-01  8.66D-01
                    CP:  7.64D-01
 E= -3845.01681719913     Delta-E=       -0.019375832695 Rises=F Damp=F
 DIIS: error= 2.81D-03 at cycle  12 NSaved=  12.
 NSaved=12 IEnMin=12 EnMin= -3845.01681719913     IErMin=12 ErrMin= 2.81D-03
 ErrMax= 2.81D-03  0.00D+00 EMaxC= 1.00D-01 BMatC= 8.58D-03 BMatP= 1.04D-01
 IDIUse=3 WtCom= 9.72D-01 WtEn= 2.81D-02
 Coeff-Com: -0.191D-01 0.232D-01-0.122D-02 0.521D-03-0.107D-01-0.434D-03
 Coeff-Com:  0.984D-03-0.613D-02 0.528D-01 0.193D+00 0.292D+00 0.476D+00
 Coeff-En:   0.000D+00 0.000D+00 0.000D+00 0.000D+00 0.000D+00 0.000D+00
 Coeff-En:   0.000D+00 0.000D+00 0.000D+00 0.000D+00 0.000D+00 0.100D+01
 Coeff:     -0.186D-01 0.226D-01-0.119D-02 0.506D-03-0.104D-01-0.422D-03
 Coeff:      0.957D-03-0.596D-02 0.513D-01 0.187D+00 0.284D+00 0.490D+00
 Gap=     0.112 Goal=   None    Shift=    0.000
 Gap=     0.185 Goal=   None    Shift=    0.000
 RMSDP=1.91D-04 MaxDP=1.22D-02 DE=-1.94D-02 OVMax= 2.24D-02

 Cycle  13  Pass 1  IDiag  1:
 RMSU=  1.56D-04    CP:  9.25D-01  2.13D+00  2.87D-01  3.77D-01  7.22D-01
                    CP:  2.01D-01  2.04D-01  8.44D-02  6.93D-01  9.18D-01
                    CP:  7.70D-01  8.97D-01
 E= -3845.01852866446     Delta-E=       -0.001711465332 Rises=F Damp=F
 DIIS: error= 1.22D-03 at cycle  13 NSaved=  13.
 NSaved=13 IEnMin=13 EnMin= -3845.01852866446     IErMin=13 ErrMin= 1.22D-03
 ErrMax= 1.22D-03  0.00D+00 EMaxC= 1.00D-01 BMatC= 1.93D-03 BMatP= 8.58D-03
 IDIUse=3 WtCom= 9.88D-01 WtEn= 1.22D-02
 Coeff-Com: -0.397D-02 0.487D-02 0.184D-03 0.470D-03 0.469D-02 0.223D-03
 Coeff-Com:  0.148D-02-0.567D-02-0.637D-02-0.186D-01-0.756D-02 0.296D+00
 Coeff-Com:  0.734D+00
 Coeff-En:   0.000D+00 0.000D+00 0.000D+00 0.000D+00 0.000D+00 0.000D+00
 Coeff-En:   0.000D+00 0.000D+00 0.000D+00 0.000D+00 0.000D+00 0.708D-01
 Coeff-En:   0.929D+00
 Coeff:     -0.392D-02 0.481D-02 0.182D-03 0.464D-03 0.463D-02 0.220D-03
 Coeff:      0.146D-02-0.560D-02-0.629D-02-0.184D-01-0.747D-02 0.294D+00
 Coeff:      0.736D+00
 Gap=     0.115 Goal=   None    Shift=    0.000
 Gap=     0.185 Goal=   None    Shift=    0.000
 RMSDP=1.04D-04 MaxDP=7.15D-03 DE=-1.71D-03 OVMax= 2.36D-02

 Cycle  14  Pass 1  IDiag  1:
 RMSU=  5.14D-05    CP:  9.25D-01  2.15D+00  2.89D-01  3.79D-01  7.24D-01
                    CP:  2.00D-01  2.05D-01  8.10D-02  6.96D-01  9.20D-01
                    CP:  8.11D-01  1.14D+00  1.13D+00
 E= -3845.01915438791     Delta-E=       -0.000625723453 Rises=F Damp=F
 DIIS: error= 2.97D-04 at cycle  14 NSaved=  14.
 NSaved=14 IEnMin=14 EnMin= -3845.01915438791     IErMin=14 ErrMin= 2.97D-04
 ErrMax= 2.97D-04  0.00D+00 EMaxC= 1.00D-01 BMatC= 1.52D-04 BMatP= 1.93D-03
 IDIUse=3 WtCom= 9.97D-01 WtEn= 2.97D-03
 Coeff-Com: -0.458D-03 0.623D-03 0.598D-03-0.195D-03 0.187D-02 0.434D-04
 Coeff-Com:  0.894D-05-0.491D-03-0.473D-02-0.225D-01-0.360D-01 0.467D-01
 Coeff-Com:  0.256D+00 0.759D+00
 Coeff-En:   0.000D+00 0.000D+00 0.000D+00 0.000D+00 0.000D+00 0.000D+00
 Coeff-En:   0.000D+00 0.000D+00 0.000D+00 0.000D+00 0.000D+00 0.000D+00
 Coeff-En:   0.000D+00 0.100D+01
 Coeff:     -0.457D-03 0.621D-03 0.596D-03-0.195D-03 0.187D-02 0.433D-04
 Coeff:      0.892D-05-0.490D-03-0.472D-02-0.224D-01-0.359D-01 0.465D-01
 Coeff:      0.255D+00 0.759D+00
 Gap=     0.115 Goal=   None    Shift=    0.000
 Gap=     0.186 Goal=   None    Shift=    0.000
 RMSDP=4.66D-05 MaxDP=1.70D-03 DE=-6.26D-04 OVMax= 1.38D-02

 Cycle  15  Pass 1  IDiag  1:
 RMSU=  3.40D-05    CP:  9.25D-01  2.15D+00  2.89D-01  3.79D-01  7.25D-01
                    CP:  2.00D-01  2.06D-01  8.32D-02  6.93D-01  9.21D-01
                    CP:  8.31D-01  1.20D+00  1.21D+00  1.29D+00
 E= -3845.01924976620     Delta-E=       -0.000095378288 Rises=F Damp=F
 DIIS: error= 2.92D-04 at cycle  15 NSaved=  15.
 NSaved=15 IEnMin=15 EnMin= -3845.01924976620     IErMin=15 ErrMin= 2.92D-04
 ErrMax= 2.92D-04  0.00D+00 EMaxC= 1.00D-01 BMatC= 1.38D-04 BMatP= 1.52D-04
 IDIUse=3 WtCom= 9.97D-01 WtEn= 2.92D-03
 Coeff-Com:  0.323D-03-0.433D-03 0.344D-03-0.861D-04-0.513D-03-0.143D-03
 Coeff-Com: -0.550D-04 0.872D-03-0.160D-02-0.877D-02-0.208D-01-0.272D-01
 Coeff-Com:  0.445D-01 0.543D+00 0.470D+00
 Coeff-En:   0.000D+00 0.000D+00 0.000D+00 0.000D+00 0.000D+00 0.000D+00
 Coeff-En:   0.000D+00 0.000D+00 0.000D+00 0.000D+00 0.000D+00 0.000D+00
 Coeff-En:   0.000D+00 0.000D+00 0.100D+01
 Coeff:      0.322D-03-0.431D-03 0.343D-03-0.858D-04-0.511D-03-0.143D-03
 Coeff:     -0.548D-04 0.870D-03-0.159D-02-0.875D-02-0.207D-01-0.271D-01
 Coeff:      0.443D-01 0.542D+00 0.472D+00
 Gap=     0.115 Goal=   None    Shift=    0.000
 Gap=     0.187 Goal=   None    Shift=    0.000
 RMSDP=2.49D-05 MaxDP=8.44D-04 DE=-9.54D-05 OVMax= 7.17D-03

 Cycle  16  Pass 1  IDiag  1:
 RMSU=  1.57D-05    CP:  9.25D-01  2.15D+00  2.89D-01  3.79D-01  7.24D-01
                    CP:  2.00D-01  2.08D-01  8.34D-02  6.92D-01  9.24D-01
                    CP:  8.34D-01  1.22D+00  1.28D+00  1.52D+00  1.16D+00
 E= -3845.01930291486     Delta-E=       -0.000053148656 Rises=F Damp=F
 DIIS: error= 1.74D-04 at cycle  16 NSaved=  16.
 NSaved=16 IEnMin=16 EnMin= -3845.01930291486     IErMin=16 ErrMin= 1.74D-04
 ErrMax= 1.74D-04  0.00D+00 EMaxC= 1.00D-01 BMatC= 3.31D-05 BMatP= 1.38D-04
 IDIUse=3 WtCom= 9.98D-01 WtEn= 1.74D-03
 Coeff-Com:  0.609D-03-0.798D-03-0.758D-04-0.299D-04-0.102D-02 0.632D-04
 Coeff-Com:  0.112D-03 0.427D-03 0.118D-02 0.556D-02 0.439D-02-0.355D-01
 Coeff-Com: -0.728D-01 0.236D-01 0.319D+00 0.755D+00
 Coeff-En:   0.000D+00 0.000D+00 0.000D+00 0.000D+00 0.000D+00 0.000D+00
 Coeff-En:   0.000D+00 0.000D+00 0.000D+00 0.000D+00 0.000D+00 0.000D+00
 Coeff-En:   0.000D+00 0.000D+00 0.000D+00 0.100D+01
 Coeff:      0.608D-03-0.796D-03-0.757D-04-0.299D-04-0.102D-02 0.631D-04
 Coeff:      0.112D-03 0.426D-03 0.117D-02 0.555D-02 0.439D-02-0.355D-01
 Coeff:     -0.727D-01 0.235D-01 0.319D+00 0.755D+00
 Gap=     0.115 Goal=   None    Shift=    0.000
 Gap=     0.187 Goal=   None    Shift=    0.000
 RMSDP=2.71D-05 MaxDP=1.40D-03 DE=-5.31D-05 OVMax= 9.15D-03

 Cycle  17  Pass 1  IDiag  1:
 RMSU=  1.41D-05    CP:  9.25D-01  2.15D+00  2.89D-01  3.79D-01  7.23D-01
                    CP:  2.01D-01  2.08D-01  8.33D-02  6.92D-01  9.24D-01
                    CP:  8.38D-01  1.24D+00  1.35D+00  1.79D+00  1.53D+00
                    CP:  1.25D+00
 E= -3845.01933688685     Delta-E=       -0.000033971990 Rises=F Damp=F
 DIIS: error= 1.27D-04 at cycle  17 NSaved=  17.
 NSaved=17 IEnMin=17 EnMin= -3845.01933688685     IErMin=17 ErrMin= 1.27D-04
 ErrMax= 1.27D-04  0.00D+00 EMaxC= 1.00D-01 BMatC= 1.15D-05 BMatP= 3.31D-05
 IDIUse=3 WtCom= 9.99D-01 WtEn= 1.27D-03
 Coeff-Com:  0.534D-03-0.628D-03-0.124D-03 0.532D-05-0.328D-03 0.330D-04
 Coeff-Com:  0.223D-04-0.251D-03 0.160D-02 0.643D-02 0.966D-02-0.860D-02
 Coeff-Com: -0.580D-01-0.175D+00-0.207D-02 0.405D+00 0.822D+00
 Coeff-En:   0.000D+00 0.000D+00 0.000D+00 0.000D+00 0.000D+00 0.000D+00
 Coeff-En:   0.000D+00 0.000D+00 0.000D+00 0.000D+00 0.000D+00 0.000D+00
 Coeff-En:   0.000D+00 0.000D+00 0.000D+00 0.000D+00 0.100D+01
 Coeff:      0.534D-03-0.627D-03-0.124D-03 0.531D-05-0.328D-03 0.330D-04
 Coeff:      0.223D-04-0.250D-03 0.160D-02 0.643D-02 0.964D-02-0.859D-02
 Coeff:     -0.579D-01-0.175D+00-0.207D-02 0.404D+00 0.823D+00
 Gap=     0.115 Goal=   None    Shift=    0.000
 Gap=     0.187 Goal=   None    Shift=    0.000
 RMSDP=2.29D-05 MaxDP=1.05D-03 DE=-3.40D-05 OVMax= 8.31D-03

 Cycle  18  Pass 1  IDiag  1:
 RMSU=  7.97D-06    CP:  9.25D-01  2.15D+00  2.89D-01  3.79D-01  7.23D-01
                    CP:  2.01D-01  2.09D-01  8.35D-02  6.92D-01  9.23D-01
                    CP:  8.42D-01  1.25D+00  1.39D+00  1.99D+00  1.94D+00
                    CP:  1.79D+00  1.29D+00
 E= -3845.01935439491     Delta-E=       -0.000017508062 Rises=F Damp=F
 DIIS: error= 9.07D-05 at cycle  18 NSaved=  18.
 NSaved=18 IEnMin=18 EnMin= -3845.01935439491     IErMin=18 ErrMin= 9.07D-05
 ErrMax= 9.07D-05  0.00D+00 EMaxC= 1.00D-01 BMatC= 7.84D-06 BMatP= 1.15D-05
 IDIUse=1 WtCom= 1.00D+00 WtEn= 0.00D+00
 Coeff-Com:  0.383D-03-0.418D-03-0.904D-04 0.205D-04 0.274D-04-0.176D-04
 Coeff-Com: -0.440D-04-0.397D-03 0.128D-02 0.362D-02 0.594D-02 0.253D-02
 Coeff-Com: -0.289D-01-0.138D+00-0.104D+00 0.768D-01 0.613D+00 0.568D+00
 Coeff:      0.383D-03-0.418D-03-0.904D-04 0.205D-04 0.274D-04-0.176D-04
 Coeff:     -0.440D-04-0.397D-03 0.128D-02 0.362D-02 0.594D-02 0.253D-02
 Coeff:     -0.289D-01-0.138D+00-0.104D+00 0.768D-01 0.613D+00 0.568D+00
 Gap=     0.115 Goal=   None    Shift=    0.000
 Gap=     0.187 Goal=   None    Shift=    0.000
 RMSDP=1.36D-05 MaxDP=7.23D-04 DE=-1.75D-05 OVMax= 5.14D-03

 Cycle  19  Pass 1  IDiag  1:
 RMSU=  4.53D-06    CP:  9.25D-01  2.15D+00  2.89D-01  3.79D-01  7.23D-01
                    CP:  2.00D-01  2.09D-01  8.35D-02  6.91D-01  9.23D-01
                    CP:  8.44D-01  1.26D+00  1.41D+00  2.10D+00  2.16D+00
                    CP:  2.09D+00  1.62D+00  1.33D+00
 E= -3845.01936152379     Delta-E=       -0.000007128878 Rises=F Damp=F
 DIIS: error= 6.70D-05 at cycle  19 NSaved=  19.
 NSaved=19 IEnMin=19 EnMin= -3845.01936152379     IErMin=19 ErrMin= 6.70D-05
 ErrMax= 6.70D-05  0.00D+00 EMaxC= 1.00D-01 BMatC= 4.35D-06 BMatP= 7.84D-06
 IDIUse=1 WtCom= 1.00D+00 WtEn= 0.00D+00
 Coeff-Com:  0.223D-03-0.228D-03-0.508D-04 0.935D-05 0.210D-03-0.168D-04
 Coeff-Com: -0.596D-04-0.374D-03 0.702D-03 0.766D-03 0.114D-02 0.483D-02
 Coeff-Com: -0.451D-02-0.424D-01-0.923D-01-0.102D+00 0.157D+00 0.491D+00
 Coeff-Com:  0.586D+00
 Coeff:      0.223D-03-0.228D-03-0.508D-04 0.935D-05 0.210D-03-0.168D-04
 Coeff:     -0.596D-04-0.374D-03 0.702D-03 0.766D-03 0.114D-02 0.483D-02
 Coeff:     -0.451D-02-0.424D-01-0.923D-01-0.102D+00 0.157D+00 0.491D+00
 Coeff:      0.586D+00
 Gap=     0.115 Goal=   None    Shift=    0.000
 Gap=     0.187 Goal=   None    Shift=    0.000
 RMSDP=1.06D-05 MaxDP=6.43D-04 DE=-7.13D-06 OVMax= 4.15D-03

 Cycle  20  Pass 1  IDiag  1:
 RMSU=  3.04D-06    CP:  9.25D-01  2.15D+00  2.89D-01  3.79D-01  7.23D-01
                    CP:  2.00D-01  2.09D-01  8.35D-02  6.91D-01  9.23D-01
                    CP:  8.45D-01  1.27D+00  1.43D+00  2.18D+00  2.30D+00
                    CP:  2.34D+00  1.97D+00  1.73D+00  1.16D+00
 E= -3845.01936554219     Delta-E=       -0.000004018402 Rises=F Damp=F
 DIIS: error= 4.26D-05 at cycle  20 NSaved=  20.
 NSaved=20 IEnMin=20 EnMin= -3845.01936554219     IErMin=20 ErrMin= 4.26D-05
 ErrMax= 4.26D-05  0.00D+00 EMaxC= 1.00D-01 BMatC= 1.09D-06 BMatP= 4.35D-06
 IDIUse=1 WtCom= 1.00D+00 WtEn= 0.00D+00
 Coeff-Com:  0.763D-04-0.899D-04-0.338D-05 0.745D-07 0.137D-03 0.613D-05
 Coeff-Com:  0.233D-05-0.168D-03-0.204D-03-0.865D-03-0.204D-02-0.867D-03
 Coeff-Com:  0.952D-02 0.490D-01 0.191D-01-0.418D-01-0.251D+00-0.158D+00
 Coeff-Com:  0.209D+00 0.117D+01
 Coeff:      0.763D-04-0.899D-04-0.338D-05 0.745D-07 0.137D-03 0.613D-05
 Coeff:      0.233D-05-0.168D-03-0.204D-03-0.865D-03-0.204D-02-0.867D-03
 Coeff:      0.952D-02 0.490D-01 0.191D-01-0.418D-01-0.251D+00-0.158D+00
 Coeff:      0.209D+00 0.117D+01
 Gap=     0.115 Goal=   None    Shift=    0.000
 Gap=     0.187 Goal=   None    Shift=    0.000
 RMSDP=1.08D-05 MaxDP=5.92D-04 DE=-4.02D-06 OVMax= 4.33D-03

 Cycle  21  Pass 1  IDiag  1:
 Restarting incremental Fock formation.
 E= -3845.01936795547     Delta-E=       -0.000002413281 Rises=F Damp=F
 DIIS: error= 2.08D-05 at cycle  21 NSaved=  20.
 NSaved=20 IEnMin=20 EnMin= -3845.01936795547     IErMin=20 ErrMin= 2.08D-05
 ErrMax= 2.08D-05  0.00D+00 EMaxC= 1.00D-01 BMatC= 2.25D-07 BMatP= 1.09D-06
 IDIUse=1 WtCom= 1.00D+00 WtEn= 0.00D+00
 Coeff-Com: -0.239D-04 0.281D-04 0.325D-05 0.442D-04 0.128D-05-0.482D-05
 Coeff-Com:  0.557D-04-0.294D-03-0.587D-03-0.130D-02-0.145D-02 0.391D-02
 Coeff-Com:  0.263D-01 0.290D-01 0.101D-01-0.875D-01-0.149D+00-0.121D+00
 Coeff-Com:  0.164D+00 0.113D+01
 Coeff:     -0.239D-04 0.281D-04 0.325D-05 0.442D-04 0.128D-05-0.482D-05
 Coeff:      0.557D-04-0.294D-03-0.587D-03-0.130D-02-0.145D-02 0.391D-02
 Coeff:      0.263D-01 0.290D-01 0.101D-01-0.875D-01-0.149D+00-0.121D+00
 Coeff:      0.164D+00 0.113D+01
 Gap=     0.115 Goal=   None    Shift=    0.000
 Gap=     0.187 Goal=   None    Shift=    0.000
 RMSDP=6.03D-06 MaxDP=3.16D-04 DE=-2.41D-06 OVMax= 2.38D-03

 Cycle  22  Pass 1  IDiag  1:
 RMSU=  6.03D-06    CP:  1.00D+00
 E= -3845.01936870468     Delta-E=       -0.000000749208 Rises=F Damp=F
 DIIS: error= 1.23D-05 at cycle  22 NSaved=  20.
 NSaved=20 IEnMin=20 EnMin= -3845.01936870468     IErMin=20 ErrMin= 1.23D-05
 ErrMax= 1.23D-05  0.00D+00 EMaxC= 1.00D-01 BMatC= 7.08D-08 BMatP= 2.25D-07
 IDIUse=1 WtCom= 1.00D+00 WtEn= 0.00D+00
 Coeff-Com: -0.248D-04 0.291D-04 0.110D-04-0.330D-04 0.370D-05 0.536D-04
 Coeff-Com: -0.102D-03 0.300D-04 0.116D-03 0.130D-02-0.183D-03-0.887D-02
 Coeff-Com: -0.461D-02-0.105D-02 0.608D-01 0.441D-01-0.713D-01-0.355D+00
 Coeff-Com:  0.177D+00 0.116D+01
 Coeff:     -0.248D-04 0.291D-04 0.110D-04-0.330D-04 0.370D-05 0.536D-04
 Coeff:     -0.102D-03 0.300D-04 0.116D-03 0.130D-02-0.183D-03-0.887D-02
 Coeff:     -0.461D-02-0.105D-02 0.608D-01 0.441D-01-0.713D-01-0.355D+00
 Coeff:      0.177D+00 0.116D+01
 Gap=     0.115 Goal=   None    Shift=    0.000
 Gap=     0.187 Goal=   None    Shift=    0.000
 RMSDP=3.80D-06 MaxDP=1.67D-04 DE=-7.49D-07 OVMax= 1.47D-03

 Cycle  23  Pass 1  IDiag  1:
 RMSU=  9.71D-07    CP:  1.00D+00  1.61D+00
 E= -3845.01936895474     Delta-E=       -0.000000250058 Rises=F Damp=F
 DIIS: error= 5.34D-06 at cycle  23 NSaved=  20.
 NSaved=20 IEnMin=20 EnMin= -3845.01936895474     IErMin=20 ErrMin= 5.34D-06
 ErrMax= 5.34D-06  0.00D+00 EMaxC= 1.00D-01 BMatC= 2.08D-08 BMatP= 7.08D-08
 IDIUse=1 WtCom= 1.00D+00 WtEn= 0.00D+00
 Coeff-Com: -0.724D-05 0.666D-05-0.318D-04 0.151D-04-0.120D-04 0.883D-05
 Coeff-Com:  0.118D-03 0.308D-03 0.107D-02 0.352D-03-0.876D-02-0.970D-02
 Coeff-Com: -0.570D-02 0.281D-01 0.411D-01 0.234D-01-0.603D-01-0.310D+00
 Coeff-Com:  0.455D-01 0.125D+01
 Coeff:     -0.724D-05 0.666D-05-0.318D-04 0.151D-04-0.120D-04 0.883D-05
 Coeff:      0.118D-03 0.308D-03 0.107D-02 0.352D-03-0.876D-02-0.970D-02
 Coeff:     -0.570D-02 0.281D-01 0.411D-01 0.234D-01-0.603D-01-0.310D+00
 Coeff:      0.455D-01 0.125D+01
 Gap=     0.115 Goal=   None    Shift=    0.000
 Gap=     0.187 Goal=   None    Shift=    0.000
 RMSDP=2.28D-06 MaxDP=9.90D-05 DE=-2.50D-07 OVMax= 8.71D-04

 Cycle  24  Pass 1  IDiag  1:
 RMSU=  5.46D-07    CP:  1.00D+00  1.97D+00  1.57D+00
 E= -3845.01936901742     Delta-E=       -0.000000062684 Rises=F Damp=F
 DIIS: error= 1.41D-06 at cycle  24 NSaved=  20.
 NSaved=20 IEnMin=20 EnMin= -3845.01936901742     IErMin=20 ErrMin= 1.41D-06
 ErrMax= 1.41D-06  0.00D+00 EMaxC= 1.00D-01 BMatC= 2.15D-09 BMatP= 2.08D-08
 IDIUse=1 WtCom= 1.00D+00 WtEn= 0.00D+00
 Coeff-Com:  0.425D-05-0.566D-05-0.116D-05-0.110D-05 0.160D-04-0.330D-04
 Coeff-Com: -0.331D-04 0.116D-03 0.251D-03-0.893D-03-0.233D-02-0.235D-02
 Coeff-Com:  0.468D-02 0.765D-02 0.726D-02 0.629D-03-0.782D-01-0.109D+00
 Coeff-Com:  0.288D+00 0.884D+00
 Coeff:      0.425D-05-0.566D-05-0.116D-05-0.110D-05 0.160D-04-0.330D-04
 Coeff:     -0.331D-04 0.116D-03 0.251D-03-0.893D-03-0.233D-02-0.235D-02
 Coeff:      0.468D-02 0.765D-02 0.726D-02 0.629D-03-0.782D-01-0.109D+00
 Coeff:      0.288D+00 0.884D+00
 Gap=     0.115 Goal=   None    Shift=    0.000
 Gap=     0.187 Goal=   None    Shift=    0.000
 RMSDP=6.15D-07 MaxDP=3.78D-05 DE=-6.27D-08 OVMax= 2.23D-04

 Cycle  25  Pass 1  IDiag  1:
 RMSU=  2.02D-07    CP:  1.00D+00  2.06D+00  1.72D+00  1.02D+00
 E= -3845.01936902332     Delta-E=       -0.000000005899 Rises=F Damp=F
 DIIS: error= 1.15D-06 at cycle  25 NSaved=  20.
 NSaved=20 IEnMin=20 EnMin= -3845.01936902332     IErMin=20 ErrMin= 1.15D-06
 ErrMax= 1.15D-06  0.00D+00 EMaxC= 1.00D-01 BMatC= 6.01D-10 BMatP= 2.15D-09
 IDIUse=1 WtCom= 1.00D+00 WtEn= 0.00D+00
 Coeff-Com:  0.370D-06 0.228D-05 0.154D-05-0.167D-05-0.195D-04-0.318D-04
 Coeff-Com: -0.256D-04 0.133D-03 0.931D-03 0.774D-03 0.319D-03-0.271D-02
 Coeff-Com: -0.310D-02-0.164D-02 0.294D-02 0.201D-01-0.128D-01-0.826D-01
 Coeff-Com:  0.998D-01 0.978D+00
 Coeff:      0.370D-06 0.228D-05 0.154D-05-0.167D-05-0.195D-04-0.318D-04
 Coeff:     -0.256D-04 0.133D-03 0.931D-03 0.774D-03 0.319D-03-0.271D-02
 Coeff:     -0.310D-02-0.164D-02 0.294D-02 0.201D-01-0.128D-01-0.826D-01
 Coeff:      0.998D-01 0.978D+00
 Gap=     0.115 Goal=   None    Shift=    0.000
 Gap=     0.187 Goal=   None    Shift=    0.000
 RMSDP=1.89D-07 MaxDP=9.96D-06 DE=-5.90D-09 OVMax= 8.08D-05

 Cycle  26  Pass 1  IDiag  1:
 RMSU=  1.04D-07    CP:  1.00D+00  2.07D+00  1.78D+00  1.14D+00  1.49D+00
 E= -3845.01936902518     Delta-E=       -0.000000001860 Rises=F Damp=F
 DIIS: error= 9.71D-07 at cycle  26 NSaved=  20.
 NSaved=20 IEnMin=20 EnMin= -3845.01936902518     IErMin=20 ErrMin= 9.71D-07
 ErrMax= 9.71D-07  0.00D+00 EMaxC= 1.00D-01 BMatC= 4.24D-10 BMatP= 6.01D-10
 IDIUse=1 WtCom= 1.00D+00 WtEn= 0.00D+00
 Coeff-Com:  0.409D-06-0.145D-05-0.170D-05 0.469D-05-0.895D-05-0.128D-03
 Coeff-Com: -0.184D-03 0.558D-03 0.101D-02 0.106D-02-0.391D-02-0.356D-02
 Coeff-Com:  0.636D-03 0.115D-01 0.379D-01 0.102D-01-0.166D+00-0.278D+00
 Coeff-Com:  0.177D+00 0.121D+01
 Coeff:      0.409D-06-0.145D-05-0.170D-05 0.469D-05-0.895D-05-0.128D-03
 Coeff:     -0.184D-03 0.558D-03 0.101D-02 0.106D-02-0.391D-02-0.356D-02
 Coeff:      0.636D-03 0.115D-01 0.379D-01 0.102D-01-0.166D+00-0.278D+00
 Coeff:      0.177D+00 0.121D+01
 Gap=     0.115 Goal=   None    Shift=    0.000
 Gap=     0.187 Goal=   None    Shift=    0.000
 RMSDP=2.12D-07 MaxDP=1.36D-05 DE=-1.86D-09 OVMax= 1.04D-04

 Cycle  27  Pass 1  IDiag  1:
 RMSU=  7.45D-08    CP:  1.00D+00  2.07D+00  1.85D+00  1.29D+00  2.23D+00
                    CP:  1.74D+00
 E= -3845.01936902690     Delta-E=       -0.000000001724 Rises=F Damp=F
 DIIS: error= 7.33D-07 at cycle  27 NSaved=  20.
 NSaved=20 IEnMin=20 EnMin= -3845.01936902690     IErMin=20 ErrMin= 7.33D-07
 ErrMax= 7.33D-07  0.00D+00 EMaxC= 1.00D-01 BMatC= 1.74D-10 BMatP= 4.24D-10
 IDIUse=1 WtCom= 1.00D+00 WtEn= 0.00D+00
 Coeff-Com:  0.848D-06-0.554D-05 0.774D-05 0.212D-04 0.629D-04 0.401D-04
 Coeff-Com: -0.342D-03-0.292D-03-0.269D-03 0.138D-02 0.104D-02-0.678D-03
 Coeff-Com: -0.478D-02-0.189D-01 0.175D-01 0.838D-01-0.417D-01-0.455D+00
 Coeff-Com: -0.210D+00 0.163D+01
 Coeff:      0.848D-06-0.554D-05 0.774D-05 0.212D-04 0.629D-04 0.401D-04
 Coeff:     -0.342D-03-0.292D-03-0.269D-03 0.138D-02 0.104D-02-0.678D-03
 Coeff:     -0.478D-02-0.189D-01 0.175D-01 0.838D-01-0.417D-01-0.455D+00
 Coeff:     -0.210D+00 0.163D+01
 Gap=     0.115 Goal=   None    Shift=    0.000
 Gap=     0.187 Goal=   None    Shift=    0.000
 RMSDP=2.16D-07 MaxDP=1.26D-05 DE=-1.72D-09 OVMax= 1.12D-04

 Cycle  28  Pass 1  IDiag  1:
 RMSU=  4.56D-08    CP:  1.00D+00  2.08D+00  1.88D+00  1.39D+00  2.92D+00
                    CP:  2.84D+00  2.19D+00
 E= -3845.01936902819     Delta-E=       -0.000000001282 Rises=F Damp=F
 DIIS: error= 4.67D-07 at cycle  28 NSaved=  20.
 NSaved=20 IEnMin=20 EnMin= -3845.01936902819     IErMin=20 ErrMin= 4.67D-07
 ErrMax= 4.67D-07  0.00D+00 EMaxC= 1.00D-01 BMatC= 5.86D-11 BMatP= 1.74D-10
 IDIUse=1 WtCom= 1.00D+00 WtEn= 0.00D+00
 Coeff-Com:  0.134D-05-0.557D-05-0.593D-05 0.438D-04 0.995D-04-0.300D-04
 Coeff-Com: -0.471D-03-0.713D-03 0.119D-02 0.129D-02 0.656D-04-0.309D-02
 Coeff-Com: -0.778D-02-0.280D-02 0.325D-01 0.682D-01 0.223D-01-0.281D+00
 Coeff-Com: -0.430D+00 0.160D+01
 Coeff:      0.134D-05-0.557D-05-0.593D-05 0.438D-04 0.995D-04-0.300D-04
 Coeff:     -0.471D-03-0.713D-03 0.119D-02 0.129D-02 0.656D-04-0.309D-02
 Coeff:     -0.778D-02-0.280D-02 0.325D-01 0.682D-01 0.223D-01-0.281D+00
 Coeff:     -0.430D+00 0.160D+01
 Gap=     0.115 Goal=   None    Shift=    0.000
 Gap=     0.187 Goal=   None    Shift=    0.000
 RMSDP=1.60D-07 MaxDP=8.30D-06 DE=-1.28D-09 OVMax= 8.45D-05

 Cycle  29  Pass 1  IDiag  1:
 RMSU=  1.04D-07    CP:  1.00D+00  2.08D+00  1.90D+00  1.45D+00  3.00D+00
                    CP:  3.00D+00  3.00D+00  2.01D+00
 E= -3845.01936902879     Delta-E=       -0.000000000609 Rises=F Damp=F
 DIIS: error= 2.63D-07 at cycle  29 NSaved=  20.
 NSaved=20 IEnMin=20 EnMin= -3845.01936902879     IErMin=20 ErrMin= 2.63D-07
 ErrMax= 2.63D-07  0.00D+00 EMaxC= 1.00D-01 BMatC= 2.71D-11 BMatP= 5.86D-11
 IDIUse=1 WtCom= 1.00D+00 WtEn= 0.00D+00
 Coeff-Com: -0.737D-05-0.977D-05-0.399D-04-0.316D-04 0.138D-04 0.281D-03
 Coeff-Com:  0.573D-03-0.441D-03-0.106D-02-0.634D-03 0.190D-02 0.959D-02
 Coeff-Com: -0.105D-01-0.325D-01 0.455D-01 0.178D+00 0.144D-02-0.677D+00
 Coeff-Com:  0.788D-01 0.141D+01
 Coeff:     -0.737D-05-0.977D-05-0.399D-04-0.316D-04 0.138D-04 0.281D-03
 Coeff:      0.573D-03-0.441D-03-0.106D-02-0.634D-03 0.190D-02 0.959D-02
 Coeff:     -0.105D-01-0.325D-01 0.455D-01 0.178D+00 0.144D-02-0.677D+00
 Coeff:      0.788D-01 0.141D+01
 Gap=     0.115 Goal=   None    Shift=    0.000
 Gap=     0.187 Goal=   None    Shift=    0.000
 RMSDP=1.24D-07 MaxDP=5.80D-06 DE=-6.09D-10 OVMax= 6.50D-05

 Cycle  30  Pass 1  IDiag  1:
 RMSU=  4.51D-08    CP:  1.00D+00  2.08D+00  1.91D+00  1.49D+00  3.00D+00
                    CP:  3.00D+00  3.00D+00  3.00D+00  1.95D+00
 E= -3845.01936902904     Delta-E=       -0.000000000245 Rises=F Damp=F
 DIIS: error= 1.07D-07 at cycle  30 NSaved=  20.
 NSaved=20 IEnMin=20 EnMin= -3845.01936902904     IErMin=20 ErrMin= 1.07D-07
 ErrMax= 1.07D-07  0.00D+00 EMaxC= 1.00D-01 BMatC= 6.96D-12 BMatP= 2.71D-11
 IDIUse=1 WtCom= 1.00D+00 WtEn= 0.00D+00
 Coeff-Com:  0.217D-06-0.101D-04-0.272D-04 0.206D-04 0.194D-03 0.288D-03
 Coeff-Com: -0.502D-03-0.426D-03 0.948D-04 0.125D-02 0.505D-02-0.176D-02
 Coeff-Com: -0.234D-01-0.485D-02 0.862D-01 0.810D-01-0.109D+00-0.542D+00
 Coeff-Com:  0.320D+00 0.119D+01
 Coeff:      0.217D-06-0.101D-04-0.272D-04 0.206D-04 0.194D-03 0.288D-03
 Coeff:     -0.502D-03-0.426D-03 0.948D-04 0.125D-02 0.505D-02-0.176D-02
 Coeff:     -0.234D-01-0.485D-02 0.862D-01 0.810D-01-0.109D+00-0.542D+00
 Coeff:      0.320D+00 0.119D+01
 Gap=     0.115 Goal=   None    Shift=    0.000
 Gap=     0.187 Goal=   None    Shift=    0.000
 RMSDP=7.38D-08 MaxDP=3.43D-06 DE=-2.45D-10 OVMax= 3.77D-05

 Cycle  31  Pass 1  IDiag  1:
 RMSU=  3.25D-08    CP:  1.00D+00  2.08D+00  1.92D+00  1.52D+00  3.00D+00
                    CP:  3.00D+00  3.00D+00  3.00D+00  2.48D+00  1.71D+00
 E= -3845.01936902910     Delta-E=       -0.000000000065 Rises=F Damp=F
 DIIS: error= 3.34D-08 at cycle  31 NSaved=  20.
 NSaved=20 IEnMin=20 EnMin= -3845.01936902910     IErMin=20 ErrMin= 3.34D-08
 ErrMax= 3.34D-08  0.00D+00 EMaxC= 1.00D-01 BMatC= 1.01D-12 BMatP= 6.96D-12
 IDIUse=1 WtCom= 1.00D+00 WtEn= 0.00D+00
 Coeff-Com:  0.774D-05 0.127D-04 0.204D-04-0.517D-04-0.144D-03 0.371D-04
 Coeff-Com:  0.154D-03 0.131D-03-0.125D-03-0.101D-02 0.136D-02 0.246D-02
 Coeff-Com: -0.568D-02-0.174D-01-0.113D-01 0.109D+00-0.423D-01-0.179D+00
 Coeff-Com:  0.362D-01 0.111D+01
 Coeff:      0.774D-05 0.127D-04 0.204D-04-0.517D-04-0.144D-03 0.371D-04
 Coeff:      0.154D-03 0.131D-03-0.125D-03-0.101D-02 0.136D-02 0.246D-02
 Coeff:     -0.568D-02-0.174D-01-0.113D-01 0.109D+00-0.423D-01-0.179D+00
 Coeff:      0.362D-01 0.111D+01
 Gap=     0.115 Goal=   None    Shift=    0.000
 Gap=     0.187 Goal=   None    Shift=    0.000
 RMSDP=1.37D-08 MaxDP=5.97D-07 DE=-6.55D-11 OVMax= 6.54D-06

 Cycle  32  Pass 1  IDiag  1:
 RMSU=  4.59D-09    CP:  1.00D+00  2.08D+00  1.92D+00  1.53D+00  3.00D+00
                    CP:  3.00D+00  3.00D+00  3.00D+00  2.57D+00  1.80D+00
                    CP:  1.19D+00
 E= -3845.01936902908     Delta-E=        0.000000000027 Rises=F Damp=F
 DIIS: error= 1.42D-08 at cycle  32 NSaved=  20.
 NSaved=20 IEnMin=19 EnMin= -3845.01936902910     IErMin=20 ErrMin= 1.42D-08
 ErrMax= 1.42D-08  0.00D+00 EMaxC= 1.00D-01 BMatC= 2.66D-13 BMatP= 1.01D-12
 IDIUse=1 WtCom= 1.00D+00 WtEn= 0.00D+00
 Coeff-Com:  0.394D-05 0.267D-04-0.171D-05-0.496D-04-0.593D-04-0.408D-04
 Coeff-Com:  0.428D-04 0.271D-03 0.292D-04 0.331D-03 0.164D-03-0.536D-02
 Coeff-Com: -0.111D-01 0.191D-02 0.425D-01 0.261D-01-0.857D-01-0.114D+00
 Coeff-Com:  0.355D+00 0.789D+00
 Coeff:      0.394D-05 0.267D-04-0.171D-05-0.496D-04-0.593D-04-0.408D-04
 Coeff:      0.428D-04 0.271D-03 0.292D-04 0.331D-03 0.164D-03-0.536D-02
 Coeff:     -0.111D-01 0.191D-02 0.425D-01 0.261D-01-0.857D-01-0.114D+00
 Coeff:      0.355D+00 0.789D+00
 Gap=     0.115 Goal=   None    Shift=    0.000
 Gap=     0.187 Goal=   None    Shift=    0.000
 RMSDP=3.69D-09 MaxDP=1.69D-07 DE= 2.73D-11 OVMax= 1.23D-06

 SCF Done:  E(UB971) =  -3845.01936903     A.U. after   32 cycles
            NFock= 32  Conv=0.37D-08     -V/T= 2.0013
 <Sx>= 0.0000 <Sy>= 0.0000 <Sz>= 1.0000 <S**2>= 2.0049 S= 1.0016
 <L.S>= 0.000000000000E+00
 KE= 3.839903643789D+03 PE=-1.205405209346D+04 EE= 2.899842451658D+03
 Annihilation of the first spin contaminant:
 S**2 before annihilation     2.0049,   after     2.0000
 Leave Link  502 at Fri Oct 23 07:51:59 2015, MaxMem=   524288000 cpu:      3313.7
 (Enter /opt/g09/l508.exe)
 QCSCF skips out because SCF is already converged.
 Leave Link  508 at Fri Oct 23 07:51:59 2015, MaxMem=   524288000 cpu:         0.0
 (Enter /opt/g09/l801.exe)
 DoSCS=F DFT=T ScalE2(SS,OS)=  1.000000  1.000000
 Range of M.O.s used for correlation:     1   344
 NBasis=   344 NAE=    71 NBE=    69 NFC=     0 NFV=     0
 NROrb=    344 NOA=    71 NOB=    69 NVA=   273 NVB=   275

 **** Warning!!: The largest alpha MO coefficient is  0.25438976D+02


 **** Warning!!: The largest beta MO coefficient is  0.18446085D+02

 Leave Link  801 at Fri Oct 23 07:51:59 2015, MaxMem=   524288000 cpu:         0.2
 (Enter /opt/g09/l1101.exe)
 Using compressed storage, NAtomX=    10.
 Will process     11 centers per pass.
 Leave Link 1101 at Fri Oct 23 07:52:00 2015, MaxMem=   524288000 cpu:         4.6
 (Enter /opt/g09/l1102.exe)
 Symmetrizing basis deriv contribution to polar:
 IMax=3 JMax=2 DiffMx= 0.00D+00
 Leave Link 1102 at Fri Oct 23 07:52:00 2015, MaxMem=   524288000 cpu:         0.4
 (Enter /opt/g09/l1110.exe)
 Forming Gx(P) for the SCF density, NAtomX=    10.
 Integral derivatives from FoFJK, PRISM(SPDF).
 Do as many integral derivatives as possible in FoFJK.
 G2DrvN: MDV=     524287816.
 G2DrvN: will do    11 centers at a time, making    1 passes.
 Calling FoFCou, ICntrl=  3107 FMM=F I1Cent=   0 AccDes= 0.00D+00.
 FoFJK:  IHMeth= 1 ICntrl=    3107 DoSepK=F KAlg= 0 I1Cent=   0 FoldK=F
 IRaf=         0 NMat=   1 IRICut=       1 DoRegI=T DoRafI=F ISym2E= 0.
 FoFCou: FMM=F IPFlag=           0 FMFlag=      100000 FMFlg1=           0
         NFxFlg=           0 DoJE=F BraDBF=F KetDBF=F FulRan=T
         wScrn=  0.000000 ICntrl=    3107 IOpCl=  1 I1Cent=           0 NGrid=           0
         NMat0=    1 NMatS0=      1 NMatT0=    0 NMatD0=    1 NMtDS0=    0 NMtDT0=    0
 Symmetry not used in FoFCou.
 End of G2Drv F.D. properties file   721 does not exist.
 End of G2Drv F.D. properties file   722 does not exist.
 End of G2Drv F.D. properties file   788 does not exist.
 Leave Link 1110 at Fri Oct 23 07:55:21 2015, MaxMem=   524288000 cpu:      1600.3
 (Enter /opt/g09/l1002.exe)
 Minotr:  UHF open shell wavefunction.
          IDoAtm=1111111111
          Direct CPHF calculation.
          Differentiating once with respect to electric field.
                with respect to dipole field.
          Differentiating once with respect to nuclear coordinates.
          Requested convergence is 1.0D-08 RMS, and 1.0D-07 maximum.
          Secondary convergence is 1.0D-12 RMS, and 1.0D-12 maximum.
          NewPWx=T KeepS1=F KeepF1=F KeepIn=T MapXYZ=F SortEE=F KeepMc=T.
          MDV=     524287208 using IRadAn=       1.
 Generate precomputed XC quadrature information.
          Solving linear equations simultaneously, MaxMat=       0.
 FoFJK:  IHMeth= 1 ICntrl=       0 DoSepK=F KAlg= 0 I1Cent=   0 FoldK=F
 IRaf= 790000000 NMat=  33 IRICut=       1 DoRegI=T DoRafI=F ISym2E= 0.
 FoFCou: FMM=F IPFlag=           0 FMFlag=      100000 FMFlg1=           0
         NFxFlg=           0 DoJE=F BraDBF=F KetDBF=F FulRan=T
         wScrn=  0.000000 ICntrl=       0 IOpCl=  1 I1Cent=           0 NGrid=           0
         NMat0=   33 NMatS0=     33 NMatT0=    0 NMatD0=   33 NMtDS0=    0 NMtDT0=    0
 Symmetry not used in FoFCou.
          There are    33 degrees of freedom in the 1st order CPHF.  IDoFFX=6 NUNeed=     3.
     30 vectors produced by pass  0 Test12= 1.16D-13 3.03D-09 XBig12= 4.25D+02 7.71D+00.
 AX will form    30 AO Fock derivatives at one time.
     30 vectors produced by pass  1 Test12= 1.16D-13 3.03D-09 XBig12= 4.40D+02 4.91D+00.
     30 vectors produced by pass  2 Test12= 1.16D-13 3.03D-09 XBig12= 8.05D+01 3.38D+00.
     30 vectors produced by pass  3 Test12= 1.16D-13 3.03D-09 XBig12= 7.58D+00 3.65D-01.
     30 vectors produced by pass  4 Test12= 1.16D-13 3.03D-09 XBig12= 3.39D-01 5.94D-02.
     30 vectors produced by pass  5 Test12= 1.16D-13 3.03D-09 XBig12= 5.56D-03 1.27D-02.
     30 vectors produced by pass  6 Test12= 1.16D-13 3.03D-09 XBig12= 8.90D-05 1.23D-03.
     30 vectors produced by pass  7 Test12= 1.16D-13 3.03D-09 XBig12= 1.19D-06 1.49D-04.
     26 vectors produced by pass  8 Test12= 1.16D-13 3.03D-09 XBig12= 1.17D-08 1.25D-05.
     10 vectors produced by pass  9 Test12= 1.16D-13 3.03D-09 XBig12= 1.17D-10 1.43D-06.
      3 vectors produced by pass 10 Test12= 1.16D-13 3.03D-09 XBig12= 1.12D-12 1.29D-07.
      1 vectors produced by pass 11 Test12= 1.16D-13 3.03D-09 XBig12= 1.08D-14 9.44D-09.
 InvSVY:  IOpt=1 It=  1 EMax= 1.07D-14
 Solved reduced A of dimension   280 with    33 vectors.
 FullF1:  Do perturbations    1 to     3.
 Isotropic polarizability for W=    0.000000      146.30 Bohr**3.
 End of Minotr F.D. properties file   721 does not exist.
 End of Minotr F.D. properties file   722 does not exist.
 End of Minotr F.D. properties file   788 does not exist.
 Leave Link 1002 at Fri Oct 23 08:16:30 2015, MaxMem=   524288000 cpu:     10103.6
 (Enter /opt/g09/l701.exe)
 Compute integral second derivatives.
 ... and contract with generalized density number  0.
 Leave Link  701 at Fri Oct 23 08:16:31 2015, MaxMem=   524288000 cpu:         4.8
 (Enter /opt/g09/l702.exe)
 L702 exits ... SP integral derivatives will be done elsewhere.
 Leave Link  702 at Fri Oct 23 08:16:31 2015, MaxMem=   524288000 cpu:         0.2
 (Enter /opt/g09/l703.exe)
 Compute integral second derivatives, UseDBF=F ICtDFT=           0.
 Integral derivatives from FoFJK, PRISM(SPDF).
 Calling FoFJK, ICntrl=    100127 FMM=F ISym2X=0 I1Cent= 0 IOpClX= 1 NMat=1 NMatS=1 NMatT=0.
 FoFJK:  IHMeth= 1 ICntrl=  100127 DoSepK=F KAlg= 0 I1Cent=   0 FoldK=F
 IRaf=         0 NMat=   1 IRICut=       1 DoRegI=T DoRafI=F ISym2E= 0.
 FoFCou: FMM=F IPFlag=           0 FMFlag=      100000 FMFlg1=         800
         NFxFlg=           0 DoJE=F BraDBF=F KetDBF=F FulRan=T
         wScrn=  0.000000 ICntrl=  100127 IOpCl=  1 I1Cent=           0 NGrid=           0
         NMat0=    1 NMatS0=      1 NMatT0=    0 NMatD0=    1 NMtDS0=    0 NMtDT0=    0
 Symmetry not used in FoFCou.
 Leave Link  703 at Fri Oct 23 08:24:00 2015, MaxMem=   524288000 cpu:      3573.1
 (Enter /opt/g09/l716.exe)
 Dipole        =-1.36782469D+00 8.26191489D-01 1.33194533D-01
 Polarizability= 1.65179410D+02-1.09746515D+01 1.43361101D+02
                -3.25725843D+01-3.32810599D+01 1.30366553D+02
 -------------------------------------------------------------------
 Center     Atomic                   Forces (Hartrees/Bohr)
 Number     Number              X              Y              Z
 -------------------------------------------------------------------
      1       22           0.000000720   -0.000001141   -0.000001378
      2        8           0.000001096    0.000003066    0.000000981
      3       22           0.000002005   -0.000003557    0.000002983
      4        8          -0.000004426   -0.000000097   -0.000002362
      5       22          -0.000001814   -0.000002566   -0.000005805
      6        8          -0.000003372    0.000001188   -0.000001621
      7        8           0.000002561   -0.000002481   -0.000002533
      8        8           0.000001613   -0.000000696    0.000001949
      9       17           0.000002298    0.000001764    0.000005048
     10       17          -0.000000682    0.000004518    0.000002738
 -------------------------------------------------------------------
 Cartesian Forces:  Max     0.000005805 RMS     0.000002666
 Force constants in Cartesian coordinates: 
                1             2             3             4             5 
      1  0.381868D+00
      2  0.831561D-02  0.301525D+00
      3 -0.106013D+00 -0.819094D-01  0.309298D+00
      4 -0.607788D-01  0.604998D-01 -0.249552D-01  0.127111D+00
      5  0.159040D-01 -0.121151D+00  0.605518D-01 -0.221639D-01  0.171623D+00
      6  0.719422D-02  0.369974D-01 -0.560437D-01 -0.382480D-01 -0.944383D-01
      7  0.470194D-01 -0.406993D-01  0.837265D-02 -0.738668D-01 -0.138186D-03
      8 -0.364916D-02 -0.177442D-01  0.200164D-01 -0.471357D-01 -0.554383D-01
      9 -0.183567D-01  0.395878D-01 -0.114794D-01  0.686564D-01  0.340956D-01
     10 -0.235037D-01  0.199407D-01 -0.388140D-02 -0.835746D-02 -0.338537D-01
     11  0.372299D-01 -0.277801D-01 -0.226340D-02  0.514438D-02  0.463207D-01
     12 -0.163163D-01  0.683824D-02  0.642196D-04  0.140864D-02 -0.145485D-01
     13 -0.698090D-01  0.338730D-01  0.534586D-01 -0.410400D-02 -0.104026D-01
     14 -0.221608D-01  0.538393D-01  0.287234D-01 -0.350734D-02 -0.342585D-01
     15  0.939419D-01 -0.906486D-03  0.282765D-01  0.278480D-02  0.276216D-01
     16 -0.622195D-01 -0.380266D-02  0.178815D-01  0.614884D-02  0.294249D-01
     17  0.297171D-01 -0.828585D-01 -0.695784D-01  0.418148D-02 -0.545333D-02
     18  0.341400D-01 -0.375693D-01 -0.105985D+00 -0.194769D-02 -0.184977D-01
     19 -0.136076D+00 -0.284022D-01 -0.108188D-01  0.101719D-02  0.298893D-01
     20 -0.189724D-01 -0.448553D-01 -0.969349D-02  0.868275D-02  0.108690D-01
     21 -0.581375D-01 -0.189563D-01 -0.698462D-01 -0.628740D-02 -0.101861D-01
     22 -0.662554D-01 -0.545075D-01  0.630568D-01  0.633055D-02 -0.892747D-02
     23 -0.426897D-01 -0.629751D-01  0.525422D-01  0.143323D-03 -0.537878D-02
     24  0.546592D-01  0.588061D-01 -0.930897D-01 -0.223521D-02  0.103393D-01
     25 -0.964305D-02  0.654542D-02  0.169367D-02  0.933688D-03 -0.151747D-02
     26 -0.342612D-02 -0.343414D-02  0.591045D-02 -0.224227D-03 -0.196192D-03
     27  0.876348D-02  0.587718D-03 -0.290933D-02 -0.750152D-03  0.363451D-03
     28 -0.601710D-03 -0.176288D-02  0.120570D-02  0.556531D-02  0.178516D-02
     29 -0.268400D-03  0.543420D-02 -0.429950D-02 -0.562052D-02 -0.693737D-02
     30  0.125128D-03 -0.347591D-02  0.171480D-02  0.157378D-02  0.469884D-02
                6             7             8             9            10 
      6  0.112572D+00
      7  0.347824D-01  0.226838D+00
      8  0.589181D-01 -0.687493D-01  0.231801D+00
      9 -0.689353D-01 -0.635539D-01 -0.120192D+00  0.133362D+00
     10  0.294824D-01 -0.135050D+00  0.785373D-01  0.100774D-01  0.159352D+00
     11 -0.352097D-01  0.332371D-01 -0.570284D-01  0.167995D-01 -0.599175D-01
     12  0.110060D-01  0.427815D-01 -0.724523D-02 -0.266823D-01 -0.305074D-01
     13  0.775809D-02  0.843963D-02  0.108877D-01 -0.869502D-02 -0.313775D-01
     14  0.239629D-01  0.553683D-01 -0.140823D-01 -0.142291D-01 -0.116580D-01
     15 -0.250041D-01 -0.408067D-01  0.934690D-02  0.217803D-01  0.140331D-01
     16 -0.152092D-01 -0.273142D-01  0.391642D-03  0.127712D-01  0.197748D-01
     17 -0.514326D-02 -0.420621D-02  0.242672D-02 -0.974648D-03 -0.219882D-02
     18  0.227108D-01  0.114455D-01 -0.228783D-02 -0.940855D-02 -0.109861D-02
     19 -0.265113D-01 -0.252690D-01 -0.149318D-02  0.118855D-01  0.177604D-01
     20  0.107865D-02 -0.172614D-02 -0.493808D-03 -0.276813D-02 -0.219375D-02
     21  0.115488D-01  0.167090D-01 -0.397476D-02 -0.854380D-02 -0.995694D-02
     22  0.431636D-02 -0.569197D-03  0.337436D-02 -0.227560D-02  0.102650D-02
     23  0.547813D-02 -0.723128D-04  0.314601D-02 -0.242920D-02  0.712689D-03
     24 -0.393485D-02  0.173283D-03 -0.426485D-02  0.268139D-02 -0.949889D-03
     25  0.176995D-03  0.223960D-03  0.488704D-03 -0.464326D-03 -0.121044D-03
     26 -0.301778D-03  0.000000D+00 -0.971636D-04  0.733117D-04 -0.162137D-04
     27 -0.649357D-03 -0.102756D-03 -0.187760D-03  0.193923D-03  0.520762D-04
     28 -0.374196D-02 -0.204517D-01  0.273476D-01 -0.100449D-01  0.496780D-03
     29  0.865783D-02  0.269854D-01 -0.924895D-01  0.500367D-01  0.106473D-01
     30 -0.327044D-02 -0.980094D-02  0.498709D-01 -0.329679D-01 -0.725078D-02
               11            12            13            14            15 
     11  0.160803D+00
     12 -0.695076D-01  0.867423D-01
     13  0.325516D-01 -0.178743D-01  0.231502D+00
     14 -0.112679D+00  0.724852D-01  0.169332D-01  0.206129D+00
     15  0.490290D-01 -0.636306D-01 -0.542579D-01 -0.478251D-01  0.215649D+00
     16 -0.299517D-01  0.124883D-01 -0.985550D-01 -0.308320D-01 -0.761820D-02
     17 -0.101294D-01  0.551728D-02 -0.795059D-01 -0.650936D-01 -0.983316D-02
     18  0.990000D-02  0.447304D-02 -0.246952D-01 -0.212695D-01 -0.476593D-01
     19 -0.187170D-01  0.835153D-02 -0.373968D-01 -0.530551D-02 -0.647874D-02
     20  0.907475D-02  0.532742D-02 -0.369123D-02 -0.406554D-01 -0.228067D-01
     21  0.243790D-01 -0.126552D-01  0.445593D-01 -0.362838D-01 -0.133461D+00
     22 -0.248659D-02  0.134548D-02  0.146217D-02  0.299738D-02 -0.234661D-02
     23 -0.217042D-02  0.131695D-02  0.699047D-03  0.271051D-02 -0.146834D-02
     24  0.299154D-02 -0.147380D-02 -0.630698D-03 -0.269265D-02  0.343458D-02
     25 -0.307118D-03  0.268346D-03 -0.179798D-04 -0.951439D-04 -0.262248D-03
     26  0.134274D-03 -0.110668D-03 -0.663850D-03 -0.291481D-03  0.792079D-04
     27  0.558975D-04 -0.994567D-04  0.131607D-03 -0.221478D-03 -0.562516D-03
     28  0.321710D-02 -0.194573D-02 -0.143309D-03 -0.174004D-02  0.101055D-02
     29 -0.654533D-02 -0.731132D-04 -0.680941D-03  0.438149D-02 -0.323688D-02
     30  0.382572D-02  0.225578D-02  0.245497D-03 -0.264986D-02  0.117671D-02
               16            17            18            19            20 
     16  0.127554D+00
     17  0.519220D-01  0.152721D+00
     18  0.877619D-02  0.934739D-01  0.143281D+00
     19  0.381189D-01 -0.289695D-02 -0.320621D-01  0.146421D+00
[...]
     21  0.210540D+00
     22  0.400789D-02  0.260484D+00
     23 -0.638206D-03  0.313094D-01  0.576149D-01
     24  0.470126D-02 -0.156988D+00 -0.508895D-01  0.130724D+00
     25 -0.138048D-03 -0.194537D+00  0.211046D-01  0.889854D-01  0.203555D+00
     26  0.472984D-04  0.291424D-01 -0.108136D-02 -0.154482D-01 -0.255763D-01
     27  0.665226D-03  0.832503D-01 -0.111349D-01 -0.375577D-01 -0.907925D-01
     28 -0.513268D-03  0.514604D-03  0.399131D-03 -0.535633D-03  0.639233D-04
     29  0.129175D-02 -0.129769D-02 -0.113727D-02  0.154475D-02 -0.203795D-03
     30 -0.334271D-03  0.681987D-03  0.637071D-03 -0.773800D-03  0.121962D-03
               26            27            28            29            30 
     26  0.471627D-02
     27  0.107234D-01  0.416120D-01
     28  0.183556D-04 -0.373515D-04  0.137251D-01
     29 -0.482700D-05  0.125884D-03 -0.299176D-01  0.984193D-01
     30  0.766311D-05 -0.511460D-04  0.145234D-01 -0.540192D-01  0.316942D-01
 FormGI is forming the generalized inverse of G from B-inverse, IUseBI=4.
 Leave Link  716 at Fri Oct 23 08:56:22 2015, MaxMem=   524288000 cpu:         0.3
 (Enter /opt/g09/l103.exe)

 GradGradGradGradGradGradGradGradGradGradGradGradGradGradGradGradGradGrad
 Berny optimization.
 Red2BG is reusing G-inverse.
 Internal  Forces:  Max     0.000002385 RMS     0.000000643
 Search for a local minimum.
 Step number   1 out of a maximum of    2
 All quantities printed in internal units (Hartrees-Bohrs-Radians)
 Second derivative matrix not updated -- analytic derivatives used.
 ITU=  0
     Eigenvalues ---    0.00045   0.00062   0.00421   0.01100   0.01507
     Eigenvalues ---    0.03214   0.03411   0.03903   0.04634   0.05213
     Eigenvalues ---    0.06303   0.06417   0.07886   0.08446   0.13267
     Eigenvalues ---    0.16516   0.17287   0.18699   0.20156   0.20528
     Eigenvalues ---    0.21861   0.22201   0.23915   0.25536
 Angle between quadratic step and forces=  56.11 degrees.
 Linear search not attempted -- first point.
 Iteration  1 RMS(Cart)=  0.00000598 RMS(Int)=  0.00000000
 Iteration  2 RMS(Cart)=  0.00000000 RMS(Int)=  0.00000000
 ITry= 1 IFail=0 DXMaxC= 2.14D-05 DCOld= 1.00D+10 DXMaxT= 2.56D+00 DXLimC= 3.00D+00 Rises=F
 Variable       Old X    -DE/DX   Delta X   Delta X   Delta X     New X
                                 (Linear)    (Quad)   (Total)
    R1        3.44320   0.00000   0.00000  -0.00001  -0.00001   3.44319
    R2        4.90013   0.00000   0.00000  -0.00001  -0.00001   4.90012
    R3        3.46618   0.00000   0.00000   0.00001   0.00001   3.46618
    R4        3.46691   0.00000   0.00000   0.00000   0.00000   3.46690
    R5        3.50225   0.00000   0.00000  -0.00001  -0.00001   3.50225
    R6        3.48515   0.00000   0.00000   0.00001   0.00001   3.48516
    R7        3.45317   0.00000   0.00000   0.00001   0.00001   3.45318
    R8        5.84494   0.00000   0.00000   0.00001   0.00001   5.84494
    R9        4.24574   0.00000   0.00000  -0.00002  -0.00002   4.24572
   R10        3.49634   0.00000   0.00000   0.00000   0.00000   3.49634
   R11        3.47912   0.00000   0.00000   0.00000   0.00000   3.47912
   R12        3.47829   0.00000   0.00000   0.00000   0.00000   3.47829
   R13        3.19154   0.00000   0.00000   0.00000   0.00000   3.19153
    A1        1.62931   0.00000   0.00000   0.00000   0.00000   1.62931
    A2        1.81144   0.00000   0.00000   0.00000   0.00000   1.81144
    A3        1.81068   0.00000   0.00000   0.00000   0.00000   1.81068
    A4        2.16292   0.00000   0.00000   0.00000   0.00000   2.16293
    A5        2.49095   0.00000   0.00000   0.00000   0.00000   2.49095
    A6        1.50099   0.00000   0.00000   0.00000   0.00000   1.50100
    A7        2.02769   0.00000   0.00000   0.00000   0.00000   2.02769
    A8        2.02735   0.00000   0.00000   0.00000   0.00000   2.02735
    A9        2.11219   0.00000   0.00000   0.00000   0.00000   2.11220
   A10        1.93696   0.00000   0.00000   0.00000   0.00000   1.93695
   A11        1.36139   0.00000   0.00000   0.00000   0.00000   1.36138
   A12        2.18246   0.00000   0.00000   0.00001   0.00001   2.18246
   A13        2.16377   0.00000   0.00000   0.00000   0.00000   2.16377
   A14        2.73933   0.00000   0.00000   0.00000   0.00000   2.73933
   A15        1.18029   0.00000   0.00000   0.00000   0.00000   1.18029
   A16        1.74787   0.00000   0.00000   0.00000   0.00000   1.74787
   A17        1.48394   0.00000   0.00000   0.00000   0.00000   1.48395
   A18        1.48261   0.00000   0.00000   0.00000   0.00000   1.48261
   A19        1.89448   0.00000   0.00000   0.00000   0.00000   1.89448
   A20        1.89402   0.00000   0.00000   0.00000   0.00000   1.89403
   A21        1.49448   0.00000   0.00000   0.00000   0.00000   1.49448
   A22        2.29715   0.00000   0.00000   0.00000   0.00000   2.29716
    D1        0.00112   0.00000   0.00000   0.00000   0.00000   0.00112
    D2        0.77963   0.00000   0.00000   0.00000   0.00000   0.77962
    D3       -0.77726   0.00000   0.00000   0.00000   0.00000  -0.77726
    D4       -3.13968   0.00000   0.00000  -0.00001  -0.00001  -3.13969
    D5       -0.00062   0.00000   0.00000   0.00000   0.00000  -0.00062
    D6        0.00018   0.00000   0.00000   0.00000   0.00000   0.00018
    D7        3.13989   0.00000   0.00000   0.00001   0.00001   3.13990
    D8        3.14069   0.00000   0.00000   0.00000   0.00000   3.14070
    D9        0.00721   0.00000   0.00000  -0.00002  -0.00002   0.00719
   D10       -3.13309   0.00000   0.00000  -0.00002  -0.00002  -3.13311
   D11        2.28653   0.00000   0.00000  -0.00002  -0.00002   2.28651
   D12       -2.27037   0.00000   0.00000  -0.00002  -0.00002  -2.27039
   D13       -0.00218   0.00000   0.00000   0.00000   0.00000  -0.00217
   D14       -0.00096   0.00000   0.00000   0.00000   0.00000  -0.00096
   D15        3.13685   0.00000   0.00000   0.00000   0.00000   3.13685
   D16        0.00062   0.00000   0.00000   0.00000   0.00000   0.00062
   D17       -0.74972   0.00000   0.00000   0.00000   0.00000  -0.74973
   D18        0.75189   0.00000   0.00000   0.00000   0.00000   0.75189
   D19       -3.13305   0.00000   0.00000   0.00000   0.00000  -3.13304
   D20        2.39979   0.00000   0.00000   0.00000   0.00000   2.39979
   D21       -2.38178   0.00000   0.00000   0.00000   0.00000  -2.38178
         Item               Value     Threshold  Converged?
 Maximum Force            0.000002     0.000015     YES
 RMS     Force            0.000001     0.000010     YES
 Maximum Displacement     0.000021     0.000060     YES
 RMS     Displacement     0.000006     0.000040     YES
 Predicted change in Energy=-7.086567D-11
 Optimization completed.
    -- Stationary point found.
                           ----------------------------
                           !   Optimized Parameters   !
                           ! (Angstroms and Degrees)  !
 --------------------------                            --------------------------
 ! Name  Definition              Value          Derivative Info.                !
 --------------------------------------------------------------------------------
 ! R1    R(1,2)                  1.8221         -DE/DX =    0.0                 !
 ! R2    R(1,5)                  2.593          -DE/DX =    0.0                 !
 ! R3    R(1,6)                  1.8342         -DE/DX =    0.0                 !
 ! R4    R(1,7)                  1.8346         -DE/DX =    0.0                 !
 ! R5    R(1,8)                  1.8533         -DE/DX =    0.0                 !
 ! R6    R(2,3)                  1.8443         -DE/DX =    0.0                 !
 ! R7    R(3,4)                  1.8273         -DE/DX =    0.0                 !
 ! R8    R(3,5)                  3.093          -DE/DX =    0.0                 !
 ! R9    R(3,10)                 2.2467         -DE/DX =    0.0                 !
 ! R10   R(4,5)                  1.8502         -DE/DX =    0.0                 !
 ! R11   R(5,6)                  1.8411         -DE/DX =    0.0                 !
 ! R12   R(5,7)                  1.8406         -DE/DX =    0.0                 !
 ! R13   R(8,9)                  1.6889         -DE/DX =    0.0                 !
 ! A1    A(2,1,5)               93.3526         -DE/DX =    0.0                 !
 ! A2    A(2,1,6)              103.7877         -DE/DX =    0.0                 !
 ! A3    A(2,1,7)              103.7441         -DE/DX =    0.0                 !
 ! A4    A(2,1,8)              123.9265         -DE/DX =    0.0                 !
 ! A5    A(5,1,8)              142.7209         -DE/DX =    0.0                 !
 ! A6    A(6,1,7)               86.0007         -DE/DX =    0.0                 !
 ! A7    A(6,1,8)              116.1781         -DE/DX =    0.0                 !
 ! A8    A(7,1,8)              116.1588         -DE/DX =    0.0                 !
 ! A9    A(1,2,3)              121.0197         -DE/DX =    0.0                 !
 ! A10   A(2,3,4)              110.9794         -DE/DX =    0.0                 !
 ! A11   A(2,3,5)               78.0018         -DE/DX =    0.0                 !
 ! A12   A(2,3,10)             125.0455         -DE/DX =    0.0                 !
 ! A13   A(4,3,10)             123.9749         -DE/DX =    0.0                 !
 ! A14   A(5,3,10)             156.9519         -DE/DX =    0.0                 !
 ! A15   A(1,5,3)               67.6258         -DE/DX =    0.0                 !
 ! A16   A(1,5,4)              100.1456         -DE/DX =    0.0                 !
 ! A17   A(3,5,6)               85.0237         -DE/DX =    0.0                 !
 ! A18   A(3,5,7)               84.9471         -DE/DX =    0.0                 !
 ! A19   A(4,5,6)              108.5457         -DE/DX =    0.0                 !
 ! A20   A(4,5,7)              108.5195         -DE/DX =    0.0                 !
 ! A21   A(6,5,7)               85.6276         -DE/DX =    0.0                 !
 ! A22   A(1,8,9)              131.6172         -DE/DX =    0.0                 !
 ! D1    D(5,1,2,3)              0.0642         -DE/DX =    0.0                 !
 ! D2    D(6,1,2,3)             44.6693         -DE/DX =    0.0                 !
 ! D3    D(7,1,2,3)            -44.5337         -DE/DX =    0.0                 !
 ! D4    D(8,1,2,3)           -179.8906         -DE/DX =    0.0                 !
 ! D5    D(2,1,5,3)             -0.0355         -DE/DX =    0.0                 !
 ! D6    D(2,1,5,4)              0.0104         -DE/DX =    0.0                 !
 ! D7    D(8,1,5,3)            179.9026         -DE/DX =    0.0                 !
 ! D8    D(8,1,5,4)            179.9485         -DE/DX =    0.0                 !
 ! D9    D(2,1,8,9)              0.4129         -DE/DX =    0.0                 !
 ! D10   D(5,1,8,9)           -179.5126         -DE/DX =    0.0                 !
 ! D11   D(6,1,8,9)            131.0084         -DE/DX =    0.0                 !
 ! D12   D(7,1,8,9)           -130.0825         -DE/DX =    0.0                 !
 ! D13   D(1,2,3,4)             -0.1248         -DE/DX =    0.0                 !
 ! D14   D(1,2,3,5)             -0.0549         -DE/DX =    0.0                 !
 ! D15   D(1,2,3,10)           179.728          -DE/DX =    0.0                 !
 ! D16   D(2,3,5,1)              0.0358         -DE/DX =    0.0                 !
 ! D17   D(2,3,5,6)            -42.956          -DE/DX =    0.0                 !
 ! D18   D(2,3,5,7)             43.0801         -DE/DX =    0.0                 !
 ! D19   D(10,3,5,1)          -179.5103         -DE/DX =    0.0                 !
 ! D20   D(10,3,5,6)           137.498          -DE/DX =    0.0                 !
 ! D21   D(10,3,5,7)          -136.4659         -DE/DX =    0.0                 !
 --------------------------------------------------------------------------------
 GradGradGradGradGradGradGradGradGradGradGradGradGradGradGradGradGradGrad

 Leave Link  103 at Fri Oct 23 08:56:22 2015, MaxMem=   524288000 cpu:         0.1
 (Enter /opt/g09/l9999.exe)
 1\1\GINC-TURNER\Freq\UB971\6-311+G(d,p)\Cl2O5Ti3(3)\PB556\23-Oct-2015\
 0\\#P Geom=AllCheck Guess=TCheck SCRF=Check GenChk UB971/6-311+G(d,p) 
 Freq\\./0_internal-fine-cl-33_trimer_type-f.g09\\0,3\Ti,-0.66034,2.936
 04,-0.89148\O,-0.07351,1.40478,-0.09726\Ti,-1.12837,0.49749,1.11328\O,
 -2.72916,1.34606,1.3511\Ti,-2.93704,2.88723,0.34872\O,-1.39928,3.88964
 ,0.49018\O,-2.38633,2.54319,-1.37357\O,0.32953,3.90939,-2.11929\Cl,1.8
 687,3.66085,-2.76854\Cl,-0.54582,-1.40153,2.16315\\Version=ES64L-G09Re
 vD.01\HF=-3845.019369\S2=2.004899\S2-1=0.\S2A=2.000016\RMSD=1.527e-09\
 RMSF=2.663e-06\ZeroPoint=0.0204442\Thermal=0.0334326\Dipole=-1.3678251
 ,0.8261908,0.133195\DipoleDeriv=2.8924923,-0.0802822,-0.6972038,0.5093
 901,2.2439956,-0.8293272,-1.1206989,-0.5154184,2.4377166,-0.8095088,-0
 .0661338,0.2297415,0.1183627,-1.8663651,0.948691,0.0965527,1.0458388,-
 1.2689444,1.5952156,-0.4754177,-0.0816078,-0.4594076,2.5744893,-1.0343
 605,-0.0931916,-1.0235882,1.5820274,-1.134811,0.7129843,-0.1849449,0.4
 506311,-1.6895168,0.607818,0.0035797,0.4689718,-0.8559369,1.3027146,0.
 1525511,-0.1804181,0.1339025,1.7486994,-0.4871881,-0.1659569,-0.497814
 1,1.6181381,-1.1992853,-0.0311279,0.4007141,-0.2319761,-0.7591478,-0.1
 374112,0.2775108,-0.2632939,-0.8617607,-1.2990528,-0.1041754,0.0677277
 ,-0.1012379,-0.4914707,-0.0845755,0.3322104,-0.0637777,-1.0269194,-0.9
 987612,-0.2655637,0.5270693,-0.6571689,-0.6231542,0.5338371,0.8074869,
 0.3246356,-1.0328856,0.0480731,-0.0987188,0.0687133,0.014728,0.0373823
 ,-0.0027474,-0.0117951,0.0580971,0.0097544,-0.3970764,0.2558841,-0.149
 7913,0.2227761,-1.1749121,0.4852639,-0.125698,0.4663491,-0.6011896\Pol
 ar=165.1794009,-10.9746512,143.3611038,-32.5725845,-33.2810631,130.366
 5551\PG=C01 [X(Cl2O5Ti3)]\NImag=0\\0.38186816,0.00831559,0.30152452,-0
 .10601345,-0.08190934,0.30929810,-0.06077875,0.06049976,-0.02495516,0.
 12711148,0.01590398,-0.12115056,0.06055174,-0.02216389,0.17162339,0.00
 719422,0.03699740,-0.05604372,-0.03824804,-0.09443831,0.11257219,0.047
 01944,-0.04069926,0.00837264,-0.07386684,-0.00013818,0.03478242,0.2268
 3833,-0.00364916,-0.01774424,0.02001641,-0.04713571,-0.05543831,0.0589
 1812,-0.06874930,0.23180100,-0.01835675,0.03958783,-0.01147941,0.06865
 644,0.03409564,-0.06893528,-0.06355393,-0.12019192,0.13336163,-0.02350
 374,0.01994070,-0.00388140,-0.00835746,-0.03385372,0.02948244,-0.13505
 041,0.07853730,0.01007742,0.15935166,0.03722992,-0.02778010,-0.0022634
 1,0.00514438,0.04632074,-0.03520969,0.03323703,-0.05702839,0.01679950,
 -0.05991751,0.16080273,-0.01631628,0.00683825,0.00006422,0.00140864,-0
 .01454848,0.01100600,0.04278149,-0.00724525,-0.02668231,-0.03050743,-0
 .06950756,0.08674225,-0.06980900,0.03387303,0.05345853,-0.00410400,-0.
 01040262,0.00775809,0.00843963,0.01088772,-0.00869501,-0.03137750,0.03
 255158,-0.01787429,0.23150180,-0.02216080,0.05383924,0.02872341,-0.003
 50734,-0.03425854,0.02396291,0.05536832,-0.01408233,-0.01422912,-0.011
 65799,-0.11267884,0.07248518,0.01693316,0.20612890,0.09394190,-0.00090
 649,0.02827647,0.00278480,0.02762162,-0.02500409,-0.04080673,0.0093469
 1,0.02178033,0.01403312,0.04902895,-0.06363057,-0.05425781,-0.04782510
 ,0.21564914,-0.06221953,-0.00380266,0.01788149,0.00614884,0.02942490,-
 0.01520919,-0.02731416,0.00039165,0.01277116,0.01977482,-0.02995173,0.
 01248825,-0.09855501,-0.03083202,-0.00761821,0.12755450,0.02971714,-0.
 08285853,-0.06957841,0.00418148,-0.00545333,-0.00514326,-0.00420621,0.
 00242672,-0.00097465,-0.00219881,-0.01012942,0.00551728,-0.07950590,-0
 .06509357,-0.00983316,0.05192200,0.15272055,0.03414004,-0.03756928,-0.
 10598529,-0.00194769,-0.01849772,0.02271076,0.01144555,-0.00228783,-0.
 00940855,-0.00109861,0.00990000,0.00447304,-0.02469520,-0.02126950,-0.
 04765926,0.00877618,0.09347390,0.14328071,-0.13607638,-0.02840217,-0.0
 1081883,0.00101719,0.02988930,-0.02651134,-0.02526904,-0.00149318,0.01
 188551,0.01776039,-0.01871705,0.00835153,-0.03739680,-0.00530551,-0.00
 647875,0.03811891,-0.00289694,-0.03206210,0.14642052,-0.01897244,-0.04
 485532,-0.00969349,0.00868275,0.01086895,0.00107865,-0.00172614,-0.000
 49381,-0.00276813,-0.00219375,0.00907475,0.00532742,-0.00369122,-0.040
 65539,-0.02280673,-0.01313799,-0.00021637,-0.02932634,0.03341600,0.066
 47573,-0.05813746,-0.01895627,-0.06984619,-0.00628740,-0.01018611,0.01
 154878,0.01670897,-0.00397476,-0.00854380,-0.00995694,0.02437904,-0.01
 265516,0.04455929,-0.03628378,-0.13346080,-0.03481884,-0.01375347,-0.0
 0261477,0.04457581,0.05807450,0.21053972,-0.06625543,-0.05450752,0.063
 05680,0.00633055,-0.00892747,0.00431637,-0.00056920,0.00337436,-0.0022
 7560,0.00102650,-0.00248659,0.00134548,0.00146217,0.00299738,-0.002346
 61,-0.00441453,0.00224463,0.00495184,-0.00404237,-0.00184890,0.0040078
 9,0.26048441,-0.04268971,-0.06297506,0.05254215,0.00014332,-0.00537878
 ,0.00547813,-0.00007231,0.00314601,-0.00242920,0.00071269,-0.00217042,
 0.00131695,0.00069904,0.00271051,-0.00146834,-0.00453079,0.00956065,0.
 00658580,-0.00707542,-0.00028916,-0.00063821,0.03130944,0.05761488,0.0
 5465918,0.05880609,-0.09308965,-0.00223521,0.01033934,-0.00393485,0.00
 017328,-0.00426485,0.00268139,-0.00094989,0.00299154,-0.00147380,-0.00
 063070,-0.00269265,0.00343457,0.00541053,-0.00040012,-0.00471111,0.012
 11153,0.00001354,0.00470126,-0.15698844,-0.05088948,0.13072368,-0.0096
 4305,0.00654541,0.00169367,0.00093369,-0.00151747,0.00017699,0.0002239
 6,0.00048870,-0.00046432,-0.00012104,-0.00030712,0.00026835,-0.0000179
 8,-0.00009514,-0.00026225,0.00039445,0.00025545,0.00041079,-0.00085177
 ,-0.00069429,-0.00013805,-0.19453670,0.02110461,0.08898535,0.20355453,
 -0.00342612,-0.00343414,0.00591045,-0.00022423,-0.00019619,-0.00030178
 ,0.00000068,-0.00009716,0.00007331,-0.00001621,0.00013427,-0.00011067,
 -0.00066385,-0.00029148,0.00007921,0.00076709,0.00014926,-0.00098073,-
 0.00002175,0.00010536,0.00004730,0.02914238,-0.00108136,-0.01544816,-0
 .02557635,0.00471627,0.00876348,0.00058772,-0.00290933,-0.00075015,0.0
 0036345,-0.00064936,-0.00010276,-0.00018776,0.00019392,0.00005208,0.00
 005590,-0.00009946,0.00013161,-0.00022148,-0.00056251,0.00030645,-0.00
 008148,-0.00064164,-0.00082115,-0.00023077,0.00066523,0.08325029,-0.01
 113487,-0.03755769,-0.09079250,0.01072341,0.04161199,-0.00060171,-0.00
 176288,0.00120570,0.00556531,0.00178516,-0.00374196,-0.02045171,0.0273
 4763,-0.01004492,0.00049678,0.00321710,-0.00194573,-0.00014331,-0.0017
 4004,0.00101055,0.00051171,0.00048716,0.00007921,0.00031934,0.00016598
 ,-0.00051327,0.00051460,0.00039913,-0.00053563,0.00006392,0.00001836,-
 0.00003735,0.01372507,-0.00026840,0.00543420,-0.00429950,-0.00562052,-
 0.00693736,0.00865783,0.02698538,-0.09248948,0.05003673,0.01064731,-0.
 00654533,-0.00007311,-0.00068094,0.00438149,-0.00323688,-0.00025046,-0
 .00110596,-0.00002830,0.00060672,-0.00001474,0.00129175,-0.00129769,-0
 .00113727,0.00154475,-0.00020380,-0.00000483,0.00012588,-0.02991759,0.
 09841929,0.00012513,-0.00347591,0.00171480,0.00157378,0.00469884,-0.00
 327044,-0.00980093,0.04987092,-0.03296793,-0.00725079,0.00382572,0.002
 25578,0.00024550,-0.00264986,0.00117671,0.00001218,0.00077336,0.000556
 10,-0.00023221,0.00033135,-0.00033427,0.00068199,0.00063707,-0.0007738
 0,0.00012196,0.00000766,-0.00005115,0.01452340,-0.05401916,0.03169419\
 \-0.00000073,0.00000115,0.00000139,-0.00000110,-0.00000308,-0.00000097
 ,-0.00000196,0.00000355,-0.00000300,0.00000439,0.00000009,0.00000238,0
 .00000181,0.00000259,0.00000577,0.00000338,-0.00000118,0.00000161,-0.0
 0000256,0.00000248,0.00000254,-0.00000161,0.00000069,-0.00000194,-0.00
 000230,-0.00000177,-0.00000505,0.00000069,-0.00000452,-0.00000274\\\@


 WHEN YOU'VE SEEN ONE NUCLEAR WAR YOU'VE SEEN THEM ALL.
 Job cpu time:       0 days  4 hours 17 minutes 19.2 seconds.
 File lengths (MBytes):  RWF=    302 Int=      0 D2E=      0 Chk=     12 Scr=      1
 Normal termination of Gaussian 09 at Fri Oct 23 08:56:22 2015.
