 Entering Gaussian System, Link 0=g09
 Input=00_00freq-no-symm-Cl2O5-3let.gau
 Output=00_00freq-no-symm-Cl2O5-3let.log
 Initial command:
 /opt/g09/l1.exe "/scratch/pb556/g09_run/ti_runs//Gau-17585.inp" -scrdir="/scratch/pb556/g09_run/ti_runs//"
 Entering Link 1 = /opt/g09/l1.exe PID=     17586.
  
 Copyright (c) 1988,1990,1992,1993,1995,1998,2003,2009,2013,
            Gaussian, Inc.  All Rights Reserved.
  
 This is part of the Gaussian(R) 09 program.  It is based on
 the Gaussian(R) 03 system (copyright 2003, Gaussian, Inc.),
 the Gaussian(R) 98 system (copyright 1998, Gaussian, Inc.),
 the Gaussian(R) 94 system (copyright 1995, Gaussian, Inc.),
 the Gaussian 92(TM) system (copyright 1992, Gaussian, Inc.),
 the Gaussian 90(TM) system (copyright 1990, Gaussian, Inc.),
 the Gaussian 88(TM) system (copyright 1988, Gaussian, Inc.),
 the Gaussian 86(TM) system (copyright 1986, Carnegie Mellon
 University), and the Gaussian 82(TM) system (copyright 1983,
 Carnegie Mellon University). Gaussian is a federally registered
 trademark of Gaussian, Inc.
  
 This software contains proprietary and confidential information,
 including trade secrets, belonging to Gaussian, Inc.
  
 This software is provided under written license and may be
 used, copied, transmitted, or stored only in accord with that
 written license.
  
 The following legend is applicable only to US Government
 contracts under FAR:
  
                    RESTRICTED RIGHTS LEGEND
  
 Use, reproduction and disclosure by the US Government is
 subject to restrictions as set forth in subparagraphs (a)
 and (c) of the Commercial Computer Software - Restricted
 Rights clause in FAR 52.227-19.
  
 Gaussian, Inc.
 340 Quinnipiac St., Bldg. 40, Wallingford CT 06492
  
  
 ---------------------------------------------------------------
 Warning -- This program may not be used in any manner that
 competes with the business of Gaussian, Inc. or will provide
 assistance to any competitor of Gaussian, Inc.  The licensee
 of this program is prohibited from giving any competitor of
 Gaussian, Inc. access to this program.  By using this program,
 the user acknowledges that Gaussian, Inc. is engaged in the
 business of creating and licensing software in the field of
 computational chemistry and represents and warrants to the
 licensee that it is not a competitor of Gaussian, Inc. and that
 it will not use this program in any manner prohibited above.
 ---------------------------------------------------------------
  

 Cite this work as:
 Gaussian 09, Revision D.01,
 M. J. Frisch, G. W. Trucks, H. B. Schlegel, G. E. Scuseria, 
 M. A. Robb, J. R. Cheeseman, G. Scalmani, V. Barone, B. Mennucci, 
 G. A. Petersson, H. Nakatsuji, M. Caricato, X. Li, H. P. Hratchian, 
 A. F. Izmaylov, J. Bloino, G. Zheng, J. L. Sonnenberg, M. Hada, 
 M. Ehara, K. Toyota, R. Fukuda, J. Hasegawa, M. Ishida, T. Nakajima, 
 Y. Honda, O. Kitao, H. Nakai, T. Vreven, J. A. Montgomery, Jr., 
 J. E. Peralta, F. Ogliaro, M. Bearpark, J. J. Heyd, E. Brothers, 
 K. N. Kudin, V. N. Staroverov, T. Keith, R. Kobayashi, J. Normand, 
 K. Raghavachari, A. Rendell, J. C. Burant, S. S. Iyengar, J. Tomasi, 
 M. Cossi, N. Rega, J. M. Millam, M. Klene, J. E. Knox, J. B. Cross, 
 V. Bakken, C. Adamo, J. Jaramillo, R. Gomperts, R. E. Stratmann, 
 O. Yazyev, A. J. Austin, R. Cammi, C. Pomelli, J. W. Ochterski, 
 R. L. Martin, K. Morokuma, V. G. Zakrzewski, G. A. Voth, 
 P. Salvador, J. J. Dannenberg, S. Dapprich, A. D. Daniels, 
 O. Farkas, J. B. Foresman, J. V. Ortiz, J. Cioslowski, 
 and D. J. Fox, Gaussian, Inc., Wallingford CT, 2013.
 
 ******************************************
 Gaussian 09:  ES64L-G09RevD.01 24-Apr-2013
                20-Oct-2015 
 ******************************************
 %NProcShared=8
 Will use up to    8 processors via shared memory.
 %Mem=500MW
 ----------------------------------------------------------------------
 #p uB971/6-311+G(d,p) Opt=(Tight, CalcAll, MaxCycles=512, MaxStep=256)
  Freq GFInput Population=None Integral(Grid=UltraFine) SCF=XQC Guess=M
 IX NoSymmetry
 ----------------------------------------------------------------------
 1/6=512,7=10,8=256,10=4,14=-1,18=20,19=15,26=4,38=1/1,3;
 2/9=110,12=2,15=1,17=6,18=5,40=1/2;
 3/5=4,6=6,7=111,11=2,16=1,24=10,25=1,30=1,71=2,74=-20,75=-5,116=2,140=1/1,2,3;
 4/13=-1/1;
 5/5=2,8=3,13=1,38=5/2,8;
 8/6=4,10=90,11=11/1;
 11/6=1,8=1,9=11,15=111,16=1,31=1/1,2,10;
 10/6=1,31=1/2;
 7/10=1,25=1,30=1/1,2,3,16;
 1/6=512,7=10,8=256,10=4,14=-1,18=20,19=15,26=4/3(3);
 2/9=110,15=1/2;
 7/8=1,9=1,25=1,30=1,44=-1/16;
 99//99;
 2/9=110,15=1/2;
 3/5=4,6=6,7=111,11=2,16=1,25=1,30=1,71=2,74=-20,75=-5,116=2,140=1/1,2,3;
 4/5=5,16=3,69=1/1;
 5/5=2,8=3,13=1,38=5/2,8;
 8/6=4,10=90,11=11/1;
 11/6=1,8=1,9=11,15=111,16=1,31=1/1,2,10;
 10/6=1,31=1/2;
 7/10=1,25=1,30=1/1,2,3,16;
 1/6=512,7=10,8=256,10=4,14=-1,18=20,19=15,26=4/3(-8);
 2/9=110,15=1/2;
 7/8=1,9=1,25=1,30=1,44=-1/16;
 99//99;
 Leave Link    1 at Tue Oct 20 10:29:32 2015, MaxMem=   524288000 cpu:         0.7
 (Enter /opt/g09/l101.exe)
 ----------------------------------------------------------------------
 C:\Users\pb556\workspace\organise\convert\00_00fine-no-symm-Cl2O5-3let
 .g09
 ----------------------------------------------------------------------
 Symbolic Z-matrix:
 Charge =  0 Multiplicity = 3
 O                     2.41732  -0.64185   0.49383 
 O                     2.45869  -1.45866  -0.37244 
 Cl                   -1.46988  -0.03311   0.00547 
 O                    -0.67874  -1.3035   -0.05671 
 O                    -2.2856    0.22992  -1.22163 
 O                    -2.2201    0.1472    1.28844 
 Cl                    1.61503   1.45752  -0.06735 
 
 Add virtual bond connecting atoms Cl7        and O1         Dist= 4.38D+00.
 Add virtual bond connecting atoms O4         and O1         Dist= 6.07D+00.
 Add virtual bond connecting atoms O4         and O2         Dist= 5.97D+00.
 Add atom      1 valence  3 ND=      1 dihedral       2      1      4      7
 NAtoms=      7 NQM=        7 NQMF=       0 NMMI=      0 NMMIF=      0
                NMic=       0 NMicF=      0.
                    Isotopes and Nuclear Properties:
 (Nuclear quadrupole moments (NQMom) in fm**2, nuclear magnetic moments (NMagM)
  in nuclear magnetons)

  Atom         1           2           3           4           5           6           7
 IAtWgt=          16          16          35          16          16          16          35
 AtmWgt=  15.9949146  15.9949146  34.9688527  15.9949146  15.9949146  15.9949146  34.9688527
 NucSpn=           0           0           3           0           0           0           3
 AtZEff=   0.0000000   0.0000000   0.0000000   0.0000000   0.0000000   0.0000000   0.0000000
 NQMom=    0.0000000   0.0000000  -8.1650000   0.0000000   0.0000000   0.0000000  -8.1650000
 NMagM=    0.0000000   0.0000000   0.8218740   0.0000000   0.0000000   0.0000000   0.8218740
 AtZNuc=   8.0000000   8.0000000  17.0000000   8.0000000   8.0000000   8.0000000  17.0000000
 Leave Link  101 at Tue Oct 20 10:29:32 2015, MaxMem=   524288000 cpu:         1.3
 (Enter /opt/g09/l103.exe)

 GradGradGradGradGradGradGradGradGradGradGradGradGradGradGradGradGradGrad
 Berny optimization.
 Initialization pass.
                           ----------------------------
                           !    Initial Parameters    !
                           ! (Angstroms and Degrees)  !
 --------------------------                            --------------------------
 ! Name  Definition              Value          Derivative Info.                !
 --------------------------------------------------------------------------------
 ! R1    R(1,2)                  1.1913         calculate D2E/DX2 analytically  !
 ! R2    R(1,4)                  3.2135         calculate D2E/DX2 analytically  !
 ! R3    R(1,7)                  2.3165         calculate D2E/DX2 analytically  !
 ! R4    R(2,4)                  3.1571         calculate D2E/DX2 analytically  !
 ! R5    R(3,4)                  1.4979         calculate D2E/DX2 analytically  !
 ! R6    R(3,5)                  1.4968         calculate D2E/DX2 analytically  !
 ! R7    R(3,6)                  1.4971         calculate D2E/DX2 analytically  !
 ! A1    A(2,1,7)              117.2091         calculate D2E/DX2 analytically  !
 ! A2    A(4,1,7)               79.1295         calculate D2E/DX2 analytically  !
 ! A3    A(4,3,5)              113.7566         calculate D2E/DX2 analytically  !
 ! A4    A(4,3,6)              113.7278         calculate D2E/DX2 analytically  !
 ! A5    A(5,3,6)              114.0979         calculate D2E/DX2 analytically  !
 ! A6    A(1,4,3)              109.0949         calculate D2E/DX2 analytically  !
 ! A7    A(2,4,3)              124.8002         calculate D2E/DX2 analytically  !
 ! D1    D(2,1,4,7)           -121.6378         calculate D2E/DX2 analytically  !
 ! D2    D(7,1,4,3)            -18.5474         calculate D2E/DX2 analytically  !
 ! D3    D(5,3,4,1)            125.1185         calculate D2E/DX2 analytically  !
 ! D4    D(5,3,4,2)            108.4877         calculate D2E/DX2 analytically  !
 ! D5    D(6,3,4,1)           -101.9787         calculate D2E/DX2 analytically  !
 ! D6    D(6,3,4,2)           -118.6095         calculate D2E/DX2 analytically  !
 --------------------------------------------------------------------------------
 Trust Radius=2.56D+00 FncErr=1.00D-07 GrdErr=1.00D-06
 Number of steps in this run=    100 maximum allowed number of steps=    100.
 GradGradGradGradGradGradGradGradGradGradGradGradGradGradGradGradGradGrad

 Leave Link  103 at Tue Oct 20 10:29:32 2015, MaxMem=   524288000 cpu:         0.1
 (Enter /opt/g09/l202.exe)
                          Input orientation:                          
 ---------------------------------------------------------------------
 Center     Atomic      Atomic             Coordinates (Angstroms)
 Number     Number       Type             X           Y           Z
 ---------------------------------------------------------------------
      1          8           0        2.417320   -0.641850    0.493830
      2          8           0        2.458690   -1.458660   -0.372440
      3         17           0       -1.469880   -0.033110    0.005470
      4          8           0       -0.678740   -1.303500   -0.056710
      5          8           0       -2.285600    0.229920   -1.221630
      6          8           0       -2.220100    0.147200    1.288440
      7         17           0        1.615030    1.457520   -0.067350
 ---------------------------------------------------------------------
                    Distance matrix (angstroms):
                    1          2          3          4          5
     1  O    0.000000
     2  O    1.191350   0.000000
     3  Cl   3.964768   4.196269   0.000000
     4  O    3.213481   3.157092   1.497885   0.000000
     5  O    5.081362   5.106928   1.496783   2.508070   0.000000
     6  O    4.770710   5.218082   1.497115   2.507937   2.512287
     7  Cl   2.316451   3.051057   3.426945   3.589530   4.249033
                    6          7
     6  O    0.000000
     7  Cl   4.273561   0.000000
 Symmetry turned off by external request.
 Stoichiometry    Cl2O5(3)
 Framework group  C1[X(Cl2O5)]
 Deg. of freedom    15
 Full point group                 C1      NOp   1
 Rotational constants (GHZ):      2.5263632      0.8661925      0.7543153
 Leave Link  202 at Tue Oct 20 10:29:32 2015, MaxMem=   524288000 cpu:         0.1
 (Enter /opt/g09/l301.exe)
 Standard basis: 6-311+G(d,p) (5D, 7F)
 Ernie: Thresh=  0.10000D-02 Tol=  0.10000D-05 Strict=F.
 AO basis set in the form of general basis input (Overlap normalization):
      1 0
 S   6 1.00       0.000000000000
      0.8588500000D+04  0.1895150083D-02
      0.1297230000D+04  0.1438590063D-01
      0.2992960000D+03  0.7073200310D-01
      0.8737710000D+02  0.2400010105D+00
      0.2567890000D+02  0.5947970261D+00
      0.3740040000D+01  0.2808020123D+00
 SP   3 1.00       0.000000000000
      0.4211750000D+02  0.1138890124D+00  0.3651139738D-01
      0.9628370000D+01  0.9208111006D+00  0.2371529830D+00
      0.2853320000D+01 -0.3274470358D-02  0.8197019412D+00
 SP   1 1.00       0.000000000000
      0.9056610000D+00  0.1000000000D+01  0.1000000000D+01
 SP   1 1.00       0.000000000000
      0.2556110000D+00  0.1000000000D+01  0.1000000000D+01
 SP   1 1.00       0.000000000000
      0.8450000000D-01  0.1000000000D+01  0.1000000000D+01
 D   1 1.00       0.000000000000
      0.1292000000D+01  0.1000000000D+01
 ****
      2 0
 S   6 1.00       0.000000000000
      0.8588500000D+04  0.1895150083D-02
      0.1297230000D+04  0.1438590063D-01
      0.2992960000D+03  0.7073200310D-01
      0.8737710000D+02  0.2400010105D+00
      0.2567890000D+02  0.5947970261D+00
      0.3740040000D+01  0.2808020123D+00
 SP   3 1.00       0.000000000000
      0.4211750000D+02  0.1138890124D+00  0.3651139738D-01
      0.9628370000D+01  0.9208111006D+00  0.2371529830D+00
      0.2853320000D+01 -0.3274470358D-02  0.8197019412D+00
 SP   1 1.00       0.000000000000
      0.9056610000D+00  0.1000000000D+01  0.1000000000D+01
 SP   1 1.00       0.000000000000
      0.2556110000D+00  0.1000000000D+01  0.1000000000D+01
 SP   1 1.00       0.000000000000
      0.8450000000D-01  0.1000000000D+01  0.1000000000D+01
 D   1 1.00       0.000000000000
      0.1292000000D+01  0.1000000000D+01
 ****
      3 0
 S   6 1.00       0.000000000000
      0.1058190000D+06  0.7380002465D-03
      0.1587200000D+05  0.5718001910D-02
      0.3619650000D+04  0.2949500985D-01
      0.1030800000D+04  0.1172860392D+00
      0.3399080000D+03  0.3629491212D+00
      0.1245380000D+03  0.5841491951D+00
 S   3 1.00       0.000000000000
      0.1245380000D+03  0.1341769734D+00
      0.4951350000D+02  0.6242498762D+00
      0.2080560000D+02  0.2917559421D+00
 S   1 1.00       0.000000000000
      0.6583460000D+01  0.1000000000D+01
 S   1 1.00       0.000000000000
      0.2564680000D+01  0.1000000000D+01
 S   1 1.00       0.000000000000
      0.5597630000D+00  0.1000000000D+01
 S   1 1.00       0.000000000000
      0.1832730000D+00  0.1000000000D+01
 SP   1 1.00       0.000000000000
      0.4830000000D-01  0.1000000000D+01  0.1000000000D+01
 P   5 1.00       0.000000000000
      0.5897760000D+03  0.3665569355D-02
      0.1398490000D+03  0.2836791942D-01
      0.4514130000D+02  0.1247566028D+00
      0.1687330000D+02  0.3396546305D+00
      0.2771520000D+01  0.7475859630D+00
 P   2 1.00       0.000000000000
      0.6741100000D+01 -0.1572243813D+01
      0.2771520000D+01  0.9923888817D+00
 P   1 1.00       0.000000000000
      0.1023870000D+01  0.1000000000D+01
 P   1 1.00       0.000000000000
      0.3813680000D+00  0.1000000000D+01
 P   1 1.00       0.000000000000
      0.1094370000D+00  0.1000000000D+01
 D   1 1.00       0.000000000000
      0.7500000000D+00  0.1000000000D+01
 ****
      4 0
 S   6 1.00       0.000000000000
      0.8588500000D+04  0.1895150083D-02
      0.1297230000D+04  0.1438590063D-01
      0.2992960000D+03  0.7073200310D-01
      0.8737710000D+02  0.2400010105D+00
      0.2567890000D+02  0.5947970261D+00
      0.3740040000D+01  0.2808020123D+00
 SP   3 1.00       0.000000000000
      0.4211750000D+02  0.1138890124D+00  0.3651139738D-01
      0.9628370000D+01  0.9208111006D+00  0.2371529830D+00
      0.2853320000D+01 -0.3274470358D-02  0.8197019412D+00
 SP   1 1.00       0.000000000000
      0.9056610000D+00  0.1000000000D+01  0.1000000000D+01
 SP   1 1.00       0.000000000000
      0.2556110000D+00  0.1000000000D+01  0.1000000000D+01
 SP   1 1.00       0.000000000000
      0.8450000000D-01  0.1000000000D+01  0.1000000000D+01
 D   1 1.00       0.000000000000
      0.1292000000D+01  0.1000000000D+01
 ****
      5 0
 S   6 1.00       0.000000000000
      0.8588500000D+04  0.1895150083D-02
      0.1297230000D+04  0.1438590063D-01
      0.2992960000D+03  0.7073200310D-01
      0.8737710000D+02  0.2400010105D+00
      0.2567890000D+02  0.5947970261D+00
      0.3740040000D+01  0.2808020123D+00
 SP   3 1.00       0.000000000000
      0.4211750000D+02  0.1138890124D+00  0.3651139738D-01
      0.9628370000D+01  0.9208111006D+00  0.2371529830D+00
      0.2853320000D+01 -0.3274470358D-02  0.8197019412D+00
 SP   1 1.00       0.000000000000
      0.9056610000D+00  0.1000000000D+01  0.1000000000D+01
 SP   1 1.00       0.000000000000
      0.2556110000D+00  0.1000000000D+01  0.1000000000D+01
 SP   1 1.00       0.000000000000
      0.8450000000D-01  0.1000000000D+01  0.1000000000D+01
 D   1 1.00       0.000000000000
      0.1292000000D+01  0.1000000000D+01
 ****
      6 0
 S   6 1.00       0.000000000000
      0.8588500000D+04  0.1895150083D-02
      0.1297230000D+04  0.1438590063D-01
      0.2992960000D+03  0.7073200310D-01
      0.8737710000D+02  0.2400010105D+00
      0.2567890000D+02  0.5947970261D+00
      0.3740040000D+01  0.2808020123D+00
 SP   3 1.00       0.000000000000
      0.4211750000D+02  0.1138890124D+00  0.3651139738D-01
      0.9628370000D+01  0.9208111006D+00  0.2371529830D+00
      0.2853320000D+01 -0.3274470358D-02  0.8197019412D+00
 SP   1 1.00       0.000000000000
      0.9056610000D+00  0.1000000000D+01  0.1000000000D+01
 SP   1 1.00       0.000000000000
      0.2556110000D+00  0.1000000000D+01  0.1000000000D+01
 SP   1 1.00       0.000000000000
      0.8450000000D-01  0.1000000000D+01  0.1000000000D+01
 D   1 1.00       0.000000000000
      0.1292000000D+01  0.1000000000D+01
 ****
      7 0
 S   6 1.00       0.000000000000
      0.1058190000D+06  0.7380002465D-03
      0.1587200000D+05  0.5718001910D-02
      0.3619650000D+04  0.2949500985D-01
      0.1030800000D+04  0.1172860392D+00
      0.3399080000D+03  0.3629491212D+00
      0.1245380000D+03  0.5841491951D+00
 S   3 1.00       0.000000000000
      0.1245380000D+03  0.1341769734D+00
      0.4951350000D+02  0.6242498762D+00
      0.2080560000D+02  0.2917559421D+00
 S   1 1.00       0.000000000000
      0.6583460000D+01  0.1000000000D+01
 S   1 1.00       0.000000000000
      0.2564680000D+01  0.1000000000D+01
 S   1 1.00       0.000000000000
      0.5597630000D+00  0.1000000000D+01
 S   1 1.00       0.000000000000
      0.1832730000D+00  0.1000000000D+01
 SP   1 1.00       0.000000000000
      0.4830000000D-01  0.1000000000D+01  0.1000000000D+01
 P   5 1.00       0.000000000000
      0.5897760000D+03  0.3665569355D-02
      0.1398490000D+03  0.2836791942D-01
      0.4514130000D+02  0.1247566028D+00
      0.1687330000D+02  0.3396546305D+00
      0.2771520000D+01  0.7475859630D+00
 P   2 1.00       0.000000000000
      0.6741100000D+01 -0.1572243813D+01
      0.2771520000D+01  0.9923888817D+00
 P   1 1.00       0.000000000000
      0.1023870000D+01  0.1000000000D+01
 P   1 1.00       0.000000000000
      0.3813680000D+00  0.1000000000D+01
 P   1 1.00       0.000000000000
      0.1094370000D+00  0.1000000000D+01
 D   1 1.00       0.000000000000
      0.7500000000D+00  0.1000000000D+01
 ****

   170 basis functions,   286 primitive gaussians,   177 cartesian basis functions
    38 alpha electrons       36 beta electrons
       nuclear repulsion energy       449.6801926102 Hartrees.
 IExCor= 1614 DFT=T Ex+Corr=B971 ExCW=0 ScaHFX=  0.210000
 ScaDFX=  1.000000  1.000000  1.000000  1.000000 ScalE2=  1.000000  1.000000
 IRadAn=      5 IRanWt=     -1 IRanGd=            0 ICorTp=0 IEmpDi=  4
 NAtoms=    7 NActive=    7 NUniq=    7 SFac= 1.00D+00 NAtFMM=   60 NAOKFM=F Big=F
 Integral buffers will be    131072 words long.
 Raffenetti 2 integral format.
 Two-electron integral symmetry is turned off.
 Leave Link  301 at Tue Oct 20 10:29:32 2015, MaxMem=   524288000 cpu:         0.4
 (Enter /opt/g09/l302.exe)
 NPDir=0 NMtPBC=     1 NCelOv=     1 NCel=       1 NClECP=     1 NCelD=      1
         NCelK=      1 NCelE2=     1 NClLst=     1 CellRange=     0.0.
 One-electron integrals computed using PRISM.
 NBasis=   170 RedAO= T EigKep=  5.05D-04  NBF=   170
 NBsUse=   170 1.00D-06 EigRej= -1.00D+00 NBFU=   170
 Precomputing XC quadrature grid using
 IXCGrd= 4 IRadAn=           5 IRanWt=          -1 IRanGd=           0 AccXCQ= 0.00D+00.
 Generated NRdTot=       0 NPtTot=           0 NUsed=           0 NTot=          32
 NSgBfM=   174   174   174   174   174 MxSgAt=     7 MxSgA2=     7.
 Leave Link  302 at Tue Oct 20 10:29:32 2015, MaxMem=   524288000 cpu:         1.5
 (Enter /opt/g09/l303.exe)
 DipDrv:  MaxL=1.
 Leave Link  303 at Tue Oct 20 10:29:32 2015, MaxMem=   524288000 cpu:         0.3
 (Enter /opt/g09/l401.exe)
 ExpMin= 4.83D-02 ExpMax= 1.06D+05 ExpMxC= 3.62D+03 IAcc=3 IRadAn=         5 AccDes= 0.00D+00
 Harris functional with IExCor= 1614 and IRadAn=       5 diagonalized for initial guess.
 HarFok:  IExCor= 1614 AccDes= 0.00D+00 IRadAn=         5 IDoV= 1 UseB2=F ITyADJ=14
 ICtDFT=  3500011 ScaDFX=  1.000000  1.000000  1.000000  1.000000
 FoFCou: FMM=F IPFlag=           0 FMFlag=      100000 FMFlg1=           0
         NFxFlg=           0 DoJE=T BraDBF=F KetDBF=T FulRan=T
         wScrn=  0.000000 ICntrl=     500 IOpCl=  0 I1Cent=   200000004 NGrid=           0
         NMat0=    1 NMatS0=      1 NMatT0=    0 NMatD0=    1 NMtDS0=    0 NMtDT0=    0
 Symmetry not used in FoFCou.
 Harris En= -1276.15856189827    
 JPrj=0 DoOrth=F DoCkMO=T.
 Mixing orbitals, IMix= 1 IMixAn=  0 NRI=1 NE=   38 Coef=  7.07106781D-01  7.07106781D-01
 Mixing orbitals, IMix= 1 IMixAn=  0 NRI=1 NE=   36 Coef= -7.07106781D-01  7.07106781D-01
 Initial guess <Sx>= 0.0000 <Sy>= 0.0000 <Sz>= 1.0000 <S**2>= 2.0000 S= 1.0000
 Leave Link  401 at Tue Oct 20 10:29:33 2015, MaxMem=   524288000 cpu:         4.5
 (Enter /opt/g09/l502.exe)
 UHF open shell SCF:
 Using DIIS extrapolation, IDIIS=  1040.
 Two-electron integral symmetry not used.
 Keep R1 and R2 ints in memory in canonical form, NReq=214202968.
 IVT=      102421 IEndB=      102421 NGot=   524288000 MDV=   312904820
 LenX=   312904820 LenY=   312873050
 Requested convergence on RMS density matrix=1.00D-08 within  64 cycles.
 Requested convergence on MAX density matrix=1.00D-06.
 Requested convergence on             energy=1.00D-06.
 No special actions if energy rises.
 FoFCou: FMM=F IPFlag=           0 FMFlag=           0 FMFlg1=           0
         NFxFlg=           0 DoJE=F BraDBF=F KetDBF=F FulRan=T
         wScrn=  0.000000 ICntrl=     600 IOpCl=  0 I1Cent=           0 NGrid=           0
         NMat0=    1 NMatS0=  14535 NMatT0=    0 NMatD0=    1 NMtDS0=    0 NMtDT0=    0
 Symmetry not used in FoFCou.

 Cycle   1  Pass 1  IDiag  1:
 E= -1294.97258836409    
 DIIS: error= 1.22D-01 at cycle   1 NSaved=   1.
 NSaved= 1 IEnMin= 1 EnMin= -1294.97258836409     IErMin= 1 ErrMin= 1.22D-01
 ErrMax= 1.22D-01  0.00D+00 EMaxC= 1.00D-01 BMatC= 1.26D+01 BMatP= 1.26D+01
 IDIUse=3 WtCom= 0.00D+00 WtEn= 1.00D+00
 Coeff-Com:  0.100D+01
 Coeff-En:   0.100D+01
 Coeff:      0.100D+01
 Gap=     0.089 Goal=   None    Shift=    0.000
 Gap=     0.035 Goal=   None    Shift=    0.000
 GapD=    0.035 DampG=0.250 DampE=0.250 DampFc=0.2500 IDamp=-1.
 Damping current iteration by 2.50D-01
 RMSDP=1.22D-02 MaxDP=4.30D-01              OVMax= 9.65D-01

 Cycle   2  Pass 1  IDiag  1:
 E= -1295.19754544923     Delta-E=       -0.224957085137 Rises=F Damp=T
 DIIS: error= 8.50D-02 at cycle   2 NSaved=   2.
 NSaved= 2 IEnMin= 2 EnMin= -1295.19754544923     IErMin= 2 ErrMin= 8.50D-02
 ErrMax= 8.50D-02  0.00D+00 EMaxC= 1.00D-01 BMatC= 5.47D+00 BMatP= 1.26D+01
 IDIUse=3 WtCom= 1.50D-01 WtEn= 8.50D-01
 Coeff-Com: -0.927D+00 0.193D+01
 Coeff-En:   0.208D+00 0.792D+00
 Coeff:      0.373D-01 0.963D+00
 Gap=    -0.011 Goal=   None    Shift=    0.000
 Gap=    -0.277 Goal=   None    Shift=    0.000
 RMSDP=7.41D-03 MaxDP=2.25D-01 DE=-2.25D-01 OVMax= 9.57D-01

 Cycle   3  Pass 1  IDiag  1:
 E= -1295.19630993555     Delta-E=        0.001235513685 Rises=F Damp=F
 DIIS: error= 6.04D-02 at cycle   3 NSaved=   3.
 NSaved= 3 IEnMin= 2 EnMin= -1295.19754544923     IErMin= 3 ErrMin= 6.04D-02
 ErrMax= 6.04D-02  0.00D+00 EMaxC= 1.00D-01 BMatC= 2.61D+00 BMatP= 5.47D+00
 IDIUse=3 WtCom= 3.96D-01 WtEn= 6.04D-01
 Coeff-Com: -0.380D+00 0.839D+00 0.542D+00
 Coeff-En:   0.000D+00 0.501D+00 0.499D+00
 Coeff:     -0.151D+00 0.634D+00 0.516D+00
 Gap=     0.429 Goal=   None    Shift=    0.000
 Gap=     0.061 Goal=   None    Shift=    0.000
 RMSDP=7.92D-03 MaxDP=3.03D-01 DE= 1.24D-03 OVMax= 9.82D-01

 Cycle   4  Pass 1  IDiag  1:
 E= -1295.30385125744     Delta-E=       -0.107541321893 Rises=F Damp=F
 DIIS: error= 4.97D-02 at cycle   4 NSaved=   4.
 NSaved= 4 IEnMin= 4 EnMin= -1295.30385125744     IErMin= 4 ErrMin= 4.97D-02
 ErrMax= 4.97D-02  0.00D+00 EMaxC= 1.00D-01 BMatC= 1.77D+00 BMatP= 2.61D+00
 IDIUse=3 WtCom= 5.03D-01 WtEn= 4.97D-01
 Coeff-Com: -0.296D-01 0.175D+00 0.421D+00 0.434D+00
 Coeff-En:   0.000D+00 0.000D+00 0.472D+00 0.528D+00
 Coeff:     -0.149D-01 0.879D-01 0.446D+00 0.481D+00
 Gap=     0.076 Goal=   None    Shift=    0.000
 Gap=     0.209 Goal=   None    Shift=    0.000
 RMSDP=7.36D-03 MaxDP=2.88D-01 DE=-1.08D-01 OVMax= 8.66D-01

 Cycle   5  Pass 1  IDiag  1:
 E= -1295.61695149495     Delta-E=       -0.313100237507 Rises=F Damp=F
 DIIS: error= 2.79D-02 at cycle   5 NSaved=   5.
 NSaved= 5 IEnMin= 5 EnMin= -1295.61695149495     IErMin= 5 ErrMin= 2.79D-02
 ErrMax= 2.79D-02  0.00D+00 EMaxC= 1.00D-01 BMatC= 5.51D-01 BMatP= 1.77D+00
 IDIUse=3 WtCom= 7.21D-01 WtEn= 2.79D-01
 Coeff-Com: -0.103D+00 0.159D+00 0.832D-01 0.316D+00 0.545D+00
 Coeff-En:   0.000D+00 0.000D+00 0.000D+00 0.383D+00 0.617D+00
 Coeff:     -0.745D-01 0.115D+00 0.600D-01 0.335D+00 0.565D+00
 Gap=    -0.024 Goal=   None    Shift=    0.000
 Gap=    -0.038 Goal=   None    Shift=    0.000
 RMSDP=6.93D-03 MaxDP=2.75D-01 DE=-3.13D-01 OVMax= 9.90D-01

 Cycle   6  Pass 1  IDiag  1:
 E= -1295.62105631790     Delta-E=       -0.004104822954 Rises=F Damp=F
 DIIS: error= 1.73D-02 at cycle   6 NSaved=   6.
 NSaved= 6 IEnMin= 6 EnMin= -1295.62105631790     IErMin= 6 ErrMin= 1.73D-02
 ErrMax= 1.73D-02  0.00D+00 EMaxC= 1.00D-01 BMatC= 4.74D-01 BMatP= 5.51D-01
 IDIUse=3 WtCom= 8.27D-01 WtEn= 1.73D-01
 EnCoef did    19 forward-backward iterations
 Coeff-Com: -0.585D-01 0.905D-01 0.702D-01 0.257D+00 0.474D+00 0.167D+00
 Coeff-En:   0.000D+00 0.000D+00 0.000D+00 0.156D+00 0.519D+00 0.325D+00
 Coeff:     -0.484D-01 0.749D-01 0.581D-01 0.240D+00 0.482D+00 0.194D+00
 Gap=    -0.018 Goal=   None    Shift=    0.000
 Gap=     0.006 Goal=   None    Shift=    0.000
 RMSDP=5.47D-03 MaxDP=2.23D-01 DE=-4.10D-03 OVMax= 9.79D-01

 Cycle   7  Pass 1  IDiag  1:
 E= -1295.86616594779     Delta-E=       -0.245109629885 Rises=F Damp=F
 DIIS: error= 9.89D-03 at cycle   7 NSaved=   7.
 NSaved= 7 IEnMin= 7 EnMin= -1295.86616594779     IErMin= 7 ErrMin= 9.89D-03
 ErrMax= 9.89D-03  0.00D+00 EMaxC= 1.00D-01 BMatC= 9.17D-02 BMatP= 4.74D-01
 IDIUse=3 WtCom= 9.01D-01 WtEn= 9.89D-02
 Coeff-Com: -0.697D-01 0.986D-01-0.141D-01 0.239D-01 0.189D+00 0.216D+00
 Coeff-Com:  0.556D+00
 Coeff-En:   0.000D+00 0.000D+00 0.000D+00 0.000D+00 0.000D+00 0.175D+00
 Coeff-En:   0.825D+00
 Coeff:     -0.628D-01 0.888D-01-0.127D-01 0.216D-01 0.170D+00 0.212D+00
 Coeff:      0.583D+00
 Gap=     0.041 Goal=   None    Shift=    0.000
 Gap=     0.045 Goal=   None    Shift=    0.000
 RMSDP=1.81D-03 MaxDP=6.78D-02 DE=-2.45D-01 OVMax= 3.48D-01

 Cycle   8  Pass 1  IDiag  1:
 E= -1295.91186429363     Delta-E=       -0.045698345848 Rises=F Damp=F
 DIIS: error= 4.97D-03 at cycle   8 NSaved=   8.
 NSaved= 8 IEnMin= 8 EnMin= -1295.91186429363     IErMin= 8 ErrMin= 4.97D-03
 ErrMax= 4.97D-03  0.00D+00 EMaxC= 1.00D-01 BMatC= 1.79D-02 BMatP= 9.17D-02
 IDIUse=3 WtCom= 9.50D-01 WtEn= 4.97D-02
 Coeff-Com: -0.394D-01 0.571D-01-0.236D-02 0.146D-01 0.805D-01 0.149D+00
 Coeff-Com:  0.338D+00 0.403D+00
 Coeff-En:   0.000D+00 0.000D+00 0.000D+00 0.000D+00 0.000D+00 0.000D+00
 Coeff-En:   0.000D+00 0.100D+01
 Coeff:     -0.375D-01 0.542D-01-0.225D-02 0.139D-01 0.765D-01 0.142D+00
 Coeff:      0.321D+00 0.432D+00
 Gap=     0.070 Goal=   None    Shift=    0.000
 Gap=     0.071 Goal=   None    Shift=    0.000
 RMSDP=5.30D-04 MaxDP=2.82D-02 DE=-4.57D-02 OVMax= 8.69D-02

 Cycle   9  Pass 1  IDiag  1:
 E= -1295.91748645389     Delta-E=       -0.005622160253 Rises=F Damp=F
 DIIS: error= 4.25D-03 at cycle   9 NSaved=   9.
 NSaved= 9 IEnMin= 9 EnMin= -1295.91748645389     IErMin= 9 ErrMin= 4.25D-03
 ErrMax= 4.25D-03  0.00D+00 EMaxC= 1.00D-01 BMatC= 7.11D-03 BMatP= 1.79D-02
 IDIUse=3 WtCom= 9.58D-01 WtEn= 4.25D-02
 Coeff-Com: -0.134D-01 0.199D-01 0.101D-01 0.246D-01 0.191D-01 0.114D-01
 Coeff-Com: -0.595D-01 0.335D+00 0.653D+00
 Coeff-En:   0.000D+00 0.000D+00 0.000D+00 0.000D+00 0.000D+00 0.000D+00
 Coeff-En:   0.000D+00 0.000D+00 0.100D+01
 Coeff:     -0.128D-01 0.191D-01 0.971D-02 0.236D-01 0.182D-01 0.109D-01
 Coeff:     -0.569D-01 0.321D+00 0.667D+00
 Gap=     0.092 Goal=   None    Shift=    0.000
 Gap=     0.100 Goal=   None    Shift=    0.000
 RMSDP=5.93D-04 MaxDP=3.04D-02 DE=-5.62D-03 OVMax= 9.29D-02

 Cycle  10  Pass 1  IDiag  1:
 E= -1295.92247133176     Delta-E=       -0.004984877879 Rises=F Damp=F
 DIIS: error= 2.85D-03 at cycle  10 NSaved=  10.
 NSaved=10 IEnMin=10 EnMin= -1295.92247133176     IErMin=10 ErrMin= 2.85D-03
 ErrMax= 2.85D-03  0.00D+00 EMaxC= 1.00D-01 BMatC= 1.98D-03 BMatP= 7.11D-03
 IDIUse=3 WtCom= 9.71D-01 WtEn= 2.85D-02
 Coeff-Com: -0.130D-03-0.642D-03-0.238D-02 0.144D-01 0.310D-01 0.147D-01
 Coeff-Com:  0.511D-02-0.130D+00 0.167D+00 0.901D+00
 Coeff-En:   0.000D+00 0.000D+00 0.000D+00 0.000D+00 0.000D+00 0.000D+00
 Coeff-En:   0.000D+00 0.000D+00 0.000D+00 0.100D+01
 Coeff:     -0.126D-03-0.623D-03-0.232D-02 0.140D-01 0.301D-01 0.143D-01
 Coeff:      0.496D-02-0.126D+00 0.162D+00 0.904D+00
 Gap=     0.095 Goal=   None    Shift=    0.000
 Gap=     0.111 Goal=   None    Shift=    0.000
 RMSDP=3.63D-04 MaxDP=1.93D-02 DE=-4.98D-03 OVMax= 5.24D-02

 Cycle  11  Pass 1  IDiag  1:
 E= -1295.92437181456     Delta-E=       -0.001900482800 Rises=F Damp=F
 DIIS: error= 2.40D-03 at cycle  11 NSaved=  11.
 NSaved=11 IEnMin=11 EnMin= -1295.92437181456     IErMin=11 ErrMin= 2.40D-03
 ErrMax= 2.40D-03  0.00D+00 EMaxC= 1.00D-01 BMatC= 1.20D-03 BMatP= 1.98D-03
 IDIUse=3 WtCom= 9.76D-01 WtEn= 2.40D-02
 Coeff-Com:  0.415D-02-0.560D-02-0.401D-02 0.267D-02 0.180D-01 0.124D-01
 Coeff-Com:  0.373D-01-0.247D+00-0.118D+00 0.708D+00 0.592D+00
 Coeff-En:   0.000D+00 0.000D+00 0.000D+00 0.000D+00 0.000D+00 0.000D+00
 Coeff-En:   0.000D+00 0.000D+00 0.000D+00 0.000D+00 0.100D+01
 Coeff:      0.406D-02-0.546D-02-0.392D-02 0.260D-02 0.176D-01 0.121D-01
 Coeff:      0.364D-01-0.241D+00-0.115D+00 0.691D+00 0.602D+00
 Gap=     0.100 Goal=   None    Shift=    0.000
 Gap=     0.113 Goal=   None    Shift=    0.000
 RMSDP=2.94D-04 MaxDP=1.88D-02 DE=-1.90D-03 OVMax= 6.04D-02

 Cycle  12  Pass 1  IDiag  1:
 E= -1295.92548494581     Delta-E=       -0.001113131240 Rises=F Damp=F
 DIIS: error= 1.50D-03 at cycle  12 NSaved=  12.
 NSaved=12 IEnMin=12 EnMin= -1295.92548494581     IErMin=12 ErrMin= 1.50D-03
 ErrMax= 1.50D-03  0.00D+00 EMaxC= 1.00D-01 BMatC= 7.66D-04 BMatP= 1.20D-03
 IDIUse=3 WtCom= 9.85D-01 WtEn= 1.50D-02
 Coeff-Com:  0.359D-02-0.455D-02 0.164D-02-0.289D-02 0.294D-02 0.386D-02
 Coeff-Com:  0.221D-01 0.867D-01-0.982D-01-0.703D+00 0.468D+00 0.122D+01
 Coeff-En:   0.000D+00 0.000D+00 0.000D+00 0.000D+00 0.000D+00 0.000D+00
 Coeff-En:   0.000D+00 0.000D+00 0.000D+00 0.000D+00 0.000D+00 0.100D+01
 Coeff:      0.354D-02-0.448D-02 0.162D-02-0.285D-02 0.290D-02 0.380D-02
 Coeff:      0.218D-01 0.854D-01-0.968D-01-0.692D+00 0.461D+00 0.122D+01
 Gap=     0.105 Goal=   None    Shift=    0.000
 Gap=     0.119 Goal=   None    Shift=    0.000
 RMSDP=3.00D-04 MaxDP=1.48D-02 DE=-1.11D-03 OVMax= 4.14D-02

 Cycle  13  Pass 1  IDiag  1:
 E= -1295.92611868659     Delta-E=       -0.000633740786 Rises=F Damp=F
 DIIS: error= 6.07D-04 at cycle  13 NSaved=  13.
 NSaved=13 IEnMin=13 EnMin= -1295.92611868659     IErMin=13 ErrMin= 6.07D-04
 ErrMax= 6.07D-04  0.00D+00 EMaxC= 1.00D-01 BMatC= 2.93D-04 BMatP= 7.66D-04
 IDIUse=3 WtCom= 9.94D-01 WtEn= 6.07D-03
 Coeff-Com:  0.291D-02-0.375D-02 0.204D-02-0.231D-02 0.761D-03-0.575D-03
 Coeff-Com:  0.140D-01 0.105D+00-0.573D-01-0.667D+00 0.299D+00 0.913D+00
 Coeff-Com:  0.394D+00
 Coeff-En:   0.000D+00 0.000D+00 0.000D+00 0.000D+00 0.000D+00 0.000D+00
 Coeff-En:   0.000D+00 0.000D+00 0.000D+00 0.000D+00 0.000D+00 0.000D+00
 Coeff-En:   0.100D+01
 Coeff:      0.289D-02-0.373D-02 0.202D-02-0.230D-02 0.756D-03-0.572D-03
 Coeff:      0.139D-01 0.104D+00-0.569D-01-0.663D+00 0.297D+00 0.908D+00
 Coeff:      0.397D+00
 Gap=     0.106 Goal=   None    Shift=    0.000
 Gap=     0.121 Goal=   None    Shift=    0.000
 RMSDP=7.49D-05 MaxDP=2.89D-03 DE=-6.34D-04 OVMax= 7.81D-03

 Cycle  14  Pass 1  IDiag  1:
 E= -1295.92618314214     Delta-E=       -0.000064455551 Rises=F Damp=F
 DIIS: error= 3.35D-04 at cycle  14 NSaved=  14.
 NSaved=14 IEnMin=14 EnMin= -1295.92618314214     IErMin=14 ErrMin= 3.35D-04
 ErrMax= 3.35D-04  0.00D+00 EMaxC= 1.00D-01 BMatC= 1.12D-04 BMatP= 2.93D-04
 IDIUse=3 WtCom= 9.97D-01 WtEn= 3.35D-03
 Coeff-Com:  0.169D-02-0.227D-02 0.918D-03-0.397D-03 0.295D-03-0.593D-02
 Coeff-Com:  0.447D-02 0.141D-01 0.385D-02-0.107D+00 0.521D-01 0.978D-02
 Coeff-Com:  0.333D+00 0.695D+00
 Coeff-En:   0.000D+00 0.000D+00 0.000D+00 0.000D+00 0.000D+00 0.000D+00
 Coeff-En:   0.000D+00 0.000D+00 0.000D+00 0.000D+00 0.000D+00 0.000D+00
 Coeff-En:   0.000D+00 0.100D+01
 Coeff:      0.168D-02-0.226D-02 0.915D-03-0.395D-03 0.294D-03-0.591D-02
 Coeff:      0.446D-02 0.140D-01 0.384D-02-0.106D+00 0.519D-01 0.975D-02
 Coeff:      0.332D+00 0.696D+00
 Gap=     0.107 Goal=   None    Shift=    0.000
 Gap=     0.121 Goal=   None    Shift=    0.000
 RMSDP=3.77D-05 MaxDP=1.71D-03 DE=-6.45D-05 OVMax= 5.53D-03

 Cycle  15  Pass 1  IDiag  1:
 E= -1295.92621131871     Delta-E=       -0.000028176568 Rises=F Damp=F
 DIIS: error= 1.77D-04 at cycle  15 NSaved=  15.
 NSaved=15 IEnMin=15 EnMin= -1295.92621131871     IErMin=15 ErrMin= 1.77D-04
 ErrMax= 1.77D-04  0.00D+00 EMaxC= 1.00D-01 BMatC= 2.76D-05 BMatP= 1.12D-04
 IDIUse=3 WtCom= 9.98D-01 WtEn= 1.77D-03
 Coeff-Com:  0.327D-03-0.495D-03 0.307D-03-0.586D-03 0.111D-02-0.323D-02
 Coeff-Com:  0.221D-02-0.249D-01 0.100D-01 0.115D+00-0.293D-01-0.118D+00
 Coeff-Com: -0.100D+00-0.483D-01 0.120D+01
 Coeff-En:   0.000D+00 0.000D+00 0.000D+00 0.000D+00 0.000D+00 0.000D+00
 Coeff-En:   0.000D+00 0.000D+00 0.000D+00 0.000D+00 0.000D+00 0.000D+00
 Coeff-En:   0.000D+00 0.000D+00 0.100D+01
 Coeff:      0.327D-03-0.494D-03 0.307D-03-0.585D-03 0.111D-02-0.323D-02
 Coeff:      0.221D-02-0.248D-01 0.998D-02 0.115D+00-0.293D-01-0.118D+00
 Coeff:     -0.100D+00-0.482D-01 0.120D+01
 Gap=     0.107 Goal=   None    Shift=    0.000
 Gap=     0.120 Goal=   None    Shift=    0.000
 RMSDP=2.93D-05 MaxDP=1.29D-03 DE=-2.82D-05 OVMax= 4.77D-03

 Cycle  16  Pass 1  IDiag  1:
 E= -1295.92622275875     Delta-E=       -0.000011440036 Rises=F Damp=F
 DIIS: error= 8.94D-05 at cycle  16 NSaved=  16.
 NSaved=16 IEnMin=16 EnMin= -1295.92622275875     IErMin=16 ErrMin= 8.94D-05
 ErrMax= 8.94D-05  0.00D+00 EMaxC= 1.00D-01 BMatC= 7.75D-06 BMatP= 2.76D-05
 IDIUse=1 WtCom= 1.00D+00 WtEn= 0.00D+00
 Coeff-Com: -0.429D-03 0.602D-03 0.392D-03-0.560D-03 0.190D-03-0.787D-03
 Coeff-Com: -0.256D-03 0.524D-02 0.243D-02-0.550D-02-0.338D-01 0.300D-01
 Coeff-Com: -0.471D-01-0.163D+00-0.184D+00 0.140D+01
 Coeff:     -0.429D-03 0.602D-03 0.392D-03-0.560D-03 0.190D-03-0.787D-03
 Coeff:     -0.256D-03 0.524D-02 0.243D-02-0.550D-02-0.338D-01 0.300D-01
 Coeff:     -0.471D-01-0.163D+00-0.184D+00 0.140D+01
 Gap=     0.107 Goal=   None    Shift=    0.000
 Gap=     0.119 Goal=   None    Shift=    0.000
 RMSDP=2.93D-05 MaxDP=1.57D-03 DE=-1.14D-05 OVMax= 5.82D-03

 Cycle  17  Pass 1  IDiag  1:
 E= -1295.92622936234     Delta-E=       -0.000006603590 Rises=F Damp=F
 DIIS: error= 3.06D-05 at cycle  17 NSaved=  17.
 NSaved=17 IEnMin=17 EnMin= -1295.92622936234     IErMin=17 ErrMin= 3.06D-05
 ErrMax= 3.06D-05  0.00D+00 EMaxC= 1.00D-01 BMatC= 9.40D-07 BMatP= 7.75D-06
 IDIUse=1 WtCom= 1.00D+00 WtEn= 0.00D+00
 Coeff-Com: -0.123D-03 0.173D-03-0.448D-06 0.744D-04-0.212D-03-0.173D-03
 Coeff-Com:  0.236D-03 0.796D-02-0.233D-02-0.352D-01-0.155D-02 0.380D-01
 Coeff-Com:  0.313D-01 0.633D-02-0.354D+00 0.112D+00 0.120D+01
 Coeff:     -0.123D-03 0.173D-03-0.448D-06 0.744D-04-0.212D-03-0.173D-03
 Coeff:      0.236D-03 0.796D-02-0.233D-02-0.352D-01-0.155D-02 0.380D-01
 Coeff:      0.313D-01 0.633D-02-0.354D+00 0.112D+00 0.120D+01
 Gap=     0.107 Goal=   None    Shift=    0.000
 Gap=     0.119 Goal=   None    Shift=    0.000
 RMSDP=1.78D-05 MaxDP=9.93D-04 DE=-6.60D-06 OVMax= 3.76D-03

 Cycle  18  Pass 1  IDiag  1:
 E= -1295.92623088006     Delta-E=       -0.000001517725 Rises=F Damp=F
 DIIS: error= 1.34D-05 at cycle  18 NSaved=  18.
 NSaved=18 IEnMin=18 EnMin= -1295.92623088006     IErMin=18 ErrMin= 1.34D-05
 ErrMax= 1.34D-05  0.00D+00 EMaxC= 1.00D-01 BMatC= 9.51D-08 BMatP= 9.40D-07
 IDIUse=1 WtCom= 1.00D+00 WtEn= 0.00D+00
 Coeff-Com:  0.113D-05 0.425D-05-0.714D-04 0.662D-04 0.972D-05 0.107D-03
 Coeff-Com:  0.280D-03-0.172D-03-0.553D-03-0.647D-02 0.899D-02 0.103D-01
 Coeff-Com:  0.552D-02 0.108D-01-0.110D-01-0.109D+00-0.902D-01 0.118D+01
 Coeff:      0.113D-05 0.425D-05-0.714D-04 0.662D-04 0.972D-05 0.107D-03
 Coeff:      0.280D-03-0.172D-03-0.553D-03-0.647D-02 0.899D-02 0.103D-01
 Coeff:      0.552D-02 0.108D-01-0.110D-01-0.109D+00-0.902D-01 0.118D+01
 Gap=     0.107 Goal=   None    Shift=    0.000
 Gap=     0.119 Goal=   None    Shift=    0.000
 RMSDP=6.15D-06 MaxDP=3.33D-04 DE=-1.52D-06 OVMax= 1.29D-03

 Cycle  19  Pass 1  IDiag  1:
 E= -1295.92623115300     Delta-E=       -0.000000272938 Rises=F Damp=F
 DIIS: error= 5.85D-06 at cycle  19 NSaved=  19.
 NSaved=19 IEnMin=19 EnMin= -1295.92623115300     IErMin=19 ErrMin= 5.85D-06
 ErrMax= 5.85D-06  0.00D+00 EMaxC= 1.00D-01 BMatC= 2.80D-08 BMatP= 9.51D-08
 IDIUse=1 WtCom= 1.00D+00 WtEn= 0.00D+00
 Coeff-Com: -0.597D-05 0.698D-05-0.490D-06 0.211D-06 0.593D-04 0.218D-03
 Coeff-Com: -0.109D-03-0.687D-03 0.232D-03 0.145D-02 0.140D-02 0.243D-03
 Coeff-Com: -0.317D-02-0.251D-02 0.425D-01-0.342D-02-0.259D+00-0.126D-01
 Coeff-Com:  0.124D+01
 Coeff:     -0.597D-05 0.698D-05-0.490D-06 0.211D-06 0.593D-04 0.218D-03
 Coeff:     -0.109D-03-0.687D-03 0.232D-03 0.145D-02 0.140D-02 0.243D-03
 Coeff:     -0.317D-02-0.251D-02 0.425D-01-0.342D-02-0.259D+00-0.126D-01
 Coeff:      0.124D+01
 Gap=     0.107 Goal=   None    Shift=    0.000
 Gap=     0.119 Goal=   None    Shift=    0.000
 RMSDP=4.15D-06 MaxDP=2.31D-04 DE=-2.73D-07 OVMax= 9.29D-04

 Cycle  20  Pass 1  IDiag  1:
 E= -1295.92623123322     Delta-E=       -0.000000080222 Rises=F Damp=F
 DIIS: error= 4.01D-06 at cycle  20 NSaved=  20.
 NSaved=20 IEnMin=20 EnMin= -1295.92623123322     IErMin=20 ErrMin= 4.01D-06
 ErrMax= 4.01D-06  0.00D+00 EMaxC= 1.00D-01 BMatC= 1.58D-08 BMatP= 2.80D-08
 IDIUse=1 WtCom= 1.00D+00 WtEn= 0.00D+00
 Coeff-Com: -0.302D-04 0.396D-04-0.660D-05 0.117D-04 0.222D-04 0.672D-04
 Coeff-Com: -0.261D-04 0.355D-03-0.431D-03-0.283D-05-0.234D-02-0.588D-03
 Coeff-Com:  0.384D-03-0.193D-02-0.611D-02 0.189D-01 0.745D-01-0.223D+00
 Coeff-Com: -0.187D+00 0.133D+01
 Coeff:     -0.302D-04 0.396D-04-0.660D-05 0.117D-04 0.222D-04 0.672D-04
 Coeff:     -0.261D-04 0.355D-03-0.431D-03-0.283D-05-0.234D-02-0.588D-03
 Coeff:      0.384D-03-0.193D-02-0.611D-02 0.189D-01 0.745D-01-0.223D+00
 Coeff:     -0.187D+00 0.133D+01
 Gap=     0.107 Goal=   None    Shift=    0.000
 Gap=     0.119 Goal=   None    Shift=    0.000
 RMSDP=1.81D-06 MaxDP=9.48D-05 DE=-8.02D-08 OVMax= 4.06D-04

 Cycle  21  Pass 1  IDiag  1:
 E= -1295.92623125095     Delta-E=       -0.000000017726 Rises=F Damp=F
 DIIS: error= 1.81D-06 at cycle  21 NSaved=  20.
 NSaved=20 IEnMin=20 EnMin= -1295.92623125095     IErMin=20 ErrMin= 1.81D-06
 ErrMax= 1.81D-06  0.00D+00 EMaxC= 1.00D-01 BMatC= 3.26D-09 BMatP= 1.58D-08
 IDIUse=1 WtCom= 1.00D+00 WtEn= 0.00D+00
 Coeff-Com: -0.894D-07-0.116D-04 0.112D-04 0.278D-05-0.992D-05 0.120D-04
 Coeff-Com: -0.138D-03-0.217D-03 0.295D-03 0.639D-03 0.971D-04 0.129D-03
 Coeff-Com:  0.684D-03 0.729D-03-0.900D-02 0.163D-01 0.476D-01-0.212D+00
 Coeff-Com: -0.254D+00 0.141D+01
 Coeff:     -0.894D-07-0.116D-04 0.112D-04 0.278D-05-0.992D-05 0.120D-04
 Coeff:     -0.138D-03-0.217D-03 0.295D-03 0.639D-03 0.971D-04 0.129D-03
 Coeff:      0.684D-03 0.729D-03-0.900D-02 0.163D-01 0.476D-01-0.212D+00
 Coeff:     -0.254D+00 0.141D+01
 Gap=     0.107 Goal=   None    Shift=    0.000
 Gap=     0.119 Goal=   None    Shift=    0.000
 RMSDP=1.01D-06 MaxDP=5.61D-05 DE=-1.77D-08 OVMax= 2.25D-04

 Cycle  22  Pass 1  IDiag  1:
 E= -1295.92623125477     Delta-E=       -0.000000003822 Rises=F Damp=F
 DIIS: error= 6.08D-07 at cycle  22 NSaved=  20.
 NSaved=20 IEnMin=20 EnMin= -1295.92623125477     IErMin=20 ErrMin= 6.08D-07
 ErrMax= 6.08D-07  0.00D+00 EMaxC= 1.00D-01 BMatC= 3.19D-10 BMatP= 3.26D-09
 IDIUse=1 WtCom= 1.00D+00 WtEn= 0.00D+00
 Coeff-Com:  0.225D-06 0.195D-05-0.526D-05 0.120D-04-0.761D-05 0.486D-04
 Coeff-Com:  0.409D-04 0.118D-03-0.575D-04 0.417D-04-0.466D-03-0.117D-02
 Coeff-Com: -0.312D-02 0.412D-02 0.258D-02 0.250D-01-0.348D-01-0.188D+00
 Coeff-Com:  0.322D+00 0.874D+00
 Coeff:      0.225D-06 0.195D-05-0.526D-05 0.120D-04-0.761D-05 0.486D-04
 Coeff:      0.409D-04 0.118D-03-0.575D-04 0.417D-04-0.466D-03-0.117D-02
 Coeff:     -0.312D-02 0.412D-02 0.258D-02 0.250D-01-0.348D-01-0.188D+00
 Coeff:      0.322D+00 0.874D+00
 Gap=     0.107 Goal=   None    Shift=    0.000
 Gap=     0.119 Goal=   None    Shift=    0.000
 RMSDP=2.38D-07 MaxDP=1.22D-05 DE=-3.82D-09 OVMax= 4.59D-05

 Cycle  23  Pass 1  IDiag  1:
 E= -1295.92623125505     Delta-E=       -0.000000000278 Rises=F Damp=F
 DIIS: error= 4.35D-07 at cycle  23 NSaved=  20.
 NSaved=20 IEnMin=20 EnMin= -1295.92623125505     IErMin=20 ErrMin= 4.35D-07
 ErrMax= 4.35D-07  0.00D+00 EMaxC= 1.00D-01 BMatC= 1.15D-10 BMatP= 3.19D-10
 IDIUse=1 WtCom= 1.00D+00 WtEn= 0.00D+00
 Coeff-Com: -0.345D-06 0.358D-06 0.129D-05-0.763D-05-0.100D-04 0.415D-04
 Coeff-Com: -0.430D-04 0.113D-03-0.579D-04 0.776D-04 0.371D-03 0.972D-03
 Coeff-Com: -0.207D-02-0.564D-02 0.114D-01 0.330D-01-0.670D-01-0.111D+00
 Coeff-Com:  0.118D+00 0.102D+01
 Coeff:     -0.345D-06 0.358D-06 0.129D-05-0.763D-05-0.100D-04 0.415D-04
 Coeff:     -0.430D-04 0.113D-03-0.579D-04 0.776D-04 0.371D-03 0.972D-03
 Coeff:     -0.207D-02-0.564D-02 0.114D-01 0.330D-01-0.670D-01-0.111D+00
 Coeff:      0.118D+00 0.102D+01
 Gap=     0.107 Goal=   None    Shift=    0.000
 Gap=     0.119 Goal=   None    Shift=    0.000
 RMSDP=1.08D-07 MaxDP=4.46D-06 DE=-2.78D-10 OVMax= 1.83D-05

 Cycle  24  Pass 1  IDiag  1:
 E= -1295.92623125513     Delta-E=       -0.000000000080 Rises=F Damp=F
 DIIS: error= 5.60D-08 at cycle  24 NSaved=  20.
 NSaved=20 IEnMin=20 EnMin= -1295.92623125513     IErMin=20 ErrMin= 5.60D-08
 ErrMax= 5.60D-08  0.00D+00 EMaxC= 1.00D-01 BMatC= 3.35D-12 BMatP= 1.15D-10
 IDIUse=1 WtCom= 1.00D+00 WtEn= 0.00D+00
 Coeff-Com:  0.510D-06-0.838D-07-0.109D-05-0.166D-06-0.242D-05 0.832D-05
 Coeff-Com: -0.224D-04-0.507D-04 0.457D-04 0.125D-03 0.273D-03-0.340D-03
 Coeff-Com:  0.344D-03-0.309D-02 0.364D-02 0.229D-01-0.408D-01-0.874D-01
 Coeff-Com: -0.246D-02 0.111D+01
 Coeff:      0.510D-06-0.838D-07-0.109D-05-0.166D-06-0.242D-05 0.832D-05
 Coeff:     -0.224D-04-0.507D-04 0.457D-04 0.125D-03 0.273D-03-0.340D-03
 Coeff:      0.344D-03-0.309D-02 0.364D-02 0.229D-01-0.408D-01-0.874D-01
 Coeff:     -0.246D-02 0.111D+01
 Gap=     0.107 Goal=   None    Shift=    0.000
 Gap=     0.119 Goal=   None    Shift=    0.000
 RMSDP=2.02D-08 MaxDP=5.99D-07 DE=-7.96D-11 OVMax= 1.59D-06

 Cycle  25  Pass 1  IDiag  1:
 E= -1295.92623125512     Delta-E=        0.000000000005 Rises=F Damp=F
 DIIS: error= 2.14D-08 at cycle  25 NSaved=  20.
 NSaved=20 IEnMin=19 EnMin= -1295.92623125513     IErMin=20 ErrMin= 2.14D-08
 ErrMax= 2.14D-08  0.00D+00 EMaxC= 1.00D-01 BMatC= 3.33D-13 BMatP= 3.35D-12
 IDIUse=1 WtCom= 1.00D+00 WtEn= 0.00D+00
 Coeff-Com: -0.195D-06 0.980D-07 0.940D-06-0.431D-05 0.457D-05-0.559D-05
 Coeff-Com:  0.333D-05 0.713D-05-0.521D-05-0.105D-03 0.806D-05 0.754D-03
 Coeff-Com: -0.104D-02-0.289D-02 0.612D-02 0.820D-02-0.161D-01-0.819D-01
 Coeff-Com:  0.879D-01 0.999D+00
 Coeff:     -0.195D-06 0.980D-07 0.940D-06-0.431D-05 0.457D-05-0.559D-05
 Coeff:      0.333D-05 0.713D-05-0.521D-05-0.105D-03 0.806D-05 0.754D-03
 Coeff:     -0.104D-02-0.289D-02 0.612D-02 0.820D-02-0.161D-01-0.819D-01
 Coeff:      0.879D-01 0.999D+00
 Gap=     0.107 Goal=   None    Shift=    0.000
 Gap=     0.119 Goal=   None    Shift=    0.000
 RMSDP=6.59D-09 MaxDP=2.40D-07 DE= 4.55D-12 OVMax= 1.05D-06

 SCF Done:  E(UB971) =  -1295.92623126     A.U. after   25 cycles
            NFock= 25  Conv=0.66D-08     -V/T= 2.0020
 <Sx>= 0.0000 <Sy>= 0.0000 <Sz>= 1.0000 <S**2>= 2.6104 S= 1.1913
 <L.S>= 0.000000000000E+00
 KE= 1.293294872921D+03 PE=-3.972161581410D+03 EE= 9.332602846243D+02
 Annihilation of the first spin contaminant:
 S**2 before annihilation     2.6104,   after     2.0171
 Leave Link  502 at Tue Oct 20 10:30:21 2015, MaxMem=   524288000 cpu:       219.2
 (Enter /opt/g09/l508.exe)
 QCSCF skips out because SCF is already converged.
 Leave Link  508 at Tue Oct 20 10:30:21 2015, MaxMem=   524288000 cpu:         0.0
 (Enter /opt/g09/l801.exe)
 DoSCS=F DFT=T ScalE2(SS,OS)=  1.000000  1.000000
 Range of M.O.s used for correlation:     1   170
 NBasis=   170 NAE=    38 NBE=    36 NFC=     0 NFV=     0
 NROrb=    170 NOA=    38 NOB=    36 NVA=   132 NVB=   134

 **** Warning!!: The largest alpha MO coefficient is  0.14204591D+02


 **** Warning!!: The largest beta MO coefficient is  0.14365590D+02

 Leave Link  801 at Tue Oct 20 10:30:21 2015, MaxMem=   524288000 cpu:         0.2
 (Enter /opt/g09/l1101.exe)
 Using compressed storage, NAtomX=     7.
 Will process      8 centers per pass.
 Leave Link 1101 at Tue Oct 20 10:30:21 2015, MaxMem=   524288000 cpu:         1.6
 (Enter /opt/g09/l1102.exe)
 Symmetrizing basis deriv contribution to polar:
 IMax=3 JMax=2 DiffMx= 0.00D+00
 Leave Link 1102 at Tue Oct 20 10:30:21 2015, MaxMem=   524288000 cpu:         0.2
 (Enter /opt/g09/l1110.exe)
 Forming Gx(P) for the SCF density, NAtomX=     7.
 Integral derivatives from FoFJK, PRISM(SPDF).
 Do as many integral derivatives as possible in FoFJK.
 G2DrvN: MDV=     524287840.
 G2DrvN: will do     8 centers at a time, making    1 passes.
 Calling FoFCou, ICntrl=  3107 FMM=F I1Cent=   0 AccDes= 0.00D+00.
 FoFJK:  IHMeth= 1 ICntrl=    3107 DoSepK=F KAlg= 0 I1Cent=   0 FoldK=F
 IRaf=         0 NMat=   1 IRICut=       1 DoRegI=T DoRafI=F ISym2E= 0.
 FoFCou: FMM=F IPFlag=           0 FMFlag=      100000 FMFlg1=           0
         NFxFlg=           0 DoJE=F BraDBF=F KetDBF=F FulRan=T
         wScrn=  0.000000 ICntrl=    3107 IOpCl=  1 I1Cent=           0 NGrid=           0
         NMat0=    1 NMatS0=      1 NMatT0=    0 NMatD0=    1 NMtDS0=    0 NMtDT0=    0
 Symmetry not used in FoFCou.
 End of G2Drv F.D. properties file   721 does not exist.
 End of G2Drv F.D. properties file   722 does not exist.
 End of G2Drv F.D. properties file   788 does not exist.
 Leave Link 1110 at Tue Oct 20 10:30:42 2015, MaxMem=   524288000 cpu:       165.2
 (Enter /opt/g09/l1002.exe)
 Minotr:  UHF open shell wavefunction.
          IDoAtm=1111111
          Direct CPHF calculation.
          Differentiating once with respect to electric field.
                with respect to dipole field.
          Differentiating once with respect to nuclear coordinates.
          Requested convergence is 1.0D-08 RMS, and 1.0D-07 maximum.
          Secondary convergence is 1.0D-12 RMS, and 1.0D-12 maximum.
          NewPWx=T KeepS1=F KeepF1=F KeepIn=T MapXYZ=F SortEE=F KeepMc=T.
          MDV=     524287586 using IRadAn=       1.
 Generate precomputed XC quadrature information.
 Keep R1 and R2 ints in memory in canonical form, NReq=214104490.
 FoFCou: FMM=F IPFlag=           0 FMFlag=           0 FMFlg1=           0
         NFxFlg=           0 DoJE=F BraDBF=F KetDBF=F FulRan=T
         wScrn=  0.000000 ICntrl=     600 IOpCl=  0 I1Cent=           0 NGrid=           0
         NMat0=    1 NMatS0=  14535 NMatT0=    0 NMatD0=    1 NMtDS0=    0 NMtDT0=    0
 Symmetry not used in FoFCou.
          Solving linear equations simultaneously, MaxMat=       0.
          There are    24 degrees of freedom in the 1st order CPHF.  IDoFFX=6 NUNeed=     3.
     21 vectors produced by pass  0 Test12= 4.10D-14 4.17D-09 XBig12= 2.32D+02 9.45D+00.
 AX will form    21 AO Fock derivatives at one time.
     21 vectors produced by pass  1 Test12= 4.10D-14 4.17D-09 XBig12= 1.30D+02 2.03D+00.
     21 vectors produced by pass  2 Test12= 4.10D-14 4.17D-09 XBig12= 1.36D+01 1.66D+00.
     21 vectors produced by pass  3 Test12= 4.10D-14 4.17D-09 XBig12= 6.78D-01 2.18D-01.
     21 vectors produced by pass  4 Test12= 4.10D-14 4.17D-09 XBig12= 1.76D-02 3.54D-02.
     21 vectors produced by pass  5 Test12= 4.10D-14 4.17D-09 XBig12= 3.00D-04 4.49D-03.
     21 vectors produced by pass  6 Test12= 4.10D-14 4.17D-09 XBig12= 4.43D-06 5.47D-04.
     18 vectors produced by pass  7 Test12= 4.10D-14 4.17D-09 XBig12= 2.70D-08 2.37D-05.
      9 vectors produced by pass  8 Test12= 4.10D-14 4.17D-09 XBig12= 1.40D-10 1.87D-06.
      3 vectors produced by pass  9 Test12= 4.10D-14 4.17D-09 XBig12= 9.68D-13 2.07D-07.
      3 vectors produced by pass 10 Test12= 4.10D-14 4.17D-09 XBig12= 2.93D-15 7.81D-09.
 InvSVY:  IOpt=1 It=  1 EMax= 7.11D-15
 Solved reduced A of dimension   180 with    24 vectors.
 FullF1:  Do perturbations    1 to     3.
 Isotropic polarizability for W=    0.000000       63.81 Bohr**3.
 End of Minotr F.D. properties file   721 does not exist.
 End of Minotr F.D. properties file   722 does not exist.
 End of Minotr F.D. properties file   788 does not exist.
 Leave Link 1002 at Tue Oct 20 10:31:25 2015, MaxMem=   524288000 cpu:       349.9
 (Enter /opt/g09/l701.exe)
 Compute integral second derivatives.
 ... and contract with generalized density number  0.
 Leave Link  701 at Tue Oct 20 10:31:26 2015, MaxMem=   524288000 cpu:         2.2
 (Enter /opt/g09/l702.exe)
 L702 exits ... SP integral derivatives will be done elsewhere.
 Leave Link  702 at Tue Oct 20 10:31:26 2015, MaxMem=   524288000 cpu:         0.2
 (Enter /opt/g09/l703.exe)
 Compute integral second derivatives, UseDBF=F ICtDFT=           0.
 Integral derivatives from FoFJK, PRISM(SPDF).
 Calling FoFJK, ICntrl=    100127 FMM=F ISym2X=0 I1Cent= 0 IOpClX= 1 NMat=1 NMatS=1 NMatT=0.
 FoFJK:  IHMeth= 1 ICntrl=  100127 DoSepK=F KAlg= 0 I1Cent=   0 FoldK=F
 IRaf=         0 NMat=   1 IRICut=       1 DoRegI=T DoRafI=F ISym2E= 0.
 FoFCou: FMM=F IPFlag=           0 FMFlag=      100000 FMFlg1=         800
         NFxFlg=           0 DoJE=F BraDBF=F KetDBF=F FulRan=T
         wScrn=  0.000000 ICntrl=  100127 IOpCl=  1 I1Cent=           0 NGrid=           0
         NMat0=    1 NMatS0=      1 NMatT0=    0 NMatD0=    1 NMtDS0=    0 NMtDT0=    0
 Symmetry not used in FoFCou.
 Leave Link  703 at Tue Oct 20 10:32:11 2015, MaxMem=   524288000 cpu:       359.8
 (Enter /opt/g09/l716.exe)
 Dipole        = 6.56229784D-01-2.71302405D-01 3.72139613D-02
 Polarizability= 5.99542315D+01-1.64324738D+01 7.59567946D+01
                 4.48008699D-02 1.14045656D+00 5.55172124D+01
 -------------------------------------------------------------------
 Center     Atomic                   Forces (Hartrees/Bohr)
 Number     Number              X              Y              Z
 -------------------------------------------------------------------
      1        8           0.000000264    0.000005415    0.000002818
      2        8           0.000001040   -0.000001689   -0.000007187
      3       17          -0.000001854    0.000000618    0.000000883
      4        8           0.000000691   -0.000000859   -0.000001245
      5        8           0.000000068   -0.000000512    0.000002956
      6        8           0.000001173   -0.000004376   -0.000000214
      7       17          -0.000001382    0.000001402    0.000001989
 -------------------------------------------------------------------
 Cartesian Forces:  Max     0.000007187 RMS     0.000002561
 Force constants in Cartesian coordinates: 
                1             2             3             4             5 
      1  0.816560D-02
      2 -0.278633D-01  0.390356D+00
      3 -0.975050D-02  0.383096D+00  0.447085D+00
      4 -0.439399D-02  0.232373D-01  0.125425D-01  0.481198D-02
      5  0.256376D-01 -0.383786D+00 -0.385919D+00 -0.245319D-01  0.388399D+00
      6  0.153310D-01 -0.391170D+00 -0.435960D+00 -0.161988D-01  0.392509D+00
      7 -0.856070D-03  0.141231D-02  0.115487D-02 -0.797141D-03 -0.107054D-02
      8  0.804452D-03  0.399181D-02  0.535347D-02  0.852290D-03 -0.472766D-02
      9 -0.220555D-03 -0.399721D-04  0.115797D-04  0.136583D-03  0.116623D-03
     10 -0.910398D-03  0.174509D-03  0.777115D-03 -0.217129D-03 -0.885356D-03
     11 -0.598010D-03 -0.146375D-02 -0.199751D-02 -0.798329D-04  0.160704D-02
     12 -0.199302D-03  0.673315D-04 -0.121848D-03  0.115373D-04 -0.122986D-03
     13  0.158846D-03  0.152032D-03  0.297024D-03  0.251335D-03 -0.252200D-03
     14 -0.153651D-03 -0.103394D-02 -0.129897D-02 -0.162227D-03  0.114618D-02
     15  0.260038D-03  0.404763D-03  0.612842D-03  0.843177D-05 -0.556571D-03
     16  0.144490D-03  0.103443D-03  0.202414D-03  0.112101D-03 -0.107286D-03
     17 -0.144278D-03 -0.953460D-03 -0.115888D-02 -0.121633D-03  0.103790D-02
     18 -0.135290D-03 -0.383414D-03 -0.519940D-03  0.124706D-04  0.422678D-03
     19 -0.230849D-02  0.278369D-02 -0.522344D-02  0.232839D-03  0.120972D-02
     20  0.231716D-02 -0.711015D-02  0.192554D-02  0.806054D-03 -0.367603D-02
     21 -0.528536D-02  0.802553D-02 -0.111076D-01  0.348723D-02 -0.644896D-02
                6             7             8             9            10 
      6  0.430344D+00
      7 -0.124414D-02  0.390087D+00
      8 -0.509504D-02 -0.121553D+00  0.384765D+00
      9  0.427816D-03 -0.497903D-03 -0.947701D-03  0.504227D+00
     10 -0.795370D-03 -0.110796D+00  0.906604D-01  0.426385D-02  0.120920D+00
     11  0.187229D-02  0.108191D+00 -0.256603D+00 -0.894169D-02 -0.138886D+00
     12 -0.157204D-03  0.492114D-02 -0.876213D-02 -0.598509D-01 -0.627341D-02
     13 -0.310283D-03 -0.144499D+00  0.199978D-01 -0.120378D+00 -0.418396D-02
     14  0.124322D-02  0.993852D-02 -0.640718D-01  0.150518D-01  0.261166D-01
     15 -0.645422D-03 -0.109937D+00  0.281581D-01 -0.215097D+00 -0.562788D-02
     16 -0.136326D-03 -0.132296D+00  0.110610D-01  0.116638D+00 -0.320703D-02
     17  0.109964D-02  0.235678D-02 -0.618262D-01 -0.504474D-02  0.243718D-01
     18  0.320970D-03  0.105492D+00 -0.185554D-01 -0.228390D+00  0.776017D-02
     19  0.335390D-02 -0.843886D-03 -0.182306D-02  0.579729D-04 -0.160609D-02
     20 -0.458749D-03  0.724596D-03 -0.152772D-02 -0.194322D-03 -0.155159D-02
     21  0.566997D-02  0.110947D-03 -0.151394D-03 -0.132849D-02 -0.104470D-03
               11            12            13            14            15 
     11  0.244070D+00
     12  0.970147D-02  0.528595D-01
     13  0.163170D-01 -0.136700D-01  0.123673D+00
     14  0.503232D-02  0.249808D-01 -0.395400D-01  0.468996D-01
     15  0.103379D-01  0.513676D-02  0.126054D+00 -0.403909D-01  0.240913D+00
     16  0.146832D-01  0.151239D-01  0.250510D-01  0.415468D-02 -0.105659D-01
     17  0.735043D-02 -0.260630D-01  0.360042D-02  0.120922D-01  0.231377D-02
     18 -0.109704D-01  0.173918D-02  0.791227D-02  0.400676D-03 -0.313195D-01
     19  0.372783D-03  0.861209D-04 -0.451103D-03 -0.353920D-03 -0.192158D-03
     20  0.744844D-05  0.198494D-03 -0.274954D-03 -0.645841D-04 -0.267049D-03
     21 -0.199631D-05  0.394551D-03  0.947254D-04  0.133586D-04  0.399534D-03
               16            17            18            19            20 
     16  0.110622D+00
     17 -0.296674D-01  0.423816D-01
     18 -0.121170D+00  0.287737D-01  0.257703D+00
     19 -0.426531D-03 -0.395627D-03  0.128605D-03  0.540326D-02
     20 -0.227676D-03 -0.824000D-04  0.312147D-03 -0.179359D-02  0.124534D-01
     21 -0.920597D-04  0.795227D-04  0.467169D-03  0.178899D-02 -0.151606D-02
               21 
     21  0.550490D-02
 FormGI is forming the generalized inverse of G from B-inverse, IUseBI=4.
 Force constants in internal coordinates: 
                1             2             3             4             5 
      1  0.766046D+00
      2 -0.436507D-03  0.739602D-02
      3  0.363044D-02  0.497569D-03  0.133121D-01
      4  0.307367D-02 -0.136476D-02 -0.319663D-03  0.182135D-02
      5  0.160121D-02 -0.998933D-03 -0.964438D-03  0.931984D-03  0.337215D+00
      6 -0.115345D-02  0.874061D-04  0.294722D-03 -0.208741D-03  0.191843D-01
      7 -0.579110D-03  0.180140D-03  0.131889D-03 -0.916442D-04  0.193907D-01
      8  0.478687D-03 -0.653282D-03  0.131807D-03  0.333978D-02 -0.151721D-02
      9 -0.105561D-01  0.187331D-01  0.297738D-02 -0.145480D-02 -0.722746D-02
     10 -0.217891D-02 -0.851922D-03 -0.288690D-04 -0.298674D-03  0.112105D-01
     11 -0.221953D-02 -0.112076D-02  0.186562D-04 -0.791937D-04  0.112460D-01
     12  0.124950D-02  0.223862D-03  0.533555D-04  0.318541D-03 -0.140278D-01
     13 -0.629802D-01  0.645556D-02 -0.646381D-03 -0.539245D-03  0.202025D-02
     14  0.374729D-01  0.453722D-02 -0.392674D-03  0.815232D-03  0.239595D-02
     15 -0.222030D-01  0.681727D-02  0.826905D-03 -0.378815D-02 -0.949773D-03
     16 -0.154285D-01 -0.155313D-02 -0.158455D-03  0.189749D-03 -0.315662D-04
     17  0.476129D-01  0.213133D-02  0.266222D-03 -0.450671D-03 -0.715989D-03
     18 -0.448215D-01 -0.445374D-03 -0.348039D-03  0.267791D-03 -0.107989D-02
     19  0.450321D-01  0.473329D-03  0.335277D-03 -0.358239D-03  0.108465D-02
     20 -0.474022D-01 -0.210338D-02 -0.278985D-03  0.360224D-03  0.720757D-03
                6             7             8             9            10 
      6  0.331943D+00
      7  0.202984D-01  0.331236D+00
      8  0.463263D-03  0.300017D-03  0.242216D-01
      9  0.157771D-02  0.189085D-02  0.217908D-01  0.852974D-01
     10  0.115838D-01 -0.151648D-01 -0.317157D-03 -0.244063D-02  0.213729D+00
     11 -0.151119D-01  0.121737D-01 -0.273203D-03 -0.303680D-02 -0.333351D-01
     12  0.734259D-02  0.709665D-02 -0.139411D-04  0.229980D-03 -0.833159D-01
     13 -0.975028D-03  0.929615D-04  0.124105D-02  0.214066D-01 -0.143045D-02
     14 -0.575006D-03 -0.679993D-03  0.539928D-02  0.177975D-01 -0.191991D-02
     15  0.101287D-03  0.396321D-03 -0.171491D-01  0.727994D-02 -0.492622D-03
     16 -0.191382D-02  0.218994D-02  0.164989D-02 -0.346842D-02  0.170306D-02
     17 -0.472693D-02 -0.289490D-02 -0.193298D-02  0.426445D-02 -0.288268D-01
     18 -0.381142D-02 -0.360252D-02  0.247933D-02  0.108827D-02 -0.286134D-01
     19  0.262946D-02  0.464465D-02 -0.254952D-02 -0.921620D-03  0.292871D-01
     20  0.354496D-02  0.393703D-02  0.186278D-02 -0.409780D-02  0.295005D-01
               11            12            13            14            15 
     11  0.213801D+00
     12 -0.834059D-01  0.122253D+00
     13 -0.189321D-02  0.203724D-03  0.157559D-01
     14 -0.165826D-02  0.329639D-03  0.590860D-02  0.107636D-01
     15 -0.698982D-03  0.959674D-04  0.757002D-02 -0.259006D-03  0.204868D-01
     16 -0.701345D-03 -0.105262D-03 -0.852596D-03 -0.324209D-02 -0.255071D-02
     17 -0.298957D-01 -0.671014D-02 -0.720380D-03  0.422334D-02  0.228580D-02
     18 -0.288000D-01 -0.692296D-02  0.390040D-02 -0.140965D-02 -0.110710D-02
     19  0.282216D-01  0.685305D-02 -0.377183D-02  0.110241D-02  0.122589D-02
     20  0.293173D-01  0.664022D-02  0.848957D-03 -0.453058D-02 -0.216700D-02
               16            17            18            19            20 
     16  0.512970D-02
     17 -0.486574D-03  0.387762D-01
     18  0.119699D-02  0.312076D-01  0.372043D-01
     19  0.367531D-03 -0.304690D-01 -0.370328D-01  0.377634D-01
     20  0.205110D-02 -0.380375D-01 -0.310362D-01  0.311996D-01  0.382010D-01
 Leave Link  716 at Tue Oct 20 10:32:11 2015, MaxMem=   524288000 cpu:         0.3
 (Enter /opt/g09/l103.exe)

 GradGradGradGradGradGradGradGradGradGradGradGradGradGradGradGradGradGrad
 Berny optimization.
 Red2BG is reusing G-inverse.
 Internal  Forces:  Max     0.000005958 RMS     0.000001502
 Search for a local minimum.
 Step number   1 out of a maximum of  100
 All quantities printed in internal units (Hartrees-Bohrs-Radians)
 RMS Force = .15017D-05 SwitMx=.10000D-02 MixMth= 2
 Mixed Optimization -- En-DIIS/RFO-DIIS
 Second derivative matrix not updated -- analytic derivatives used.
 The second derivative matrix:
                          R1        R2        R3        R4        R5
           R1           0.76605
           R2          -0.00044   0.00740
           R3           0.00363   0.00050   0.01331
           R4           0.00307  -0.00136  -0.00032   0.00182
           R5           0.00160  -0.00100  -0.00096   0.00093   0.33721
           R6          -0.00115   0.00009   0.00029  -0.00021   0.01918
           R7          -0.00058   0.00018   0.00013  -0.00009   0.01939
           A1           0.00048  -0.00065   0.00013   0.00334  -0.00152
           A2          -0.01056   0.01873   0.00298  -0.00145  -0.00723
           A3          -0.00218  -0.00085  -0.00003  -0.00030   0.01121
           A4          -0.00222  -0.00112   0.00002  -0.00008   0.01125
           A5           0.00125   0.00022   0.00005   0.00032  -0.01403
           A6          -0.06298   0.00646  -0.00065  -0.00054   0.00202
           A7           0.03747   0.00454  -0.00039   0.00082   0.00240
           D1          -0.02220   0.00682   0.00083  -0.00379  -0.00095
           D2          -0.01543  -0.00155  -0.00016   0.00019  -0.00003
           D3           0.04761   0.00213   0.00027  -0.00045  -0.00072
           D4          -0.04482  -0.00045  -0.00035   0.00027  -0.00108
           D5           0.04503   0.00047   0.00034  -0.00036   0.00108
           D6          -0.04740  -0.00210  -0.00028   0.00036   0.00072
                          R6        R7        A1        A2        A3
           R6           0.33194
           R7           0.02030   0.33124
           A1           0.00046   0.00030   0.02422
           A2           0.00158   0.00189   0.02179   0.08530
           A3           0.01158  -0.01516  -0.00032  -0.00244   0.21373
           A4          -0.01511   0.01217  -0.00027  -0.00304  -0.03334
           A5           0.00734   0.00710  -0.00001   0.00023  -0.08332
           A6          -0.00098   0.00009   0.00124   0.02141  -0.00143
           A7          -0.00058  -0.00068   0.00540   0.01780  -0.00192
           D1           0.00010   0.00040  -0.01715   0.00728  -0.00049
           D2          -0.00191   0.00219   0.00165  -0.00347   0.00170
           D3          -0.00473  -0.00289  -0.00193   0.00426  -0.02883
           D4          -0.00381  -0.00360   0.00248   0.00109  -0.02861
           D5           0.00263   0.00464  -0.00255  -0.00092   0.02929
           D6           0.00354   0.00394   0.00186  -0.00410   0.02950
                          A4        A5        A6        A7        D1
           A4           0.21380
           A5          -0.08341   0.12225
           A6          -0.00189   0.00020   0.01576
           A7          -0.00166   0.00033   0.00591   0.01076
           D1          -0.00070   0.00010   0.00757  -0.00026   0.02049
           D2          -0.00070  -0.00011  -0.00085  -0.00324  -0.00255
           D3          -0.02990  -0.00671  -0.00072   0.00422   0.00229
           D4          -0.02880  -0.00692   0.00390  -0.00141  -0.00111
           D5           0.02822   0.00685  -0.00377   0.00110   0.00123
           D6           0.02932   0.00664   0.00085  -0.00453  -0.00217
                          D2        D3        D4        D5        D6
           D2           0.00513
           D3          -0.00049   0.03878
           D4           0.00120   0.03121   0.03720
           D5           0.00037  -0.03047  -0.03703   0.03776
           D6           0.00205  -0.03804  -0.03104   0.03120   0.03820
 ITU=  0
     Eigenvalues ---    0.00024   0.00089   0.00158   0.00486   0.00849
     Eigenvalues ---    0.01380   0.04326   0.10479   0.14462   0.23729
     Eigenvalues ---    0.28405   0.32115   0.32770   0.37421   0.78542
 RFO step:  Lambda= 0.00000000D+00 EMin= 2.44237533D-04
 Linear search not attempted -- first point.
 Iteration  1 RMS(Cart)=  0.00001676 RMS(Int)=  0.00000000
 Iteration  2 RMS(Cart)=  0.00000000 RMS(Int)=  0.00000000
 ITry= 1 IFail=0 DXMaxC= 3.57D-05 DCOld= 1.00D+10 DXMaxT= 2.56D+00 DXLimC= 3.00D+00 Rises=F
 Variable       Old X    -DE/DX   Delta X   Delta X   Delta X     New X
                                 (Linear)    (Quad)   (Total)
    R1        2.25132   0.00001   0.00000   0.00001   0.00001   2.25133
    R2        6.07260   0.00000   0.00000   0.00000   0.00000   6.07260
    R3        4.37746   0.00000   0.00000   0.00000   0.00000   4.37746
    R4        5.96604   0.00000   0.00000  -0.00003  -0.00003   5.96601
    R5        2.83059   0.00000   0.00000   0.00000   0.00000   2.83059
    R6        2.82851   0.00000   0.00000  -0.00001  -0.00001   2.82850
    R7        2.82914   0.00000   0.00000  -0.00001  -0.00001   2.82913
    A1        2.04568   0.00000   0.00000   0.00000   0.00000   2.04569
    A2        1.38107   0.00000   0.00000   0.00000   0.00000   1.38107
    A3        1.98543   0.00000   0.00000   0.00000   0.00000   1.98543
    A4        1.98493   0.00000   0.00000   0.00000   0.00000   1.98492
    A5        1.99138   0.00000   0.00000   0.00000   0.00000   1.99139
    A6        1.90406   0.00000   0.00000   0.00000   0.00000   1.90406
    A7        2.17817   0.00000   0.00000   0.00001   0.00001   2.17818
    D1       -2.12298   0.00000   0.00000  -0.00001  -0.00001  -2.12299
    D2       -0.32371   0.00000   0.00000  -0.00002  -0.00002  -0.32373
    D3        2.18373   0.00000   0.00000   0.00002   0.00002   2.18375
    D4        1.89347   0.00000   0.00000   0.00003   0.00003   1.89349
    D5       -1.77986   0.00000   0.00000   0.00002   0.00002  -1.77985
    D6       -2.07013   0.00000   0.00000   0.00002   0.00002  -2.07010
         Item               Value     Threshold  Converged?
 Maximum Force            0.000006     0.000015     YES
 RMS     Force            0.000002     0.000010     YES
 Maximum Displacement     0.000036     0.000060     YES
 RMS     Displacement     0.000017     0.000040     YES
 Predicted change in Energy=-3.724607D-11
 Optimization completed.
    -- Stationary point found.
                           ----------------------------
                           !   Optimized Parameters   !
                           ! (Angstroms and Degrees)  !
 --------------------------                            --------------------------
 ! Name  Definition              Value          Derivative Info.                !
 --------------------------------------------------------------------------------
 ! R1    R(1,2)                  1.1913         -DE/DX =    0.0                 !
 ! R2    R(1,4)                  3.2135         -DE/DX =    0.0                 !
 ! R3    R(1,7)                  2.3165         -DE/DX =    0.0                 !
 ! R4    R(2,4)                  3.1571         -DE/DX =    0.0                 !
 ! R5    R(3,4)                  1.4979         -DE/DX =    0.0                 !
 ! R6    R(3,5)                  1.4968         -DE/DX =    0.0                 !
 ! R7    R(3,6)                  1.4971         -DE/DX =    0.0                 !
 ! A1    A(2,1,7)              117.2091         -DE/DX =    0.0                 !
 ! A2    A(4,1,7)               79.1295         -DE/DX =    0.0                 !
 ! A3    A(4,3,5)              113.7566         -DE/DX =    0.0                 !
 ! A4    A(4,3,6)              113.7278         -DE/DX =    0.0                 !
 ! A5    A(5,3,6)              114.0979         -DE/DX =    0.0                 !
 ! A6    A(1,4,3)              109.0949         -DE/DX =    0.0                 !
 ! A7    A(2,4,3)              124.8002         -DE/DX =    0.0                 !
 ! D1    D(2,1,4,7)           -121.6378         -DE/DX =    0.0                 !
 ! D2    D(7,1,4,3)            -18.5474         -DE/DX =    0.0                 !
 ! D3    D(5,3,4,1)            125.1185         -DE/DX =    0.0                 !
 ! D4    D(5,3,4,2)            108.4877         -DE/DX =    0.0                 !
 ! D5    D(6,3,4,1)           -101.9787         -DE/DX =    0.0                 !
 ! D6    D(6,3,4,2)           -118.6095         -DE/DX =    0.0                 !
 --------------------------------------------------------------------------------
 Lowest energy point so far.  Saving SCF results.
 GradGradGradGradGradGradGradGradGradGradGradGradGradGradGradGradGradGrad

 Largest change from initial coordinates is atom    0       0.000 Angstoms.
 Leave Link  103 at Tue Oct 20 10:32:11 2015, MaxMem=   524288000 cpu:         0.1
 (Enter /opt/g09/l202.exe)
                          Input orientation:                          
 ---------------------------------------------------------------------
 Center     Atomic      Atomic             Coordinates (Angstroms)
 Number     Number       Type             X           Y           Z
 ---------------------------------------------------------------------
      1          8           0        2.417320   -0.641850    0.493830
      2          8           0        2.458690   -1.458660   -0.372440
      3         17           0       -1.469880   -0.033110    0.005470
      4          8           0       -0.678740   -1.303500   -0.056710
      5          8           0       -2.285600    0.229920   -1.221630
      6          8           0       -2.220100    0.147200    1.288440
      7         17           0        1.615030    1.457520   -0.067350
 ---------------------------------------------------------------------
                    Distance matrix (angstroms):
                    1          2          3          4          5
     1  O    0.000000
     2  O    1.191350   0.000000
     3  Cl   3.964768   4.196269   0.000000
     4  O    3.213481   3.157092   1.497885   0.000000
     5  O    5.081362   5.106928   1.496783   2.508070   0.000000
     6  O    4.770710   5.218082   1.497115   2.507937   2.512287
     7  Cl   2.316451   3.051057   3.426945   3.589530   4.249033
                    6          7
     6  O    0.000000
     7  Cl   4.273561   0.000000
 Symmetry turned off by external request.
 Stoichiometry    Cl2O5(3)
 Framework group  C1[X(Cl2O5)]
 Deg. of freedom    15
 Full point group                 C1      NOp   1
 Rotational constants (GHZ):      2.5263632      0.8661925      0.7543153
 Leave Link  202 at Tue Oct 20 10:32:11 2015, MaxMem=   524288000 cpu:         0.1
 (Enter /opt/g09/l716.exe)
 Dipole        = 6.56229784D-01-2.71302405D-01 3.72139613D-02
 Polarizability= 5.99542315D+01-1.64324738D+01 7.59567946D+01
                 4.48008699D-02 1.14045656D+00 5.55172124D+01
 Full mass-weighted force constant matrix:
 Low frequencies ---   -2.2258    0.0014    0.0021    0.0022    4.0604    4.6656
 Low frequencies ---   15.0619   26.5286   43.1533
 Diagonal vibrational polarizability:
       41.1841374       6.2966213      64.6319264
 Harmonic frequencies (cm**-1), IR intensities (KM/Mole), Raman scattering
 activities (A**4/AMU), depolarization ratios for plane and unpolarized
 incident light, reduced masses (AMU), force constants (mDyne/A),
 and normal coordinates:
                      1                      2                      3
                      A                      A                      A
 Frequencies --     15.0514                26.5096                43.1501
 Red. masses --     16.5342                18.1218                16.2860
 Frc consts  --      0.0022                 0.0075                 0.0179
 IR Inten    --      0.1055                 1.2353                 0.3932
  Atom  AN      X      Y      Z        X      Y      Z        X      Y      Z
     1   8    -0.14   0.05   0.28    -0.01   0.10   0.04    -0.40  -0.16   0.11
     2   8     0.07  -0.04   0.38    -0.07  -0.06   0.18     0.79   0.20  -0.17
     3  17     0.01   0.00  -0.09     0.03  -0.02   0.18    -0.05   0.01   0.04
     4   8    -0.03  -0.01  -0.52    -0.02  -0.04  -0.03    -0.21  -0.10   0.08
     5   8    -0.37   0.19   0.20     0.46   0.50   0.01     0.03   0.11   0.01
     6   8     0.42  -0.18   0.17    -0.39  -0.47   0.00    -0.08   0.11   0.01
     7  17     0.01   0.00  -0.14    -0.02   0.01  -0.28    -0.01  -0.08  -0.06
                      4                      5                      6
                      A                      A                      A
 Frequencies --     51.0584                61.9849                80.5553
 Red. masses --     18.3866                21.0664                20.3518
 Frc consts  --      0.0282                 0.0477                 0.0778
 IR Inten    --      0.2805                 3.8309                 0.1217
  Atom  AN      X      Y      Z        X      Y      Z        X      Y      Z
     1   8     0.57   0.03  -0.02     0.58   0.14  -0.08    -0.25  -0.18   0.02
     2   8     0.35  -0.09   0.08     0.17  -0.05   0.09     0.06  -0.11  -0.02
     3  17    -0.28   0.11   0.01     0.10   0.02  -0.03     0.13   0.20   0.02
     4   8     0.08   0.34  -0.05    -0.29  -0.22  -0.05     0.61   0.51   0.02
     5   8    -0.34  -0.06   0.01     0.14   0.26  -0.01     0.06  -0.10   0.00
     6   8    -0.36  -0.17   0.00     0.19   0.27  -0.01     0.04  -0.12   0.00
     7  17     0.14  -0.13  -0.02    -0.46  -0.21   0.05    -0.37  -0.20  -0.02
                      7                      8                      9
                      A                      A                      A
 Frequencies --    137.2235               313.6030               425.4124
 Red. masses --     21.6221                16.4240                17.2078
 Frc consts  --      0.2399                 0.9517                 1.8348
 IR Inten    --      0.1611                 0.0130                13.0149
  Atom  AN      X      Y      Z        X      Y      Z        X      Y      Z
     1   8    -0.12   0.51   0.05     0.31  -0.49   0.59     0.00   0.00   0.00
     2   8    -0.23   0.61  -0.06    -0.21   0.41  -0.28     0.00   0.00   0.00
     3  17     0.00   0.01   0.00     0.00   0.00   0.00     0.19  -0.17  -0.01
     4   8     0.02   0.02   0.00     0.00   0.00   0.00     0.31  -0.16  -0.02
     5   8     0.00   0.00   0.00     0.00   0.00   0.00    -0.34   0.25   0.47
     6   8     0.00  -0.01   0.00     0.00   0.00   0.00    -0.37   0.28  -0.44
     7  17     0.15  -0.52   0.01    -0.05   0.03  -0.14     0.00   0.00   0.00
                     10                     11                     12
                      A                      A                      A
 Frequencies --    427.4752               509.3557               822.8386
 Red. masses --     17.1960                21.2482                17.1191
 Frc consts  --      1.8514                 3.2480                 6.8291
 IR Inten    --     13.3906                41.6548                 6.1824
  Atom  AN      X      Y      Z        X      Y      Z        X      Y      Z
     1   8     0.00   0.00   0.00     0.01   0.00   0.00     0.00   0.00   0.00
     2   8     0.00   0.00   0.00     0.00   0.00   0.00     0.00   0.00   0.00
     3  17    -0.01   0.01  -0.25     0.36   0.38   0.00    -0.18  -0.17   0.00
     4   8     0.02  -0.02   0.71    -0.50  -0.07   0.01    -0.26   0.48   0.02
     5   8    -0.28   0.37  -0.06    -0.14  -0.39   0.25     0.33  -0.07   0.45
     6   8     0.27  -0.36  -0.10    -0.16  -0.38  -0.26     0.31  -0.04  -0.48
     7  17     0.00   0.00   0.00     0.00   0.00   0.00     0.00   0.00   0.00
                     13                     14                     15
                      A                      A                      A
 Frequencies --    921.8217               926.1946              1627.7697
 Red. masses --     20.7250                20.7227                15.9952
 Frc consts  --     10.3762                10.4737                24.9704
 IR Inten    --     77.9357                92.9980               223.4578
  Atom  AN      X      Y      Z        X      Y      Z        X      Y      Z
     1   8     0.00   0.00   0.00     0.00   0.00   0.00    -0.02   0.48   0.52
     2   8     0.00   0.00   0.00     0.00   0.00   0.00     0.02  -0.48  -0.52
     3  17    -0.02   0.02   0.50    -0.35   0.35  -0.03     0.00   0.00   0.00
     4   8     0.04  -0.06  -0.05     0.37  -0.61  -0.02     0.00   0.00   0.00
     5   8    -0.30   0.08  -0.48     0.24  -0.09   0.31     0.00   0.00   0.00
     6   8     0.31  -0.06  -0.56     0.16  -0.06  -0.22     0.00   0.00   0.00
     7  17     0.00   0.00   0.00     0.00   0.00   0.00     0.00   0.00   0.00

 -------------------
 - Thermochemistry -
 -------------------
 Temperature   298.150 Kelvin.  Pressure   1.00000 Atm.
 Atom     1 has atomic number  8 and mass  15.99491
 Atom     2 has atomic number  8 and mass  15.99491
 Atom     3 has atomic number 17 and mass  34.96885
 Atom     4 has atomic number  8 and mass  15.99491
 Atom     5 has atomic number  8 and mass  15.99491
 Atom     6 has atomic number  8 and mass  15.99491
 Atom     7 has atomic number 17 and mass  34.96885
 Molecular mass:   149.91228 amu.
 Principal axes and moments of inertia in atomic units:
                           1         2         3
     Eigenvalues --   714.363312083.533572392.55555
           X            0.99998  -0.00614   0.00024
           Y            0.00614   0.99998   0.00110
           Z           -0.00025  -0.00110   1.00000
 This molecule is an asymmetric top.
 Rotational symmetry number  1.
 Warning -- assumption of classical behavior for rotation
           may cause significant error
 Rotational temperatures (Kelvin)      0.12125     0.04157     0.03620
 Rotational constants (GHZ):           2.52636     0.86619     0.75432
 Zero-point vibrational energy      38220.7 (Joules/Mol)
                                    9.13497 (Kcal/Mol)
 Warning -- explicit consideration of  11 degrees of freedom as
           vibrations may cause significant error
 Vibrational temperatures:     21.66    38.14    62.08    73.46    89.18
          (Kelvin)            115.90   197.43   451.20   612.07   615.04
                              732.85  1183.88  1326.29  1332.59  2341.99
 
 Zero-point correction=                           0.014558 (Hartree/Particle)
 Thermal correction to Energy=                    0.024479
 Thermal correction to Enthalpy=                  0.025423
 Thermal correction to Gibbs Free Energy=        -0.027413
 Sum of electronic and zero-point Energies=          -1295.911674
 Sum of electronic and thermal Energies=             -1295.901752
 Sum of electronic and thermal Enthalpies=           -1295.900808
 Sum of electronic and thermal Free Energies=        -1295.953645
 
                     E (Thermal)             CV                S
                      KCal/Mol        Cal/Mol-Kelvin    Cal/Mol-Kelvin
 Total                   15.361             27.041            111.204
 Electronic               0.000              0.000              2.183
 Translational            0.889              2.981             40.925
 Rotational               0.889              2.981             29.656
 Vibrational             13.583             21.079             38.440
 Vibration     1          0.593              1.986              7.199
 Vibration     2          0.593              1.984              6.075
 Vibration     3          0.595              1.980              5.109
 Vibration     4          0.595              1.977              4.776
 Vibration     5          0.597              1.972              4.393
 Vibration     6          0.600              1.962              3.877
 Vibration     7          0.614              1.916              2.842
 Vibration     8          0.701              1.648              1.343
 Vibration     9          0.787              1.415              0.874
[...]
     18 -0.135289D-03 -0.383414D-03 -0.519939D-03  0.124702D-04  0.422678D-03
     19 -0.230848D-02  0.278369D-02 -0.522343D-02  0.232837D-03  0.120972D-02
     20  0.231716D-02 -0.711014D-02  0.192554D-02  0.806057D-03 -0.367603D-02
     21 -0.528536D-02  0.802553D-02 -0.111076D-01  0.348722D-02 -0.644896D-02
                6             7             8             9            10 
      6  0.430344D+00
      7 -0.124414D-02  0.390087D+00
      8 -0.509504D-02 -0.121553D+00  0.384765D+00
      9  0.427817D-03 -0.497903D-03 -0.947702D-03  0.504228D+00
     10 -0.795368D-03 -0.110796D+00  0.906604D-01  0.426385D-02  0.120920D+00
     11  0.187229D-02  0.108191D+00 -0.256603D+00 -0.894169D-02 -0.138886D+00
     12 -0.157203D-03  0.492113D-02 -0.876213D-02 -0.598509D-01 -0.627341D-02
     13 -0.310283D-03 -0.144499D+00  0.199978D-01 -0.120378D+00 -0.418397D-02
     14  0.124322D-02  0.993854D-02 -0.640718D-01  0.150518D-01  0.261166D-01
     15 -0.645422D-03 -0.109937D+00  0.281582D-01 -0.215097D+00 -0.562788D-02
     16 -0.136326D-03 -0.132296D+00  0.110610D-01  0.116638D+00 -0.320704D-02
     17  0.109964D-02  0.235679D-02 -0.618262D-01 -0.504476D-02  0.243718D-01
     18  0.320970D-03  0.105492D+00 -0.185554D-01 -0.228390D+00  0.776017D-02
     19  0.335390D-02 -0.843876D-03 -0.182306D-02  0.579731D-04 -0.160609D-02
     20 -0.458747D-03  0.724596D-03 -0.152772D-02 -0.194323D-03 -0.155159D-02
     21  0.566997D-02  0.110948D-03 -0.151394D-03 -0.132849D-02 -0.104470D-03
               11            12            13            14            15 
     11  0.244070D+00
     12  0.970147D-02  0.528595D-01
     13  0.163170D-01 -0.136700D-01  0.123673D+00
     14  0.503232D-02  0.249808D-01 -0.395400D-01  0.468996D-01
     15  0.103379D-01  0.513676D-02  0.126054D+00 -0.403909D-01  0.240913D+00
     16  0.146833D-01  0.151239D-01  0.250510D-01  0.415467D-02 -0.105659D-01
     17  0.735042D-02 -0.260630D-01  0.360041D-02  0.120922D-01  0.231377D-02
     18 -0.109704D-01  0.173917D-02  0.791226D-02  0.400678D-03 -0.313195D-01
     19  0.372786D-03  0.861209D-04 -0.451103D-03 -0.353920D-03 -0.192158D-03
     20  0.744866D-05  0.198494D-03 -0.274953D-03 -0.645842D-04 -0.267048D-03
     21 -0.199609D-05  0.394551D-03  0.947257D-04  0.133585D-04  0.399533D-03
               16            17            18            19            20 
     16  0.110622D+00
     17 -0.296674D-01  0.423816D-01
     18 -0.121170D+00  0.287737D-01  0.257703D+00
     19 -0.426532D-03 -0.395626D-03  0.128604D-03  0.540325D-02
     20 -0.227676D-03 -0.823999D-04  0.312147D-03 -0.179359D-02  0.124534D-01
     21 -0.920600D-04  0.795230D-04  0.467168D-03  0.178899D-02 -0.151606D-02
               21 
     21  0.550489D-02
 FormGI is forming the generalized inverse of G from B-inverse, IUseBI=4.
 Force constants in internal coordinates: 
                1             2             3             4             5 
      1  0.766046D+00
      2 -0.436508D-03  0.739601D-02
      3  0.363044D-02  0.497567D-03  0.133121D-01
      4  0.307368D-02 -0.136475D-02 -0.319660D-03  0.182134D-02
      5  0.160121D-02 -0.998937D-03 -0.964436D-03  0.931984D-03  0.337215D+00
      6 -0.115345D-02  0.874070D-04  0.294721D-03 -0.208741D-03  0.191843D-01
      7 -0.579109D-03  0.180140D-03  0.131889D-03 -0.916443D-04  0.193907D-01
      8  0.478687D-03 -0.653281D-03  0.131813D-03  0.333978D-02 -0.151722D-02
      9 -0.105561D-01  0.187331D-01  0.297739D-02 -0.145480D-02 -0.722748D-02
     10 -0.217891D-02 -0.851923D-03 -0.288647D-04 -0.298672D-03  0.112105D-01
     11 -0.221954D-02 -0.112076D-02  0.186547D-04 -0.791931D-04  0.112460D-01
     12  0.124950D-02  0.223862D-03  0.533554D-04  0.318540D-03 -0.140278D-01
     13 -0.629802D-01  0.645555D-02 -0.646380D-03 -0.539242D-03  0.202024D-02
     14  0.374729D-01  0.453720D-02 -0.392671D-03  0.815233D-03  0.239593D-02
     15 -0.222030D-01  0.681726D-02  0.826907D-03 -0.378815D-02 -0.949777D-03
     16 -0.154285D-01 -0.155313D-02 -0.158463D-03  0.189749D-03 -0.315637D-04
     17  0.476129D-01  0.213133D-02  0.266219D-03 -0.450670D-03 -0.715985D-03
     18 -0.448215D-01 -0.445370D-03 -0.348040D-03  0.267790D-03 -0.107988D-02
     19  0.450321D-01  0.473326D-03  0.335276D-03 -0.358238D-03  0.108465D-02
     20 -0.474022D-01 -0.210337D-02 -0.278983D-03  0.360223D-03  0.720753D-03
                6             7             8             9            10 
      6  0.331943D+00
      7  0.202984D-01  0.331236D+00
      8  0.463264D-03  0.300016D-03  0.242216D-01
      9  0.157771D-02  0.189085D-02  0.217908D-01  0.852973D-01
     10  0.115838D-01 -0.151648D-01 -0.317155D-03 -0.244063D-02  0.213729D+00
     11 -0.151119D-01  0.121737D-01 -0.273204D-03 -0.303679D-02 -0.333351D-01
     12  0.734258D-02  0.709664D-02 -0.139416D-04  0.229977D-03 -0.833160D-01
     13 -0.975032D-03  0.929589D-04  0.124105D-02  0.214066D-01 -0.143049D-02
     14 -0.575008D-03 -0.679997D-03  0.539928D-02  0.177975D-01 -0.191994D-02
     15  0.101286D-03  0.396322D-03 -0.171491D-01  0.727992D-02 -0.492625D-03
     16 -0.191383D-02  0.218995D-02  0.164989D-02 -0.346840D-02  0.170303D-02
     17 -0.472693D-02 -0.289491D-02 -0.193298D-02  0.426445D-02 -0.288268D-01
     18 -0.381142D-02 -0.360252D-02  0.247933D-02  0.108827D-02 -0.286134D-01
     19  0.262946D-02  0.464465D-02 -0.254952D-02 -0.921621D-03  0.292871D-01
     20  0.354497D-02  0.393703D-02  0.186278D-02 -0.409779D-02  0.295005D-01
               11            12            13            14            15 
     11  0.213801D+00
     12 -0.834059D-01  0.122253D+00
     13 -0.189323D-02  0.203736D-03  0.157559D-01
     14 -0.165829D-02  0.329651D-03  0.590859D-02  0.107636D-01
     15 -0.698978D-03  0.959668D-04  0.757001D-02 -0.259014D-03  0.204868D-01
     16 -0.701301D-03 -0.105263D-03 -0.852577D-03 -0.324209D-02 -0.255070D-02
     17 -0.298957D-01 -0.671013D-02 -0.720357D-03  0.422336D-02  0.228580D-02
     18 -0.288000D-01 -0.692296D-02  0.390042D-02 -0.140963D-02 -0.110709D-02
     19  0.282216D-01  0.685304D-02 -0.377184D-02  0.110239D-02  0.122589D-02
     20  0.293173D-01  0.664021D-02  0.848941D-03 -0.453060D-02 -0.216700D-02
               16            17            18            19            20 
     16  0.512976D-02
     17 -0.486548D-03  0.387762D-01
     18  0.119699D-02  0.312077D-01  0.372043D-01
     19  0.367565D-03 -0.304690D-01 -0.370328D-01  0.377634D-01
     20  0.205110D-02 -0.380375D-01 -0.310362D-01  0.311996D-01  0.382010D-01
 Leave Link  716 at Tue Oct 20 10:34:06 2015, MaxMem=   524288000 cpu:         0.3
 (Enter /opt/g09/l103.exe)

 GradGradGradGradGradGradGradGradGradGradGradGradGradGradGradGradGradGrad
 Berny optimization.
 Red2BG is reusing G-inverse.
 Internal  Forces:  Max     0.000005959 RMS     0.000001497
 Search for a local minimum.
 Step number   1 out of a maximum of    2
 All quantities printed in internal units (Hartrees-Bohrs-Radians)
 Second derivative matrix not updated -- analytic derivatives used.
 The second derivative matrix:
                          R1        R2        R3        R4        R5
           R1           0.76605
           R2          -0.00044   0.00740
           R3           0.00363   0.00050   0.01331
           R4           0.00307  -0.00136  -0.00032   0.00182
           R5           0.00160  -0.00100  -0.00096   0.00093   0.33721
           R6          -0.00115   0.00009   0.00029  -0.00021   0.01918
           R7          -0.00058   0.00018   0.00013  -0.00009   0.01939
           A1           0.00048  -0.00065   0.00013   0.00334  -0.00152
           A2          -0.01056   0.01873   0.00298  -0.00145  -0.00723
           A3          -0.00218  -0.00085  -0.00003  -0.00030   0.01121
           A4          -0.00222  -0.00112   0.00002  -0.00008   0.01125
           A5           0.00125   0.00022   0.00005   0.00032  -0.01403
           A6          -0.06298   0.00646  -0.00065  -0.00054   0.00202
           A7           0.03747   0.00454  -0.00039   0.00082   0.00240
           D1          -0.02220   0.00682   0.00083  -0.00379  -0.00095
           D2          -0.01543  -0.00155  -0.00016   0.00019  -0.00003
           D3           0.04761   0.00213   0.00027  -0.00045  -0.00072
           D4          -0.04482  -0.00045  -0.00035   0.00027  -0.00108
           D5           0.04503   0.00047   0.00034  -0.00036   0.00108
           D6          -0.04740  -0.00210  -0.00028   0.00036   0.00072
                          R6        R7        A1        A2        A3
           R6           0.33194
           R7           0.02030   0.33124
           A1           0.00046   0.00030   0.02422
           A2           0.00158   0.00189   0.02179   0.08530
           A3           0.01158  -0.01516  -0.00032  -0.00244   0.21373
           A4          -0.01511   0.01217  -0.00027  -0.00304  -0.03334
           A5           0.00734   0.00710  -0.00001   0.00023  -0.08332
           A6          -0.00098   0.00009   0.00124   0.02141  -0.00143
           A7          -0.00058  -0.00068   0.00540   0.01780  -0.00192
           D1           0.00010   0.00040  -0.01715   0.00728  -0.00049
           D2          -0.00191   0.00219   0.00165  -0.00347   0.00170
           D3          -0.00473  -0.00289  -0.00193   0.00426  -0.02883
           D4          -0.00381  -0.00360   0.00248   0.00109  -0.02861
           D5           0.00263   0.00464  -0.00255  -0.00092   0.02929
           D6           0.00354   0.00394   0.00186  -0.00410   0.02950
                          A4        A5        A6        A7        D1
           A4           0.21380
           A5          -0.08341   0.12225
           A6          -0.00189   0.00020   0.01576
           A7          -0.00166   0.00033   0.00591   0.01076
           D1          -0.00070   0.00010   0.00757  -0.00026   0.02049
           D2          -0.00070  -0.00011  -0.00085  -0.00324  -0.00255
           D3          -0.02990  -0.00671  -0.00072   0.00422   0.00229
           D4          -0.02880  -0.00692   0.00390  -0.00141  -0.00111
           D5           0.02822   0.00685  -0.00377   0.00110   0.00123
           D6           0.02932   0.00664   0.00085  -0.00453  -0.00217
                          D2        D3        D4        D5        D6
           D2           0.00513
           D3          -0.00049   0.03878
           D4           0.00120   0.03121   0.03720
           D5           0.00037  -0.03047  -0.03703   0.03776
           D6           0.00205  -0.03804  -0.03104   0.03120   0.03820
 ITU=  0
     Eigenvalues ---    0.00024   0.00089   0.00158   0.00486   0.00849
     Eigenvalues ---    0.01380   0.04326   0.10479   0.14462   0.23729
     Eigenvalues ---    0.28405   0.32115   0.32770   0.37421   0.78542
 Angle between quadratic step and forces=  78.12 degrees.
 Linear search not attempted -- first point.
 Iteration  1 RMS(Cart)=  0.00001483 RMS(Int)=  0.00000000
 Iteration  2 RMS(Cart)=  0.00000000 RMS(Int)=  0.00000000
 ITry= 1 IFail=0 DXMaxC= 3.14D-05 DCOld= 1.00D+10 DXMaxT= 2.56D+00 DXLimC= 3.00D+00 Rises=F
 Variable       Old X    -DE/DX   Delta X   Delta X   Delta X     New X
                                 (Linear)    (Quad)   (Total)
    R1        2.25132   0.00001   0.00000   0.00001   0.00001   2.25133
    R2        6.07260   0.00000   0.00000   0.00000   0.00000   6.07260
    R3        4.37746   0.00000   0.00000   0.00000   0.00000   4.37746
    R4        5.96604   0.00000   0.00000  -0.00003  -0.00003   5.96601
    R5        2.83059   0.00000   0.00000   0.00000   0.00000   2.83059
    R6        2.82851   0.00000   0.00000   0.00000   0.00000   2.82850
    R7        2.82914   0.00000   0.00000  -0.00001  -0.00001   2.82913
    A1        2.04568   0.00000   0.00000   0.00000   0.00000   2.04569
    A2        1.38107   0.00000   0.00000   0.00000   0.00000   1.38107
    A3        1.98543   0.00000   0.00000   0.00000   0.00000   1.98543
    A4        1.98493   0.00000   0.00000   0.00000   0.00000   1.98492
    A5        1.99138   0.00000   0.00000   0.00000   0.00000   1.99139
    A6        1.90406   0.00000   0.00000   0.00000   0.00000   1.90406
    A7        2.17817   0.00000   0.00000   0.00000   0.00000   2.17818
    D1       -2.12298   0.00000   0.00000  -0.00001  -0.00001  -2.12299
    D2       -0.32371   0.00000   0.00000  -0.00002  -0.00002  -0.32373
    D3        2.18373   0.00000   0.00000   0.00002   0.00002   2.18375
    D4        1.89347   0.00000   0.00000   0.00002   0.00002   1.89349
    D5       -1.77986   0.00000   0.00000   0.00001   0.00001  -1.77985
    D6       -2.07013   0.00000   0.00000   0.00002   0.00002  -2.07011
         Item               Value     Threshold  Converged?
 Maximum Force            0.000006     0.000015     YES
 RMS     Force            0.000001     0.000010     YES
 Maximum Displacement     0.000031     0.000060     YES
 RMS     Displacement     0.000015     0.000040     YES
 Predicted change in Energy=-3.654128D-11
 Optimization completed.
    -- Stationary point found.
                           ----------------------------
                           !   Optimized Parameters   !
                           ! (Angstroms and Degrees)  !
 --------------------------                            --------------------------
 ! Name  Definition              Value          Derivative Info.                !
 --------------------------------------------------------------------------------
 ! R1    R(1,2)                  1.1913         -DE/DX =    0.0                 !
 ! R2    R(1,4)                  3.2135         -DE/DX =    0.0                 !
 ! R3    R(1,7)                  2.3165         -DE/DX =    0.0                 !
 ! R4    R(2,4)                  3.1571         -DE/DX =    0.0                 !
 ! R5    R(3,4)                  1.4979         -DE/DX =    0.0                 !
 ! R6    R(3,5)                  1.4968         -DE/DX =    0.0                 !
 ! R7    R(3,6)                  1.4971         -DE/DX =    0.0                 !
 ! A1    A(2,1,7)              117.2091         -DE/DX =    0.0                 !
 ! A2    A(4,1,7)               79.1295         -DE/DX =    0.0                 !
 ! A3    A(4,3,5)              113.7566         -DE/DX =    0.0                 !
 ! A4    A(4,3,6)              113.7278         -DE/DX =    0.0                 !
 ! A5    A(5,3,6)              114.0979         -DE/DX =    0.0                 !
 ! A6    A(1,4,3)              109.0949         -DE/DX =    0.0                 !
 ! A7    A(2,4,3)              124.8002         -DE/DX =    0.0                 !
 ! D1    D(2,1,4,7)           -121.6378         -DE/DX =    0.0                 !
 ! D2    D(7,1,4,3)            -18.5474         -DE/DX =    0.0                 !
 ! D3    D(5,3,4,1)            125.1185         -DE/DX =    0.0                 !
 ! D4    D(5,3,4,2)            108.4877         -DE/DX =    0.0                 !
 ! D5    D(6,3,4,1)           -101.9787         -DE/DX =    0.0                 !
 ! D6    D(6,3,4,2)           -118.6095         -DE/DX =    0.0                 !
 --------------------------------------------------------------------------------
 GradGradGradGradGradGradGradGradGradGradGradGradGradGradGradGradGradGrad

 Leave Link  103 at Tue Oct 20 10:34:06 2015, MaxMem=   524288000 cpu:         0.1
 (Enter /opt/g09/l9999.exe)
 1\1\GINC-KLIMT\Freq\UB971\6-311+G(d,p)\Cl2O5(3)\PB556\20-Oct-2015\0\\#
 P Geom=AllCheck Guess=TCheck SCRF=Check GenChk UB971/6-311+G(d,p) Freq
 \\C:\Users\pb556\workspace\organise\convert\00_00fine-no-symm-Cl2O5-3l
 et.g09\\0,3\O,2.41732,-0.64185,0.49383\O,2.45869,-1.45866,-0.37244\Cl,
 -1.46988,-0.03311,0.00547\O,-0.67874,-1.3035,-0.05671\O,-2.2856,0.2299
 2,-1.22163\O,-2.2201,0.1472,1.28844\Cl,1.61503,1.45752,-0.06735\\Versi
 on=ES64L-G09RevD.01\HF=-1295.9262313\S2=2.610375\S2-1=0.\S2A=2.017064\
 RMSD=3.666e-09\RMSF=2.554e-06\ZeroPoint=0.0145575\Thermal=0.024479\Dip
 ole=0.6562303,-0.2713027,0.0372138\DipoleDeriv=0.0795379,-0.0325767,-0
 .0204064,-0.3106882,0.8412308,-0.0668658,-0.38462,0.9106843,-0.0648911
 ,0.0572505,0.080393,0.0069851,0.3763594,-0.8420109,0.1079565,0.377787,
 -0.9037726,0.1901428,1.4394136,-0.2411209,-0.011776,-0.219233,1.035508
 6,0.000566,-0.0113806,-0.0049426,1.3502351,-0.5212374,0.0424206,0.0060
 669,0.2360934,-0.4734445,-0.0064738,0.0089213,0.001088,-0.3803246,-0.4
 130591,0.1142747,-0.128255,0.0083625,-0.2978307,-0.0315239,-0.0329955,
 0.0725223,-0.4917682,-0.404419,0.1010435,0.1304124,0.0080028,-0.295372
 5,0.0427266,0.030678,-0.0643655,-0.5016959,-0.2374866,-0.0644341,0.016
 9729,-0.098897,0.0319193,-0.0463855,0.0116098,-0.0112138,-0.1016981\Po
 lar=59.9542571,-16.4324678,75.956802,0.0448005,1.1404561,55.5172116\PG
 =C01 [X(Cl2O5)]\NImag=0\\0.00816559,-0.02786325,0.39035571,-0.00975051
 ,0.38309570,0.44708502,-0.00439398,0.02323727,0.01254251,0.00481197,0.
 02563758,-0.38378624,-0.38591935,-0.02453193,0.38839882,0.01533098,-0.
 39116994,-0.43596003,-0.01619876,0.39250857,0.43034390,-0.00085607,0.0
 0141231,0.00115488,-0.00079714,-0.00107054,-0.00124414,0.39008744,0.00
 080446,0.00399181,0.00535348,0.00085229,-0.00472767,-0.00509504,-0.121
 55284,0.38476460,-0.00022056,-0.00003997,0.00001158,0.00013658,0.00011
 662,0.00042782,-0.00049790,-0.00094770,0.50422750,-0.00091040,0.000174
 51,0.00077711,-0.00021713,-0.00088535,-0.00079537,-0.11079565,0.090660
 36,0.00426385,0.12092027,-0.00059801,-0.00146375,-0.00199751,-0.000079
 83,0.00160704,0.00187229,0.10819115,-0.25660302,-0.00894169,-0.1388863
 2,0.24406955,-0.00019930,0.00006733,-0.00012185,0.00001154,-0.00012299
 ,-0.00015720,0.00492113,-0.00876213,-0.05985092,-0.00627341,0.00970147
 ,0.05285949,0.00015885,0.00015203,0.00029702,0.00025133,-0.00025220,-0
 .00031028,-0.14449915,0.01999778,-0.12037811,-0.00418397,0.01631698,-0
 .01367001,0.12367304,-0.00015365,-0.00103394,-0.00129897,-0.00016223,0
 .00114618,0.00124322,0.00993854,-0.06407176,0.01505182,0.02611664,0.00
 503232,0.02498082,-0.03954005,0.04689964,0.00026004,0.00040476,0.00061
 284,0.00000843,-0.00055657,-0.00064542,-0.10993697,0.02815816,-0.21509
 699,-0.00562788,0.01033785,0.00513676,0.12605439,-0.04039093,0.2409127
 9,0.00014449,0.00010344,0.00020241,0.00011210,-0.00010729,-0.00013633,
 -0.13229556,0.01106102,0.11663816,-0.00320704,0.01468325,0.01512393,0.
 02505101,0.00415467,-0.01056585,0.11062153,-0.00014428,-0.00095346,-0.
 00115888,-0.00012163,0.00103790,0.00109964,0.00235679,-0.06182623,-0.0
 0504476,0.02437176,0.00735042,-0.02606300,0.00360041,0.01209215,0.0023
 1377,-0.02966743,0.04238162,-0.00013529,-0.00038341,-0.00051994,0.0000
 1247,0.00042268,0.00032097,0.10549206,-0.01855538,-0.22839050,0.007760
 17,-0.01097041,0.00173917,0.00791226,0.00040068,-0.03131951,-0.1211702
 7,0.02877369,0.25770263,-0.00230848,0.00278369,-0.00522343,0.00023284,
 0.00120972,0.00335390,-0.00084388,-0.00182306,0.00005797,-0.00160609,0
 .00037279,0.00008612,-0.00045110,-0.00035392,-0.00019216,-0.00042653,-
 0.00039563,0.00012860,0.00540325,0.00231716,-0.00711014,0.00192554,0.0
 0080606,-0.00367603,-0.00045875,0.00072460,-0.00152772,-0.00019432,-0.
 00155159,0.00000745,0.00019849,-0.00027495,-0.00006458,-0.00026705,-0.
 00022768,-0.00008240,0.00031215,-0.00179359,0.01245343,-0.00528536,0.0
 0802553,-0.01110763,0.00348722,-0.00644896,0.00566997,0.00011095,-0.00
 015139,-0.00132849,-0.00010447,-0.00000200,0.00039455,0.00009473,0.000
 01336,0.00039953,-0.00009206,0.00007952,0.00046717,0.00178899,-0.00151
 606,0.00550489\\-0.00000027,-0.00000541,-0.00000282,-0.00000104,0.0000
 0168,0.00000719,0.00000178,-0.00000055,-0.00000087,-0.00000067,0.00000
 083,0.00000124,-0.00000004,0.00000050,-0.00000295,-0.00000115,0.000004
 36,0.00000020,0.00000139,-0.00000140,-0.00000199\\\@


 Money is a good servant but a bad master.
                        -- French Proverb
 Job cpu time:       0 days  0 hours 15 minutes  9.8 seconds.
 File lengths (MBytes):  RWF=     61 Int=      0 D2E=      0 Chk=      4 Scr=      1
 Normal termination of Gaussian 09 at Tue Oct 20 10:34:06 2015.
