 Entering Gaussian System, Link 0=g09
 Input=00_00freq-no-symm-00_00fine-Cl2O3_3let.gau
 Output=00_00freq-no-symm-00_00fine-Cl2O3_3let.log
 Initial command:
 /opt/g09/l1.exe "/scratch/pb556/g09_run/ti_runs//Gau-11282.inp" -scrdir="/scratch/pb556/g09_run/ti_runs//"
 Entering Link 1 = /opt/g09/l1.exe PID=     11283.
  
 Copyright (c) 1988,1990,1992,1993,1995,1998,2003,2009,2013,
            Gaussian, Inc.  All Rights Reserved.
  
 This is part of the Gaussian(R) 09 program.  It is based on
 the Gaussian(R) 03 system (copyright 2003, Gaussian, Inc.),
 the Gaussian(R) 98 system (copyright 1998, Gaussian, Inc.),
 the Gaussian(R) 94 system (copyright 1995, Gaussian, Inc.),
 the Gaussian 92(TM) system (copyright 1992, Gaussian, Inc.),
 the Gaussian 90(TM) system (copyright 1990, Gaussian, Inc.),
 the Gaussian 88(TM) system (copyright 1988, Gaussian, Inc.),
 the Gaussian 86(TM) system (copyright 1986, Carnegie Mellon
 University), and the Gaussian 82(TM) system (copyright 1983,
 Carnegie Mellon University). Gaussian is a federally registered
 trademark of Gaussian, Inc.
  
 This software contains proprietary and confidential information,
 including trade secrets, belonging to Gaussian, Inc.
  
 This software is provided under written license and may be
 used, copied, transmitted, or stored only in accord with that
 written license.
  
 The following legend is applicable only to US Government
 contracts under FAR:
  
                    RESTRICTED RIGHTS LEGEND
  
 Use, reproduction and disclosure by the US Government is
 subject to restrictions as set forth in subparagraphs (a)
 and (c) of the Commercial Computer Software - Restricted
 Rights clause in FAR 52.227-19.
  
 Gaussian, Inc.
 340 Quinnipiac St., Bldg. 40, Wallingford CT 06492
  
  
 ---------------------------------------------------------------
 Warning -- This program may not be used in any manner that
 competes with the business of Gaussian, Inc. or will provide
 assistance to any competitor of Gaussian, Inc.  The licensee
 of this program is prohibited from giving any competitor of
 Gaussian, Inc. access to this program.  By using this program,
 the user acknowledges that Gaussian, Inc. is engaged in the
 business of creating and licensing software in the field of
 computational chemistry and represents and warrants to the
 licensee that it is not a competitor of Gaussian, Inc. and that
 it will not use this program in any manner prohibited above.
 ---------------------------------------------------------------
  

 Cite this work as:
 Gaussian 09, Revision D.01,
 M. J. Frisch, G. W. Trucks, H. B. Schlegel, G. E. Scuseria, 
 M. A. Robb, J. R. Cheeseman, G. Scalmani, V. Barone, B. Mennucci, 
 G. A. Petersson, H. Nakatsuji, M. Caricato, X. Li, H. P. Hratchian, 
 A. F. Izmaylov, J. Bloino, G. Zheng, J. L. Sonnenberg, M. Hada, 
 M. Ehara, K. Toyota, R. Fukuda, J. Hasegawa, M. Ishida, T. Nakajima, 
 Y. Honda, O. Kitao, H. Nakai, T. Vreven, J. A. Montgomery, Jr., 
 J. E. Peralta, F. Ogliaro, M. Bearpark, J. J. Heyd, E. Brothers, 
 K. N. Kudin, V. N. Staroverov, T. Keith, R. Kobayashi, J. Normand, 
 K. Raghavachari, A. Rendell, J. C. Burant, S. S. Iyengar, J. Tomasi, 
 M. Cossi, N. Rega, J. M. Millam, M. Klene, J. E. Knox, J. B. Cross, 
 V. Bakken, C. Adamo, J. Jaramillo, R. Gomperts, R. E. Stratmann, 
 O. Yazyev, A. J. Austin, R. Cammi, C. Pomelli, J. W. Ochterski, 
 R. L. Martin, K. Morokuma, V. G. Zakrzewski, G. A. Voth, 
 P. Salvador, J. J. Dannenberg, S. Dapprich, A. D. Daniels, 
 O. Farkas, J. B. Foresman, J. V. Ortiz, J. Cioslowski, 
 and D. J. Fox, Gaussian, Inc., Wallingford CT, 2013.
 
 ******************************************
 Gaussian 09:  ES64L-G09RevD.01 24-Apr-2013
                19-Oct-2015 
 ******************************************
 %NProcShared=8
 Will use up to    8 processors via shared memory.
 %Mem=500MW
 ----------------------------------------------------------------------
 #p uB971/6-311+G(d,p) Opt=(Tight, CalcAll, MaxCycles=512, MaxStep=256)
  Freq GFInput Population=None Integral(Grid=UltraFine) SCF=XQC Guess=M
 IX NoSymmetry
 ----------------------------------------------------------------------
 1/6=512,7=10,8=256,10=4,14=-1,18=20,19=15,26=4,38=1/1,3;
 2/9=110,12=2,15=1,17=6,18=5,40=1/2;
 3/5=4,6=6,7=111,11=2,16=1,24=10,25=1,30=1,71=2,74=-20,75=-5,116=2,140=1/1,2,3;
 4/13=-1/1;
 5/5=2,8=3,13=1,38=5/2,8;
 8/6=4,10=90,11=11/1;
 11/6=1,8=1,9=11,15=111,16=1,31=1/1,2,10;
 10/6=1,31=1/2;
 7/10=1,25=1,30=1/1,2,3,16;
 1/6=512,7=10,8=256,10=4,14=-1,18=20,19=15,26=4/3(3);
 2/9=110,15=1/2;
 7/8=1,9=1,25=1,30=1,44=-1/16;
 99//99;
 2/9=110,15=1/2;
 3/5=4,6=6,7=111,11=2,16=1,25=1,30=1,71=2,74=-20,75=-5,116=2,140=1/1,2,3;
 4/5=5,16=3,69=1/1;
 5/5=2,8=3,13=1,38=5/2,8;
 8/6=4,10=90,11=11/1;
 11/6=1,8=1,9=11,15=111,16=1,31=1/1,2,10;
 10/6=1,31=1/2;
 7/10=1,25=1,30=1/1,2,3,16;
 1/6=512,7=10,8=256,10=4,14=-1,18=20,19=15,26=4/3(-8);
 2/9=110,15=1/2;
 7/8=1,9=1,25=1,30=1,44=-1/16;
 99//99;
 Leave Link    1 at Mon Oct 19 20:30:55 2015, MaxMem=   524288000 cpu:         0.7
 (Enter /opt/g09/l101.exe)
 --------------------------
 ./00_00fine-Cl2O3_3let.g09
 --------------------------
 Symbolic Z-matrix:
 Charge =  0 Multiplicity = 3
 Cl                   -2.20233   0.       -0.34727 
 O                    -1.37825   0.        1.03533 
 Cl                    1.62535   0.        0.27519 
 O                     1.30217  -1.3003   -0.44108 
 O                     1.30216   1.3003   -0.44108 
 
 Add virtual bond connecting atoms Cl3        and O2         Dist= 5.85D+00.
 Add atom      3 valence  3 ND=      2 dihedral       2      3      4      5
 NAtoms=      5 NQM=        5 NQMF=       0 NMMI=      0 NMMIF=      0
                NMic=       0 NMicF=      0.
                    Isotopes and Nuclear Properties:
 (Nuclear quadrupole moments (NQMom) in fm**2, nuclear magnetic moments (NMagM)
  in nuclear magnetons)

  Atom         1           2           3           4           5
 IAtWgt=          35          16          35          16          16
 AtmWgt=  34.9688527  15.9949146  34.9688527  15.9949146  15.9949146
 NucSpn=           3           0           3           0           0
 AtZEff=   0.0000000   0.0000000   0.0000000   0.0000000   0.0000000
 NQMom=   -8.1650000   0.0000000  -8.1650000   0.0000000   0.0000000
 NMagM=    0.8218740   0.0000000   0.8218740   0.0000000   0.0000000
 AtZNuc=  17.0000000   8.0000000  17.0000000   8.0000000   8.0000000
 Leave Link  101 at Mon Oct 19 20:30:55 2015, MaxMem=   524288000 cpu:         1.3
 (Enter /opt/g09/l103.exe)

 GradGradGradGradGradGradGradGradGradGradGradGradGradGradGradGradGradGrad
 Berny optimization.
 Initialization pass.
                           ----------------------------
                           !    Initial Parameters    !
                           ! (Angstroms and Degrees)  !
 --------------------------                            --------------------------
 ! Name  Definition              Value          Derivative Info.                !
 --------------------------------------------------------------------------------
 ! R1    R(1,2)                  1.6096         calculate D2E/DX2 analytically  !
 ! R2    R(2,3)                  3.0983         calculate D2E/DX2 analytically  !
 ! R3    R(3,4)                  1.5193         calculate D2E/DX2 analytically  !
 ! R4    R(3,5)                  1.5193         calculate D2E/DX2 analytically  !
 ! A1    A(1,2,3)              106.5945         calculate D2E/DX2 analytically  !
 ! A2    A(2,3,4)               84.8048         calculate D2E/DX2 analytically  !
 ! A3    A(2,3,5)               84.8044         calculate D2E/DX2 analytically  !
 ! A4    A(4,3,5)              117.7086         calculate D2E/DX2 analytically  !
 ! D1    D(1,2,3,4)            -59.2477         calculate D2E/DX2 analytically  !
 ! D2    D(1,2,3,5)             59.2476         calculate D2E/DX2 analytically  !
 ! D3    D(2,3,4,5)             81.3464         calculate D2E/DX2 analytically  !
 --------------------------------------------------------------------------------
 Trust Radius=2.56D+00 FncErr=1.00D-07 GrdErr=1.00D-06
 Number of steps in this run=    100 maximum allowed number of steps=    100.
 GradGradGradGradGradGradGradGradGradGradGradGradGradGradGradGradGradGrad

 Leave Link  103 at Mon Oct 19 20:30:55 2015, MaxMem=   524288000 cpu:         0.1
 (Enter /opt/g09/l202.exe)
                          Input orientation:                          
 ---------------------------------------------------------------------
 Center     Atomic      Atomic             Coordinates (Angstroms)
 Number     Number       Type             X           Y           Z
 ---------------------------------------------------------------------
      1         17           0       -2.202330    0.000000   -0.347270
      2          8           0       -1.378250    0.000000    1.035330
      3         17           0        1.625350    0.000000    0.275190
      4          8           0        1.302170   -1.300300   -0.441080
      5          8           0        1.302160    1.300300   -0.441080
 ---------------------------------------------------------------------
                    Distance matrix (angstroms):
                    1          2          3          4          5
     1  Cl   0.000000
     2  O    1.609562   0.000000
     3  Cl   3.877962   3.098294   0.000000
     4  O    3.739131   3.324939   1.519299   0.000000
     5  O    3.739122   3.324931   1.519301   2.600600   0.000000
 Symmetry turned off by external request.
 Stoichiometry    Cl2O3(3)
 Framework group  C1[X(Cl2O3)]
 Deg. of freedom     9
 Full point group                 C1      NOp   1
 Rotational constants (GHZ):      5.9937749      1.3410786      1.2612296
 Leave Link  202 at Mon Oct 19 20:30:55 2015, MaxMem=   524288000 cpu:         0.1
 (Enter /opt/g09/l301.exe)
 Standard basis: 6-311+G(d,p) (5D, 7F)
 Ernie: Thresh=  0.10000D-02 Tol=  0.10000D-05 Strict=F.
 AO basis set in the form of general basis input (Overlap normalization):
      1 0
 S   6 1.00       0.000000000000
      0.1058190000D+06  0.7380002465D-03
      0.1587200000D+05  0.5718001910D-02
      0.3619650000D+04  0.2949500985D-01
      0.1030800000D+04  0.1172860392D+00
      0.3399080000D+03  0.3629491212D+00
      0.1245380000D+03  0.5841491951D+00
 S   3 1.00       0.000000000000
      0.1245380000D+03  0.1341769734D+00
      0.4951350000D+02  0.6242498762D+00
      0.2080560000D+02  0.2917559421D+00
 S   1 1.00       0.000000000000
      0.6583460000D+01  0.1000000000D+01
 S   1 1.00       0.000000000000
      0.2564680000D+01  0.1000000000D+01
 S   1 1.00       0.000000000000
      0.5597630000D+00  0.1000000000D+01
 S   1 1.00       0.000000000000
      0.1832730000D+00  0.1000000000D+01
 SP   1 1.00       0.000000000000
      0.4830000000D-01  0.1000000000D+01  0.1000000000D+01
 P   5 1.00       0.000000000000
      0.5897760000D+03  0.3665569355D-02
      0.1398490000D+03  0.2836791942D-01
      0.4514130000D+02  0.1247566028D+00
      0.1687330000D+02  0.3396546305D+00
      0.2771520000D+01  0.7475859630D+00
 P   2 1.00       0.000000000000
      0.6741100000D+01 -0.1572243813D+01
      0.2771520000D+01  0.9923888817D+00
 P   1 1.00       0.000000000000
      0.1023870000D+01  0.1000000000D+01
 P   1 1.00       0.000000000000
      0.3813680000D+00  0.1000000000D+01
 P   1 1.00       0.000000000000
      0.1094370000D+00  0.1000000000D+01
 D   1 1.00       0.000000000000
      0.7500000000D+00  0.1000000000D+01
 ****
      2 0
 S   6 1.00       0.000000000000
      0.8588500000D+04  0.1895150083D-02
      0.1297230000D+04  0.1438590063D-01
      0.2992960000D+03  0.7073200310D-01
      0.8737710000D+02  0.2400010105D+00
      0.2567890000D+02  0.5947970261D+00
      0.3740040000D+01  0.2808020123D+00
 SP   3 1.00       0.000000000000
      0.4211750000D+02  0.1138890124D+00  0.3651139738D-01
      0.9628370000D+01  0.9208111006D+00  0.2371529830D+00
      0.2853320000D+01 -0.3274470358D-02  0.8197019412D+00
 SP   1 1.00       0.000000000000
      0.9056610000D+00  0.1000000000D+01  0.1000000000D+01
 SP   1 1.00       0.000000000000
      0.2556110000D+00  0.1000000000D+01  0.1000000000D+01
 SP   1 1.00       0.000000000000
      0.8450000000D-01  0.1000000000D+01  0.1000000000D+01
 D   1 1.00       0.000000000000
      0.1292000000D+01  0.1000000000D+01
 ****
      3 0
 S   6 1.00       0.000000000000
      0.1058190000D+06  0.7380002465D-03
      0.1587200000D+05  0.5718001910D-02
      0.3619650000D+04  0.2949500985D-01
      0.1030800000D+04  0.1172860392D+00
      0.3399080000D+03  0.3629491212D+00
      0.1245380000D+03  0.5841491951D+00
 S   3 1.00       0.000000000000
      0.1245380000D+03  0.1341769734D+00
      0.4951350000D+02  0.6242498762D+00
      0.2080560000D+02  0.2917559421D+00
 S   1 1.00       0.000000000000
      0.6583460000D+01  0.1000000000D+01
 S   1 1.00       0.000000000000
      0.2564680000D+01  0.1000000000D+01
 S   1 1.00       0.000000000000
      0.5597630000D+00  0.1000000000D+01
 S   1 1.00       0.000000000000
      0.1832730000D+00  0.1000000000D+01
 SP   1 1.00       0.000000000000
      0.4830000000D-01  0.1000000000D+01  0.1000000000D+01
 P   5 1.00       0.000000000000
      0.5897760000D+03  0.3665569355D-02
      0.1398490000D+03  0.2836791942D-01
      0.4514130000D+02  0.1247566028D+00
      0.1687330000D+02  0.3396546305D+00
      0.2771520000D+01  0.7475859630D+00
 P   2 1.00       0.000000000000
      0.6741100000D+01 -0.1572243813D+01
      0.2771520000D+01  0.9923888817D+00
 P   1 1.00       0.000000000000
      0.1023870000D+01  0.1000000000D+01
 P   1 1.00       0.000000000000
      0.3813680000D+00  0.1000000000D+01
 P   1 1.00       0.000000000000
      0.1094370000D+00  0.1000000000D+01
 D   1 1.00       0.000000000000
      0.7500000000D+00  0.1000000000D+01
 ****
      4 0
 S   6 1.00       0.000000000000
      0.8588500000D+04  0.1895150083D-02
      0.1297230000D+04  0.1438590063D-01
      0.2992960000D+03  0.7073200310D-01
      0.8737710000D+02  0.2400010105D+00
      0.2567890000D+02  0.5947970261D+00
      0.3740040000D+01  0.2808020123D+00
 SP   3 1.00       0.000000000000
      0.4211750000D+02  0.1138890124D+00  0.3651139738D-01
      0.9628370000D+01  0.9208111006D+00  0.2371529830D+00
      0.2853320000D+01 -0.3274470358D-02  0.8197019412D+00
 SP   1 1.00       0.000000000000
      0.9056610000D+00  0.1000000000D+01  0.1000000000D+01
 SP   1 1.00       0.000000000000
      0.2556110000D+00  0.1000000000D+01  0.1000000000D+01
 SP   1 1.00       0.000000000000
      0.8450000000D-01  0.1000000000D+01  0.1000000000D+01
 D   1 1.00       0.000000000000
      0.1292000000D+01  0.1000000000D+01
 ****
      5 0
 S   6 1.00       0.000000000000
      0.8588500000D+04  0.1895150083D-02
      0.1297230000D+04  0.1438590063D-01
      0.2992960000D+03  0.7073200310D-01
      0.8737710000D+02  0.2400010105D+00
      0.2567890000D+02  0.5947970261D+00
      0.3740040000D+01  0.2808020123D+00
 SP   3 1.00       0.000000000000
      0.4211750000D+02  0.1138890124D+00  0.3651139738D-01
      0.9628370000D+01  0.9208111006D+00  0.2371529830D+00
      0.2853320000D+01 -0.3274470358D-02  0.8197019412D+00
 SP   1 1.00       0.000000000000
      0.9056610000D+00  0.1000000000D+01  0.1000000000D+01
 SP   1 1.00       0.000000000000
      0.2556110000D+00  0.1000000000D+01  0.1000000000D+01
 SP   1 1.00       0.000000000000
      0.8450000000D-01  0.1000000000D+01  0.1000000000D+01
 D   1 1.00       0.000000000000
      0.1292000000D+01  0.1000000000D+01
 ****

   126 basis functions,   214 primitive gaussians,   131 cartesian basis functions
    30 alpha electrons       28 beta electrons
       nuclear repulsion energy       274.0051291437 Hartrees.
 IExCor= 1614 DFT=T Ex+Corr=B971 ExCW=0 ScaHFX=  0.210000
 ScaDFX=  1.000000  1.000000  1.000000  1.000000 ScalE2=  1.000000  1.000000
 IRadAn=      5 IRanWt=     -1 IRanGd=            0 ICorTp=0 IEmpDi=  4
 NAtoms=    5 NActive=    5 NUniq=    5 SFac= 1.00D+00 NAtFMM=   60 NAOKFM=F Big=F
 Integral buffers will be    131072 words long.
 Raffenetti 2 integral format.
 Two-electron integral symmetry is turned off.
 Leave Link  301 at Mon Oct 19 20:30:55 2015, MaxMem=   524288000 cpu:         0.4
 (Enter /opt/g09/l302.exe)
 NPDir=0 NMtPBC=     1 NCelOv=     1 NCel=       1 NClECP=     1 NCelD=      1
         NCelK=      1 NCelE2=     1 NClLst=     1 CellRange=     0.0.
 One-electron integrals computed using PRISM.
 NBasis=   126 RedAO= T EigKep=  2.62D-03  NBF=   126
 NBsUse=   126 1.00D-06 EigRej= -1.00D+00 NBFU=   126
 Precomputing XC quadrature grid using
 IXCGrd= 4 IRadAn=           5 IRanWt=          -1 IRanGd=           0 AccXCQ= 0.00D+00.
 Generated NRdTot=       0 NPtTot=           0 NUsed=           0 NTot=          32
 NSgBfM=   128   128   128   128   128 MxSgAt=     5 MxSgA2=     5.
 Leave Link  302 at Mon Oct 19 20:30:55 2015, MaxMem=   524288000 cpu:         1.3
 (Enter /opt/g09/l303.exe)
 DipDrv:  MaxL=1.
 Leave Link  303 at Mon Oct 19 20:30:55 2015, MaxMem=   524288000 cpu:         0.2
 (Enter /opt/g09/l401.exe)
 ExpMin= 4.83D-02 ExpMax= 1.06D+05 ExpMxC= 3.62D+03 IAcc=3 IRadAn=         5 AccDes= 0.00D+00
 Harris functional with IExCor= 1614 and IRadAn=       5 diagonalized for initial guess.
 HarFok:  IExCor= 1614 AccDes= 0.00D+00 IRadAn=         5 IDoV= 1 UseB2=F ITyADJ=14
 ICtDFT=  3500011 ScaDFX=  1.000000  1.000000  1.000000  1.000000
 FoFCou: FMM=F IPFlag=           0 FMFlag=      100000 FMFlg1=           0
         NFxFlg=           0 DoJE=T BraDBF=F KetDBF=T FulRan=T
         wScrn=  0.000000 ICntrl=     500 IOpCl=  0 I1Cent=   200000004 NGrid=           0
         NMat0=    1 NMatS0=      1 NMatT0=    0 NMatD0=    1 NMtDS0=    0 NMtDT0=    0
 Symmetry not used in FoFCou.
 Harris En= -1129.18563892414    
 JPrj=0 DoOrth=F DoCkMO=T.
 Mixing orbitals, IMix= 1 IMixAn=  0 NRI=1 NE=   30 Coef=  7.07106781D-01  7.07106781D-01
 Mixing orbitals, IMix= 1 IMixAn=  0 NRI=1 NE=   28 Coef= -7.07106781D-01  7.07106781D-01
 Initial guess <Sx>= 0.0000 <Sy>= 0.0000 <Sz>= 1.0000 <S**2>= 2.0000 S= 1.0000
 Leave Link  401 at Mon Oct 19 20:30:56 2015, MaxMem=   524288000 cpu:         2.9
 (Enter /opt/g09/l502.exe)
 UHF open shell SCF:
 Using DIIS extrapolation, IDIIS=  1040.
 Two-electron integral symmetry not used.
 Keep R1 and R2 ints in memory in canonical form, NReq=65233189.
 IVT=       59269 IEndB=       59269 NGot=   524288000 MDV=   460204730
 LenX=   460204730 LenY=   460187128
 Requested convergence on RMS density matrix=1.00D-08 within  64 cycles.
 Requested convergence on MAX density matrix=1.00D-06.
 Requested convergence on             energy=1.00D-06.
 No special actions if energy rises.
 FoFCou: FMM=F IPFlag=           0 FMFlag=           0 FMFlg1=           0
         NFxFlg=           0 DoJE=F BraDBF=F KetDBF=F FulRan=T
         wScrn=  0.000000 ICntrl=     600 IOpCl=  0 I1Cent=           0 NGrid=           0
         NMat0=    1 NMatS0=   8001 NMatT0=    0 NMatD0=    1 NMtDS0=    0 NMtDT0=    0
 Symmetry not used in FoFCou.

 Cycle   1  Pass 1  IDiag  1:
 E= -1144.88551914265    
 DIIS: error= 1.69D-01 at cycle   1 NSaved=   1.
 NSaved= 1 IEnMin= 1 EnMin= -1144.88551914265     IErMin= 1 ErrMin= 1.69D-01
 ErrMax= 1.69D-01  0.00D+00 EMaxC= 1.00D-01 BMatC= 1.07D+01 BMatP= 1.07D+01
 IDIUse=3 WtCom= 0.00D+00 WtEn= 1.00D+00
 Coeff-Com:  0.100D+01
 Coeff-En:   0.100D+01
 Coeff:      0.100D+01
 Gap=     0.055 Goal=   None    Shift=    0.000
 Gap=     0.075 Goal=   None    Shift=    0.000
 GapD=    0.055 DampG=0.500 DampE=0.250 DampFc=0.2500 IDamp=-1.
 Damping current iteration by 2.50D-01
 RMSDP=2.49D-02 MaxDP=8.28D-01              OVMax= 8.96D-01

 Cycle   2  Pass 1  IDiag  1:
 E= -1145.12980614607     Delta-E=       -0.244287003424 Rises=F Damp=T
 DIIS: error= 1.19D-01 at cycle   2 NSaved=   2.
 NSaved= 2 IEnMin= 2 EnMin= -1145.12980614607     IErMin= 2 ErrMin= 1.19D-01
 ErrMax= 1.19D-01  0.00D+00 EMaxC= 1.00D-01 BMatC= 4.76D+00 BMatP= 1.07D+01
 IDIUse=3 WtCom= 0.00D+00 WtEn= 1.00D+00
 Coeff-Com: -0.151D+01 0.251D+01
 Coeff-En:   0.000D+00 0.100D+01
 Coeff:      0.000D+00 0.100D+01
 Gap=     0.344 Goal=   None    Shift=    0.000
 Gap=    -0.124 Goal=   None    Shift=    0.000
 RMSDP=1.74D-02 MaxDP=6.21D-01 DE=-2.44D-01 OVMax= 9.23D-01

 Cycle   3  Pass 1  IDiag  1:
 E= -1145.47947793651     Delta-E=       -0.349671790438 Rises=F Damp=F
 DIIS: error= 3.30D-02 at cycle   3 NSaved=   3.
 NSaved= 3 IEnMin= 3 EnMin= -1145.47947793651     IErMin= 3 ErrMin= 3.30D-02
 ErrMax= 3.30D-02  0.00D+00 EMaxC= 1.00D-01 BMatC= 9.96D-01 BMatP= 4.76D+00
 IDIUse=3 WtCom= 6.70D-01 WtEn= 3.30D-01
 Coeff-Com: -0.244D+00 0.599D+00 0.645D+00
 Coeff-En:   0.256D-01 0.000D+00 0.974D+00
 Coeff:     -0.155D+00 0.401D+00 0.754D+00
 Gap=     0.238 Goal=   None    Shift=    0.000
 Gap=     0.087 Goal=   None    Shift=    0.000
 RMSDP=5.18D-03 MaxDP=1.73D-01 DE=-3.50D-01 OVMax= 2.68D-01

 Cycle   4  Pass 1  IDiag  1:
 E= -1145.47987096638     Delta-E=       -0.000393029874 Rises=F Damp=F
 DIIS: error= 3.74D-02 at cycle   4 NSaved=   4.
 NSaved= 4 IEnMin= 4 EnMin= -1145.47987096638     IErMin= 3 ErrMin= 3.30D-02
 ErrMax= 3.74D-02  0.00D+00 EMaxC= 1.00D-01 BMatC= 8.75D-01 BMatP= 9.96D-01
 IDIUse=3 WtCom= 6.26D-01 WtEn= 3.74D-01
 Coeff-Com:  0.482D-01 0.124D-01 0.498D+00 0.442D+00
 Coeff-En:   0.000D+00 0.000D+00 0.500D+00 0.500D+00
 Coeff:      0.302D-01 0.779D-02 0.498D+00 0.464D+00
 Gap=     0.237 Goal=   None    Shift=    0.000
 Gap=     0.110 Goal=   None    Shift=    0.000
 RMSDP=3.10D-03 MaxDP=7.80D-02 DE=-3.93D-04 OVMax= 1.82D-01

 Cycle   5  Pass 1  IDiag  1:
 E= -1145.64217730618     Delta-E=       -0.162306339796 Rises=F Damp=F
 DIIS: error= 1.22D-02 at cycle   5 NSaved=   5.
 NSaved= 5 IEnMin= 5 EnMin= -1145.64217730618     IErMin= 5 ErrMin= 1.22D-02
 ErrMax= 1.22D-02  0.00D+00 EMaxC= 1.00D-01 BMatC= 7.61D-02 BMatP= 8.75D-01
 IDIUse=3 WtCom= 8.78D-01 WtEn= 1.22D-01
 Coeff-Com:  0.185D-01-0.195D-01 0.201D+00 0.276D+00 0.524D+00
 Coeff-En:   0.000D+00 0.000D+00 0.000D+00 0.347D-01 0.965D+00
 Coeff:      0.162D-01-0.171D-01 0.177D+00 0.247D+00 0.578D+00
 Gap=     0.224 Goal=   None    Shift=    0.000
 Gap=     0.100 Goal=   None    Shift=    0.000
 RMSDP=9.95D-04 MaxDP=2.13D-02 DE=-1.62D-01 OVMax= 5.03D-02

 Cycle   6  Pass 1  IDiag  1:
 E= -1145.65553287635     Delta-E=       -0.013355570172 Rises=F Damp=F
 DIIS: error= 3.73D-03 at cycle   6 NSaved=   6.
 NSaved= 6 IEnMin= 6 EnMin= -1145.65553287635     IErMin= 6 ErrMin= 3.73D-03
 ErrMax= 3.73D-03  0.00D+00 EMaxC= 1.00D-01 BMatC= 6.09D-03 BMatP= 7.61D-02
 IDIUse=3 WtCom= 9.63D-01 WtEn= 3.73D-02
 Coeff-Com: -0.880D-02 0.103D-01 0.160D-01 0.251D-01 0.242D+00 0.716D+00
 Coeff-En:   0.000D+00 0.000D+00 0.000D+00 0.000D+00 0.322D-01 0.968D+00
 Coeff:     -0.847D-02 0.990D-02 0.154D-01 0.241D-01 0.234D+00 0.725D+00
 Gap=     0.217 Goal=   None    Shift=    0.000
 Gap=     0.102 Goal=   None    Shift=    0.000
 RMSDP=2.70D-04 MaxDP=5.85D-03 DE=-1.34D-02 OVMax= 1.54D-02

 Cycle   7  Pass 1  IDiag  1:
 E= -1145.65651593051     Delta-E=       -0.000983054158 Rises=F Damp=F
 DIIS: error= 1.40D-03 at cycle   7 NSaved=   7.
 NSaved= 7 IEnMin= 7 EnMin= -1145.65651593051     IErMin= 7 ErrMin= 1.40D-03
 ErrMax= 1.40D-03  0.00D+00 EMaxC= 1.00D-01 BMatC= 1.18D-03 BMatP= 6.09D-03
 IDIUse=3 WtCom= 9.86D-01 WtEn= 1.40D-02
 Coeff-Com: -0.178D-02 0.110D-02-0.893D-02-0.146D-01 0.101D+00 0.501D+00
 Coeff-Com:  0.422D+00
 Coeff-En:   0.000D+00 0.000D+00 0.000D+00 0.000D+00 0.000D+00 0.482D-01
 Coeff-En:   0.952D+00
 Coeff:     -0.175D-02 0.109D-02-0.880D-02-0.144D-01 0.100D+00 0.495D+00
 Coeff:      0.429D+00
 Gap=     0.220 Goal=   None    Shift=    0.000
 Gap=     0.102 Goal=   None    Shift=    0.000
 RMSDP=1.35D-04 MaxDP=2.50D-03 DE=-9.83D-04 OVMax= 1.46D-02

 Cycle   8  Pass 1  IDiag  1:
 E= -1145.65665339674     Delta-E=       -0.000137466231 Rises=F Damp=F
 DIIS: error= 1.34D-03 at cycle   8 NSaved=   8.
 NSaved= 8 IEnMin= 8 EnMin= -1145.65665339674     IErMin= 8 ErrMin= 1.34D-03
 ErrMax= 1.34D-03  0.00D+00 EMaxC= 1.00D-01 BMatC= 6.24D-04 BMatP= 1.18D-03
 IDIUse=3 WtCom= 9.87D-01 WtEn= 1.34D-02
 Coeff-Com:  0.208D-02-0.358D-02-0.128D-01-0.223D-01 0.335D-01 0.301D+00
 Coeff-Com:  0.387D+00 0.315D+00
 Coeff-En:   0.000D+00 0.000D+00 0.000D+00 0.000D+00 0.000D+00 0.000D+00
 Coeff-En:   0.323D+00 0.677D+00
 Coeff:      0.205D-02-0.354D-02-0.126D-01-0.220D-01 0.330D-01 0.297D+00
 Coeff:      0.386D+00 0.320D+00
 Gap=     0.222 Goal=   None    Shift=    0.000
 Gap=     0.103 Goal=   None    Shift=    0.000
 RMSDP=7.51D-05 MaxDP=1.36D-03 DE=-1.37D-04 OVMax= 7.86D-03

 Cycle   9  Pass 1  IDiag  1:
 E= -1145.65678432366     Delta-E=       -0.000130926919 Rises=F Damp=F
 DIIS: error= 2.28D-04 at cycle   9 NSaved=   9.
 NSaved= 9 IEnMin= 9 EnMin= -1145.65678432366     IErMin= 9 ErrMin= 2.28D-04
 ErrMax= 2.28D-04  0.00D+00 EMaxC= 1.00D-01 BMatC= 2.71D-05 BMatP= 6.24D-04
 IDIUse=3 WtCom= 9.98D-01 WtEn= 2.28D-03
 Coeff-Com:  0.248D-02-0.324D-02-0.287D-02-0.727D-02-0.214D-01-0.366D-01
 Coeff-Com: -0.132D-01 0.134D+00 0.948D+00
 Coeff-En:   0.000D+00 0.000D+00 0.000D+00 0.000D+00 0.000D+00 0.000D+00
 Coeff-En:   0.000D+00 0.000D+00 0.100D+01
 Coeff:      0.248D-02-0.324D-02-0.287D-02-0.725D-02-0.213D-01-0.365D-01
 Coeff:     -0.131D-01 0.134D+00 0.948D+00
 Gap=     0.221 Goal=   None    Shift=    0.000
 Gap=     0.103 Goal=   None    Shift=    0.000
 RMSDP=5.09D-05 MaxDP=1.63D-03 DE=-1.31D-04 OVMax= 8.20D-03

 Cycle  10  Pass 1  IDiag  1:
 E= -1145.65680880601     Delta-E=       -0.000024482355 Rises=F Damp=F
 DIIS: error= 1.82D-04 at cycle  10 NSaved=  10.
 NSaved=10 IEnMin=10 EnMin= -1145.65680880601     IErMin=10 ErrMin= 1.82D-04
 ErrMax= 1.82D-04  0.00D+00 EMaxC= 1.00D-01 BMatC= 6.46D-06 BMatP= 2.71D-05
 IDIUse=3 WtCom= 9.98D-01 WtEn= 1.82D-03
 Coeff-Com:  0.189D-02-0.248D-02 0.159D-02 0.975D-03-0.909D-02-0.483D-01
 Coeff-Com: -0.568D-01-0.234D-01 0.235D+00 0.901D+00
 Coeff-En:   0.000D+00 0.000D+00 0.000D+00 0.000D+00 0.000D+00 0.000D+00
 Coeff-En:   0.000D+00 0.000D+00 0.000D+00 0.100D+01
 Coeff:      0.189D-02-0.248D-02 0.158D-02 0.973D-03-0.907D-02-0.482D-01
 Coeff:     -0.567D-01-0.234D-01 0.234D+00 0.901D+00
 Gap=     0.221 Goal=   None    Shift=    0.000
 Gap=     0.103 Goal=   None    Shift=    0.000
 RMSDP=4.07D-05 MaxDP=1.35D-03 DE=-2.45D-05 OVMax= 7.69D-03

 Cycle  11  Pass 1  IDiag  1:
 E= -1145.65682322811     Delta-E=       -0.000014422094 Rises=F Damp=F
 DIIS: error= 1.83D-04 at cycle  11 NSaved=  11.
 NSaved=11 IEnMin=11 EnMin= -1145.65682322811     IErMin=10 ErrMin= 1.82D-04
 ErrMax= 1.83D-04  0.00D+00 EMaxC= 1.00D-01 BMatC= 3.25D-06 BMatP= 6.46D-06
 IDIUse=3 WtCom= 9.98D-01 WtEn= 1.82D-03
 Coeff-Com:  0.543D-03-0.771D-03 0.287D-03 0.125D-03 0.363D-02 0.128D-01
 Coeff-Com:  0.141D-01-0.109D-01-0.116D+00-0.126D+00 0.122D+01
 Coeff-En:   0.000D+00 0.000D+00 0.000D+00 0.000D+00 0.000D+00 0.000D+00
 Coeff-En:   0.000D+00 0.000D+00 0.000D+00 0.000D+00 0.100D+01
 Coeff:      0.542D-03-0.770D-03 0.286D-03 0.125D-03 0.362D-02 0.127D-01
 Coeff:      0.141D-01-0.109D-01-0.115D+00-0.126D+00 0.122D+01
 Gap=     0.221 Goal=   None    Shift=    0.000
 Gap=     0.103 Goal=   None    Shift=    0.000
 RMSDP=4.84D-05 MaxDP=1.56D-03 DE=-1.44D-05 OVMax= 9.42D-03

 Cycle  12  Pass 1  IDiag  1:
 E= -1145.65683955583     Delta-E=       -0.000016327730 Rises=F Damp=F
 DIIS: error= 1.82D-04 at cycle  12 NSaved=  12.
 NSaved=12 IEnMin=12 EnMin= -1145.65683955583     IErMin=12 ErrMin= 1.82D-04
 ErrMax= 1.82D-04  0.00D+00 EMaxC= 1.00D-01 BMatC= 2.73D-06 BMatP= 3.25D-06
 IDIUse=3 WtCom= 9.98D-01 WtEn= 1.82D-03
 Coeff-Com: -0.101D-03 0.137D-03-0.939D-04-0.157D-03 0.143D-02 0.734D-02
 Coeff-Com:  0.114D-01 0.588D-02-0.300D-01-0.130D+00-0.153D-01 0.115D+01
 Coeff-En:   0.000D+00 0.000D+00 0.000D+00 0.000D+00 0.000D+00 0.000D+00
 Coeff-En:   0.000D+00 0.000D+00 0.000D+00 0.000D+00 0.000D+00 0.100D+01
 Coeff:     -0.101D-03 0.136D-03-0.937D-04-0.157D-03 0.143D-02 0.733D-02
 Coeff:      0.114D-01 0.587D-02-0.300D-01-0.129D+00-0.153D-01 0.115D+01
 Gap=     0.221 Goal=   None    Shift=    0.000
 Gap=     0.103 Goal=   None    Shift=    0.000
 RMSDP=4.86D-05 MaxDP=1.55D-03 DE=-1.63D-05 OVMax= 9.48D-03

 Cycle  13  Pass 1  IDiag  1:
 E= -1145.65685576890     Delta-E=       -0.000016213064 Rises=F Damp=F
 DIIS: error= 1.81D-04 at cycle  13 NSaved=  13.
 NSaved=13 IEnMin=13 EnMin= -1145.65685576890     IErMin=13 ErrMin= 1.81D-04
 ErrMax= 1.81D-04  0.00D+00 EMaxC= 1.00D-01 BMatC= 2.69D-06 BMatP= 2.73D-06
 IDIUse=3 WtCom= 9.98D-01 WtEn= 1.81D-03
 Coeff-Com: -0.818D-04 0.130D-03 0.144D-03 0.282D-03-0.148D-02-0.780D-02
 Coeff-Com: -0.109D-01 0.605D-03 0.605D-01 0.961D-01-0.475D+00-0.542D+00
 Coeff-Com:  0.188D+01
 Coeff-En:   0.000D+00 0.000D+00 0.000D+00 0.000D+00 0.000D+00 0.000D+00
 Coeff-En:   0.000D+00 0.000D+00 0.000D+00 0.000D+00 0.000D+00 0.000D+00
 Coeff-En:   0.100D+01
 Coeff:     -0.817D-04 0.130D-03 0.144D-03 0.282D-03-0.147D-02-0.779D-02
 Coeff:     -0.108D-01 0.604D-03 0.604D-01 0.959D-01-0.474D+00-0.541D+00
 Coeff:      0.188D+01
 Gap=     0.221 Goal=   None    Shift=    0.000
 Gap=     0.103 Goal=   None    Shift=    0.000
 RMSDP=8.95D-05 MaxDP=2.84D-03 DE=-1.62D-05 OVMax= 1.75D-02

 Cycle  14  Pass 1  IDiag  1:
 E= -1145.65688548320     Delta-E=       -0.000029714298 Rises=F Damp=F
 DIIS: error= 1.80D-04 at cycle  14 NSaved=  14.
 NSaved=14 IEnMin=14 EnMin= -1145.65688548320     IErMin=14 ErrMin= 1.80D-04
 ErrMax= 1.80D-04  0.00D+00 EMaxC= 1.00D-01 BMatC= 2.65D-06 BMatP= 2.69D-06
 IDIUse=3 WtCom= 9.98D-01 WtEn= 1.80D-03
 Coeff-Com:  0.239D-03-0.324D-03 0.317D-03 0.498D-03-0.991D-04-0.413D-02
 Coeff-Com: -0.983D-02-0.386D-02 0.260D-01 0.108D+00-0.217D-01-0.125D+01
 Coeff-Com: -0.885D+00 0.304D+01
 Coeff-En:   0.000D+00 0.000D+00 0.000D+00 0.000D+00 0.000D+00 0.000D+00
 Coeff-En:   0.000D+00 0.000D+00 0.000D+00 0.000D+00 0.000D+00 0.000D+00
 Coeff-En:   0.000D+00 0.100D+01
 Coeff:      0.239D-03-0.323D-03 0.317D-03 0.497D-03-0.990D-04-0.412D-02
 Coeff:     -0.981D-02-0.385D-02 0.260D-01 0.107D+00-0.216D-01-0.125D+01
 Coeff:     -0.883D+00 0.304D+01
 Gap=     0.221 Goal=   None    Shift=    0.000
 Gap=     0.104 Goal=   None    Shift=    0.000
 RMSDP=2.64D-04 MaxDP=8.26D-03 DE=-2.97D-05 OVMax= 5.14D-02

 Cycle  15  Pass 1  IDiag  1:
 E= -1145.65697153576     Delta-E=       -0.000086052562 Rises=F Damp=F
 DIIS: error= 1.76D-04 at cycle  15 NSaved=  15.
 NSaved=15 IEnMin=15 EnMin= -1145.65697153576     IErMin=15 ErrMin= 1.76D-04
 ErrMax= 1.76D-04  0.00D+00 EMaxC= 1.00D-01 BMatC= 2.72D-06 BMatP= 2.65D-06
 IDIUse=3 WtCom= 9.98D-01 WtEn= 1.76D-03
 Coeff-Com:  0.606D-04-0.750D-04 0.293D-03 0.392D-03 0.109D-02 0.121D-02
 Coeff-Com: -0.284D-02 0.214D-02 0.225D-01 0.283D-01-0.252D+00-0.239D+00
 Coeff-Com:  0.375D+00 0.535D+00 0.527D+00
 Coeff-En:   0.000D+00 0.000D+00 0.000D+00 0.000D+00 0.000D+00 0.000D+00
 Coeff-En:   0.000D+00 0.000D+00 0.000D+00 0.000D+00 0.000D+00 0.000D+00
 Coeff-En:   0.000D+00 0.000D+00 0.100D+01
 Coeff:      0.605D-04-0.748D-04 0.293D-03 0.391D-03 0.109D-02 0.120D-02
 Coeff:     -0.284D-02 0.214D-02 0.225D-01 0.282D-01-0.251D+00-0.238D+00
 Coeff:      0.374D+00 0.534D+00 0.528D+00
 Gap=     0.221 Goal=   None    Shift=    0.000
 Gap=     0.104 Goal=   None    Shift=    0.000
 RMSDP=5.57D-05 MaxDP=1.74D-03 DE=-8.61D-05 OVMax= 1.09D-02

 Cycle  16  Pass 1  IDiag  1:
 E= -1145.65695366237     Delta-E=        0.000017873392 Rises=F Damp=F
 DIIS: error= 1.77D-04 at cycle  16 NSaved=  16.
 NSaved=16 IEnMin=15 EnMin= -1145.65697153576     IErMin=15 ErrMin= 1.76D-04
 ErrMax= 1.77D-04  0.00D+00 EMaxC= 1.00D-01 BMatC= 2.54D-06 BMatP= 2.65D-06
 IDIUse=3 WtCom= 9.98D-01 WtEn= 1.76D-03
 Large coefficients: NSaved= 16 BigCof=   16.25 CofMax=   10.00 Det=-1.59D-09
 Inversion failed.  Reducing to 15 matrices.
 Large coefficients: NSaved= 15 BigCof=   16.25 CofMax=   10.00 Det=-1.75D-09
 Inversion failed.  Reducing to 14 matrices.
 Large coefficients: NSaved= 14 BigCof=   16.25 CofMax=   10.00 Det=-1.77D-09
 Inversion failed.  Reducing to 13 matrices.
 Large coefficients: NSaved= 13 BigCof=   16.15 CofMax=   10.00 Det=-1.77D-09
 Inversion failed.  Reducing to 12 matrices.
 Large coefficients: NSaved= 12 BigCof=   15.82 CofMax=   10.00 Det=-1.82D-09
 Inversion failed.  Reducing to 11 matrices.
 Large coefficients: NSaved= 11 BigCof=   15.82 CofMax=   10.00 Det=-1.84D-09
 Inversion failed.  Reducing to 10 matrices.
 Rare condition: small coef for last iteration:  0.000D+00
 Coeff-Com:  0.927D-02 0.192D-01-0.482D-01 0.417D-01-0.207D-02 0.737D+00
 Coeff-Com:  0.589D+00-0.907D+01-0.923D+00 0.965D+01
 Coeff-En:   0.000D+00 0.000D+00 0.000D+00 0.000D+00 0.000D+00 0.000D+00
 Coeff-En:   0.000D+00 0.000D+00 0.000D+00 0.100D+01
 Coeff:      0.927D-02 0.192D-01-0.482D-01 0.417D-01-0.207D-02 0.737D+00
 Coeff:      0.589D+00-0.907D+01-0.923D+00 0.965D+01
 Gap=     0.219 Goal=   None    Shift=    0.000
 Gap=     0.106 Goal=   None    Shift=    0.000
 RMSDP=1.26D-03 MaxDP=3.62D-02 DE= 1.79D-05 OVMax= 2.46D-01

 Cycle  17  Pass 1  IDiag  1:
 E= -1145.65726822869     Delta-E=       -0.000314566323 Rises=F Damp=F
 DIIS: error= 8.58D-04 at cycle  17 NSaved=  11.
 NSaved=11 IEnMin=11 EnMin= -1145.65726822869     IErMin= 9 ErrMin= 1.76D-04
 ErrMax= 8.58D-04  0.00D+00 EMaxC= 1.00D-01 BMatC= 1.36D-04 BMatP= 2.54D-06
 IDIUse=3 WtCom= 9.98D-01 WtEn= 1.76D-03
 Large coefficients: NSaved= 11 BigCof=   10.18 CofMax=   10.00 Det=-2.17D-09
 Inversion failed.  Reducing to 10 matrices.
 Large coefficients: NSaved= 10 BigCof=   10.12 CofMax=   10.00 Det=-2.59D-09
 Inversion failed.  Reducing to  9 matrices.
 Large coefficients: NSaved=  9 BigCof=   10.09 CofMax=   10.00 Det=-2.64D-09
 Inversion failed.  Reducing to  8 matrices.
 Coeff-Com:  0.678D-01 0.146D+00-0.251D+00 0.156D+01-0.532D+01-0.462D+01
 Coeff-Com:  0.923D+01 0.188D+00
 Coeff-En:   0.000D+00 0.000D+00 0.000D+00 0.000D+00 0.000D+00 0.000D+00
 Coeff-En:   0.000D+00 0.100D+01
 Coeff:      0.677D-01 0.146D+00-0.251D+00 0.156D+01-0.531D+01-0.461D+01
 Coeff:      0.921D+01 0.189D+00
 Gap=     0.220 Goal=   None    Shift=    0.000
 Gap=     0.103 Goal=   None    Shift=    0.000
 RMSDP=6.29D-04 MaxDP=1.70D-02 DE=-3.15D-04 OVMax= 1.22D-01

 Cycle  18  Pass 1  IDiag  1:
 E= -1145.65715286178     Delta-E=        0.000115366916 Rises=F Damp=F
 DIIS: error= 1.60D-04 at cycle  18 NSaved=   9.
 NSaved= 9 IEnMin= 8 EnMin= -1145.65726822869     IErMin= 9 ErrMin= 1.60D-04
 ErrMax= 1.60D-04  0.00D+00 EMaxC= 1.00D-01 BMatC= 3.62D-06 BMatP= 2.54D-06
 IDIUse=3 WtCom= 9.98D-01 WtEn= 1.76D-03
 Large coefficients: NSaved=  9 BigCof=   10.78 CofMax=   10.00 Det=-2.77D-09
 Inversion failed.  Reducing to  8 matrices.
 Large coefficients: NSaved=  8 BigCof=   10.71 CofMax=   10.00 Det=-2.92D-09
 Inversion failed.  Reducing to  7 matrices.
 Large coefficients: NSaved=  7 BigCof=   10.33 CofMax=   10.00 Det=-2.93D-09
 Inversion failed.  Reducing to  6 matrices.
 Large coefficients: NSaved=  6 BigCof=   10.24 CofMax=   10.00 Det=-3.03D-09
 Inversion failed.  Reducing to  5 matrices.
 Large coefficients: NSaved=  5 BigCof=   10.18 CofMax=   10.00 Det=-8.56D-09
 Inversion failed.  Reducing to  4 matrices.
 Rare condition: small coef for last iteration:  0.000D+00
 Coeff-Com: -0.463D+01 0.511D+01 0.163D+00 0.358D+00
 Coeff-En:   0.000D+00 0.000D+00 0.000D+00 0.100D+01
 Coeff:     -0.463D+01 0.511D+01 0.163D+00 0.358D+00
 Gap=     0.221 Goal=   None    Shift=    0.000
 Gap=     0.099 Goal=   None    Shift=    0.000
 RMSDP=4.33D-04 MaxDP=1.27D-02 DE= 1.15D-04 OVMax= 8.44D-02

 Cycle  19  Pass 1  IDiag  1:
 E= -1145.65702066286     Delta-E=        0.000132198915 Rises=F Damp=F
 DIIS: error= 1.75D-04 at cycle  19 NSaved=   5.
 NSaved= 5 IEnMin= 3 EnMin= -1145.65726822869     IErMin= 4 ErrMin= 1.60D-04
 ErrMax= 1.75D-04  0.00D+00 EMaxC= 1.00D-01 BMatC= 7.36D-06 BMatP= 2.54D-06
 IDIUse=3 WtCom= 9.98D-01 WtEn= 1.76D-03
 Rare condition: small coef for last iteration:  0.000D+00
 Coeff-Com: -0.317D+01 0.268D+01 0.153D+00 0.759D+00 0.578D+00
 Coeff-En:   0.000D+00 0.000D+00 0.000D+00 0.000D+00 0.100D+01
 Coeff:     -0.317D+01 0.268D+01 0.153D+00 0.759D+00 0.578D+00
 Gap=     0.220 Goal=   None    Shift=    0.000
 Gap=     0.101 Goal=   None    Shift=    0.000
 RMSDP=4.57D-04 MaxDP=1.32D-02 DE= 1.32D-04 OVMax= 8.92D-02

 Cycle  20  Pass 1  IDiag  1:
 E= -1145.65715998206     Delta-E=       -0.000139319196 Rises=F Damp=F
 DIIS: error= 1.55D-04 at cycle  20 NSaved=   6.
 NSaved= 6 IEnMin= 3 EnMin= -1145.65726822869     IErMin= 6 ErrMin= 1.55D-04
 ErrMax= 1.55D-04  0.00D+00 EMaxC= 1.00D-01 BMatC= 3.24D-06 BMatP= 2.54D-06
 IDIUse=3 WtCom= 9.98D-01 WtEn= 1.76D-03
 Coeff-Com: -0.124D+00-0.177D+01 0.153D+00 0.793D+00 0.833D+00 0.112D+01
 Coeff-En:   0.000D+00 0.000D+00 0.000D+00 0.000D+00 0.000D+00 0.100D+01
 Coeff:     -0.124D+00-0.177D+01 0.152D+00 0.792D+00 0.832D+00 0.112D+01
 Gap=     0.219 Goal=   None    Shift=    0.000
 Gap=     0.109 Goal=   None    Shift=    0.000
 RMSDP=8.85D-04 MaxDP=2.23D-02 DE=-1.39D-04 OVMax= 1.72D-01

 Cycle  21  Pass 1  IDiag  1:
 E= -1145.65735676570     Delta-E=       -0.000196783644 Rises=F Damp=F
 DIIS: error= 5.93D-04 at cycle  21 NSaved=   7.
 NSaved= 7 IEnMin= 7 EnMin= -1145.65735676570     IErMin= 6 ErrMin= 1.55D-04
 ErrMax= 5.93D-04  0.00D+00 EMaxC= 1.00D-01 BMatC= 6.80D-05 BMatP= 2.54D-06
 IDIUse=3 WtCom= 9.98D-01 WtEn= 1.76D-03
 Coeff-Com:  0.384D+01-0.433D+01-0.118D+01 0.620D+00 0.243D+00 0.316D+00
 Coeff-Com:  0.149D+01
 Coeff-En:   0.000D+00 0.000D+00 0.000D+00 0.000D+00 0.000D+00 0.000D+00
 Coeff-En:   0.100D+01
 Coeff:      0.384D+01-0.432D+01-0.118D+01 0.618D+00 0.243D+00 0.315D+00
 Coeff:      0.149D+01
 Gap=     0.219 Goal=   None    Shift=    0.000
 Gap=     0.110 Goal=   None    Shift=    0.000
 RMSDP=1.05D-04 MaxDP=2.58D-03 DE=-1.97D-04 OVMax= 2.00D-02

 Cycle  22  Pass 1  IDiag  1:
 E= -1145.65739759330     Delta-E=       -0.000040827598 Rises=F Damp=F
 DIIS: error= 2.77D-04 at cycle  22 NSaved=   8.
 NSaved= 8 IEnMin= 8 EnMin= -1145.65739759330     IErMin= 6 ErrMin= 1.55D-04
 ErrMax= 2.77D-04  0.00D+00 EMaxC= 1.00D-01 BMatC= 1.50D-05 BMatP= 2.54D-06
 IDIUse=3 WtCom= 9.98D-01 WtEn= 1.76D-03
 Coeff-Com:  0.723D+01-0.661D+01-0.213D+01 0.443D+00-0.285D+00-0.530D+00
 Coeff-Com:  0.212D+01 0.755D+00
 Coeff-En:   0.000D+00 0.000D+00 0.000D+00 0.000D+00 0.000D+00 0.000D+00
 Coeff-En:   0.000D+00 0.100D+01
 Coeff:      0.722D+01-0.659D+01-0.213D+01 0.443D+00-0.285D+00-0.529D+00
 Coeff:      0.211D+01 0.756D+00
 Gap=     0.219 Goal=   None    Shift=    0.000
 Gap=     0.109 Goal=   None    Shift=    0.000
 RMSDP=4.14D-04 MaxDP=9.84D-03 DE=-4.08D-05 OVMax= 8.08D-02

 Cycle  23  Pass 1  IDiag  1:
 E= -1145.65746946471     Delta-E=       -0.000071871408 Rises=F Damp=F
 DIIS: error= 3.06D-04 at cycle  23 NSaved=   9.
 NSaved= 9 IEnMin= 9 EnMin= -1145.65746946471     IErMin= 6 ErrMin= 1.55D-04
 ErrMax= 3.06D-04  0.00D+00 EMaxC= 1.00D-01 BMatC= 1.38D-05 BMatP= 2.54D-06
 IDIUse=3 WtCom= 9.98D-01 WtEn= 1.76D-03
 Coeff-Com:  0.338D+01-0.355D+01-0.619D-01 0.581D+00 0.541D-01-0.241D+00
 Coeff-Com: -0.978D+00-0.867D-01 0.190D+01
 Coeff-En:   0.000D+00 0.000D+00 0.000D+00 0.000D+00 0.000D+00 0.000D+00
 Coeff-En:   0.000D+00 0.000D+00 0.100D+01
 Coeff:      0.337D+01-0.354D+01-0.618D-01 0.580D+00 0.540D-01-0.241D+00
 Coeff:     -0.977D+00-0.866D-01 0.190D+01
 Gap=     0.219 Goal=   None    Shift=    0.000
 Gap=     0.112 Goal=   None    Shift=    0.000
 RMSDP=4.48D-04 MaxDP=1.15D-02 DE=-7.19D-05 OVMax= 8.72D-02

 Cycle  24  Pass 1  IDiag  1:
 E= -1145.65751613981     Delta-E=       -0.000046675105 Rises=F Damp=F
 DIIS: error= 5.45D-04 at cycle  24 NSaved=  10.
 NSaved=10 IEnMin=10 EnMin= -1145.65751613981     IErMin= 6 ErrMin= 1.55D-04
 ErrMax= 5.45D-04  0.00D+00 EMaxC= 1.00D-01 BMatC= 3.30D-05 BMatP= 2.54D-06
 IDIUse=3 WtCom= 9.98D-01 WtEn= 1.76D-03
 Coeff-Com:  0.334D+01-0.349D+01-0.768D-01 0.579D+00 0.549D-01-0.271D+00
 Coeff-Com: -0.956D+00-0.956D-01 0.194D+01-0.230D-01
 Coeff-En:   0.000D+00 0.000D+00 0.000D+00 0.000D+00 0.000D+00 0.000D+00
 Coeff-En:   0.000D+00 0.000D+00 0.000D+00 0.100D+01
 Coeff:      0.334D+01-0.349D+01-0.766D-01 0.578D+00 0.548D-01-0.270D+00
 Coeff:     -0.955D+00-0.954D-01 0.194D+01-0.212D-01
 Gap=     0.219 Goal=   None    Shift=    0.000
 Gap=     0.113 Goal=   None    Shift=    0.000
 RMSDP=1.13D-06 MaxDP=3.08D-05 DE=-4.67D-05 OVMax= 2.10D-04

 Cycle  25  Pass 1  IDiag  1:
 E= -1145.65751652584     Delta-E=       -0.000000386030 Rises=F Damp=F
 DIIS: error= 5.39D-04 at cycle  25 NSaved=  11.
 NSaved=11 IEnMin=11 EnMin= -1145.65751652584     IErMin= 6 ErrMin= 1.55D-04
 ErrMax= 5.39D-04  0.00D+00 EMaxC= 1.00D-01 BMatC= 3.23D-05 BMatP= 2.54D-06
 IDIUse=3 WtCom= 9.98D-01 WtEn= 1.76D-03
 Large coefficients: NSaved= 11 BigCof=   63.36 CofMax=   10.00 Det=-2.00D-11
 Inversion failed.  Reducing to 10 matrices.
 Large coefficients: NSaved= 10 BigCof=   66.12 CofMax=   10.00 Det=-2.88D-11
 Inversion failed.  Reducing to  9 matrices.
 Large coefficients: NSaved=  9 BigCof=   66.21 CofMax=   10.00 Det=-2.89D-11
 Inversion failed.  Reducing to  8 matrices.
 Large coefficients: NSaved=  8 BigCof=   35.45 CofMax=   10.00 Det=-4.14D-11
 Inversion failed.  Reducing to  7 matrices.
 Large coefficients: NSaved=  7 BigCof=   47.95 CofMax=   10.00 Det=-8.22D-11
 Inversion failed.  Reducing to  6 matrices.
 Large coefficients: NSaved=  6 BigCof=   51.45 CofMax=   10.00 Det=-8.70D-11
 Inversion failed.  Reducing to  5 matrices.
 Large coefficients: NSaved=  5 BigCof=   56.14 CofMax=   10.00 Det=-8.93D-11
 Inversion failed.  Reducing to  4 matrices.
 Large coefficients: NSaved=  4 BigCof=   78.69 CofMax=   10.00 Det=-4.15D-10
 Inversion failed.  Reducing to  3 matrices.
 Large coefficients: NSaved=  3 BigCof=   87.74 CofMax=   10.00 Det=-6.62D-10
 Inversion failed.  Reducing to  2 matrices.
 Large coefficients: NSaved=  2 BigCof=   86.06 CofMax=   10.00 Det=-4.38D-09
 Coeff-Com: -0.851D+02 0.861D+02
 Coeff-En:   0.000D+00 0.100D+01
 Coeff:     -0.849D+02 0.859D+02
 Gap=     0.219 Goal=   None    Shift=    0.000
 Gap=     0.105 Goal=   None    Shift=    0.000
 RMSDP=1.05D-04 MaxDP=2.86D-03 DE=-3.86D-07 OVMax= 1.97D-02

 Cycle  26  Pass 1  IDiag  1:
 E= -1145.65753711271     Delta-E=       -0.000020586864 Rises=F Damp=F
 DIIS: error= 1.07D-04 at cycle  26 NSaved=   3.
 NSaved= 3 IEnMin= 3 EnMin= -1145.65753711271     IErMin= 3 ErrMin= 1.07D-04
 ErrMax= 1.07D-04  0.00D+00 EMaxC= 1.00D-01 BMatC= 3.44D-06 BMatP= 3.23D-05
 IDIUse=3 WtCom= 9.99D-01 WtEn= 1.07D-03
 Large coefficients: NSaved=  3 BigCof=   65.17 CofMax=   10.00 Det=-7.31D-10
 Inversion failed.  Reducing to  2 matrices.
 Coeff-Com:  0.679D-01 0.932D+00
 Coeff-En:   0.000D+00 0.100D+01
 Coeff:      0.678D-01 0.932D+00
 Gap=     0.219 Goal=   None    Shift=    0.000
 Gap=     0.105 Goal=   None    Shift=    0.000
 RMSDP=2.12D-05 MaxDP=4.73D-04 DE=-2.06D-05 OVMax= 2.68D-03

 Cycle  27  Pass 1  IDiag  1:
 E= -1145.65752920012     Delta-E=        0.000007912586 Rises=F Damp=F
 DIIS: error= 3.72D-04 at cycle  27 NSaved=   3.
 NSaved= 3 IEnMin= 2 EnMin= -1145.65753711271     IErMin= 2 ErrMin= 1.07D-04
 ErrMax= 3.72D-04  0.00D+00 EMaxC= 1.00D-01 BMatC= 4.43D-05 BMatP= 3.44D-06
 IDIUse=3 WtCom= 9.99D-01 WtEn= 1.07D-03
 Coeff-Com: -0.944D-02 0.795D+00 0.215D+00
 Coeff-En:   0.000D+00 0.851D+00 0.149D+00
 Coeff:     -0.943D-02 0.795D+00 0.215D+00
 Gap=     0.219 Goal=   None    Shift=    0.000
 Gap=     0.105 Goal=   None    Shift=    0.000
 RMSDP=1.84D-05 MaxDP=3.35D-04 DE= 7.91D-06 OVMax= 1.96D-03

 Cycle  28  Pass 1  IDiag  1:
 E= -1145.65753860713     Delta-E=       -0.000009407012 Rises=F Damp=F
 DIIS: error= 4.30D-05 at cycle  28 NSaved=   4.
 NSaved= 4 IEnMin= 4 EnMin= -1145.65753860713     IErMin= 4 ErrMin= 4.30D-05
 ErrMax= 4.30D-05  0.00D+00 EMaxC= 1.00D-01 BMatC= 2.29D-07 BMatP= 3.44D-06
 IDIUse=1 WtCom= 1.00D+00 WtEn= 0.00D+00
 Coeff-Com: -0.103D-01 0.450D+00 0.116D+00 0.444D+00
 Coeff:     -0.103D-01 0.450D+00 0.116D+00 0.444D+00
 Gap=     0.219 Goal=   None    Shift=    0.000
 Gap=     0.105 Goal=   None    Shift=    0.000
 RMSDP=4.45D-06 MaxDP=1.16D-04 DE=-9.41D-06 OVMax= 8.46D-04

 Cycle  29  Pass 1  IDiag  1:
 E= -1145.65753896159     Delta-E=       -0.000000354457 Rises=F Damp=F
 DIIS: error= 4.27D-05 at cycle  29 NSaved=   5.
 NSaved= 5 IEnMin= 5 EnMin= -1145.65753896159     IErMin= 5 ErrMin= 4.27D-05
 ErrMax= 4.27D-05  0.00D+00 EMaxC= 1.00D-01 BMatC= 1.66D-07 BMatP= 2.29D-07
 IDIUse=1 WtCom= 1.00D+00 WtEn= 0.00D+00
 Coeff-Com: -0.506D-02 0.837D-01 0.100D-01 0.243D+00 0.668D+00
 Coeff:     -0.506D-02 0.837D-01 0.100D-01 0.243D+00 0.668D+00
 Gap=     0.219 Goal=   None    Shift=    0.000
 Gap=     0.105 Goal=   None    Shift=    0.000
 RMSDP=6.82D-06 MaxDP=1.81D-04 DE=-3.54D-07 OVMax= 1.33D-03

 Cycle  30  Pass 1  IDiag  1:
 E= -1145.65753949366     Delta-E=       -0.000000532073 Rises=F Damp=F
 DIIS: error= 4.22D-05 at cycle  30 NSaved=   6.
 NSaved= 6 IEnMin= 6 EnMin= -1145.65753949366     IErMin= 6 ErrMin= 4.22D-05
 ErrMax= 4.22D-05  0.00D+00 EMaxC= 1.00D-01 BMatC= 1.51D-07 BMatP= 1.66D-07
 IDIUse=1 WtCom= 1.00D+00 WtEn= 0.00D+00
 Coeff-Com:  0.152D-02-0.242D+00-0.789D-01-0.268D+00-0.513D-01 0.164D+01
 Coeff:      0.152D-02-0.242D+00-0.789D-01-0.268D+00-0.513D-01 0.164D+01
 Gap=     0.219 Goal=   None    Shift=    0.000
 Gap=     0.105 Goal=   None    Shift=    0.000
 RMSDP=1.82D-05 MaxDP=4.85D-04 DE=-5.32D-07 OVMax= 3.54D-03

 Cycle  31  Pass 1  IDiag  1:
 E= -1145.65754087335     Delta-E=       -0.000001379687 Rises=F Damp=F
 DIIS: error= 4.09D-05 at cycle  31 NSaved=   7.
 NSaved= 7 IEnMin= 7 EnMin= -1145.65754087335     IErMin= 7 ErrMin= 4.09D-05
 ErrMax= 4.09D-05  0.00D+00 EMaxC= 1.00D-01 BMatC= 1.37D-07 BMatP= 1.51D-07
 IDIUse=1 WtCom= 1.00D+00 WtEn= 0.00D+00
 Coeff-Com: -0.269D-02 0.305D+00 0.109D+00 0.260D-02-0.959D+00-0.104D+01
 Coeff-Com:  0.259D+01
 Coeff:     -0.269D-02 0.305D+00 0.109D+00 0.260D-02-0.959D+00-0.104D+01
 Coeff:      0.259D+01
 Gap=     0.219 Goal=   None    Shift=    0.000
 Gap=     0.105 Goal=   None    Shift=    0.000
 RMSDP=3.48D-05 MaxDP=9.35D-04 DE=-1.38D-06 OVMax= 6.80D-03

 Cycle  32  Pass 1  IDiag  1:
 E= -1145.65754339382     Delta-E=       -0.000002520470 Rises=F Damp=F
 DIIS: error= 3.85D-05 at cycle  32 NSaved=   8.
 NSaved= 8 IEnMin= 8 EnMin= -1145.65754339382     IErMin= 8 ErrMin= 3.85D-05
 ErrMax= 3.85D-05  0.00D+00 EMaxC= 1.00D-01 BMatC= 1.58D-07 BMatP= 1.37D-07
 IDIUse=1 WtCom= 1.00D+00 WtEn= 0.00D+00
 Coeff-Com: -0.349D-01 0.178D+01 0.596D+00 0.112D+01-0.170D+01-0.854D+01
 Coeff-Com:  0.628D+01 0.150D+01
 Coeff:     -0.349D-01 0.178D+01 0.596D+00 0.112D+01-0.170D+01-0.854D+01
 Coeff:      0.628D+01 0.150D+01
 Gap=     0.219 Goal=   None    Shift=    0.000
 Gap=     0.105 Goal=   None    Shift=    0.000
 RMSDP=1.00D-04 MaxDP=2.71D-03 DE=-2.52D-06 OVMax= 1.96D-02

 Cycle  33  Pass 1  IDiag  1:
 E= -1145.65754978899     Delta-E=       -0.000006395167 Rises=F Damp=F
 DIIS: error= 3.12D-05 at cycle  33 NSaved=   9.
 NSaved= 9 IEnMin= 9 EnMin= -1145.65754978899     IErMin= 9 ErrMin= 3.12D-05
 ErrMax= 3.12D-05  0.00D+00 EMaxC= 1.00D-01 BMatC= 1.17D-07 BMatP= 1.37D-07
 IDIUse=1 WtCom= 1.00D+00 WtEn= 0.00D+00
 Coeff-Com: -0.648D-01 0.147D+01 0.505D+00 0.111D+01 0.249D+00-0.736D+01
 Coeff-Com:  0.211D+01 0.111D+01 0.188D+01
 Coeff:     -0.648D-01 0.147D+01 0.505D+00 0.111D+01 0.249D+00-0.736D+01
 Coeff:      0.211D+01 0.111D+01 0.188D+01
 Gap=     0.219 Goal=   None    Shift=    0.000
 Gap=     0.105 Goal=   None    Shift=    0.000
 RMSDP=1.87D-04 MaxDP=5.09D-03 DE=-6.40D-06 OVMax= 3.64D-02

 Cycle  34  Pass 1  IDiag  1:
 E= -1145.65755813620     Delta-E=       -0.000008347214 Rises=F Damp=F
 DIIS: error= 3.55D-05 at cycle  34 NSaved=  10.
 NSaved=10 IEnMin=10 EnMin= -1145.65755813620     IErMin= 9 ErrMin= 3.12D-05
 ErrMax= 3.55D-05  0.00D+00 EMaxC= 1.00D-01 BMatC= 1.82D-07 BMatP= 1.17D-07
 IDIUse=1 WtCom= 1.00D+00 WtEn= 0.00D+00
 Coeff-Com: -0.864D-01-0.757D+00-0.234D+00-0.397D+00 0.114D+01 0.372D+01
 Coeff-Com: -0.353D+01-0.414D+00 0.148D+00 0.142D+01
 Coeff:     -0.864D-01-0.757D+00-0.234D+00-0.397D+00 0.114D+01 0.372D+01
 Coeff:     -0.353D+01-0.414D+00 0.148D+00 0.142D+01
 Gap=     0.219 Goal=   None    Shift=    0.000
 Gap=     0.105 Goal=   None    Shift=    0.000
 RMSDP=1.08D-04 MaxDP=2.96D-03 DE=-8.35D-06 OVMax= 2.10D-02

 Cycle  35  Pass 1  IDiag  1:
 E= -1145.65756094155     Delta-E=       -0.000002805353 Rises=F Damp=F
 DIIS: error= 1.93D-05 at cycle  35 NSaved=  11.
 NSaved=11 IEnMin=11 EnMin= -1145.65756094155     IErMin=11 ErrMin= 1.93D-05
 ErrMax= 1.93D-05  0.00D+00 EMaxC= 1.00D-01 BMatC= 4.91D-08 BMatP= 1.17D-07
 IDIUse=1 WtCom= 1.00D+00 WtEn= 0.00D+00
 Coeff-Com: -0.249D-01-0.330D+00-0.109D+00-0.179D+00-0.127D+00 0.154D+01
 Coeff-Com: -0.654D+00 0.121D+00-0.523D+00-0.249D+00 0.153D+01
 Coeff:     -0.249D-01-0.330D+00-0.109D+00-0.179D+00-0.127D+00 0.154D+01
 Coeff:     -0.654D+00 0.121D+00-0.523D+00-0.249D+00 0.153D+01
 Gap=     0.219 Goal=   None    Shift=    0.000
 Gap=     0.105 Goal=   None    Shift=    0.000
 RMSDP=8.51D-05 MaxDP=2.34D-03 DE=-2.81D-06 OVMax= 1.66D-02

 Cycle  36  Pass 1  IDiag  1:
 E= -1145.65756203983     Delta-E=       -0.000001098276 Rises=F Damp=F
 DIIS: error= 9.37D-06 at cycle  36 NSaved=  12.
 NSaved=12 IEnMin=12 EnMin= -1145.65756203983     IErMin=12 ErrMin= 9.37D-06
 ErrMax= 9.37D-06  0.00D+00 EMaxC= 1.00D-01 BMatC= 1.02D-08 BMatP= 4.91D-08
 IDIUse=1 WtCom= 1.00D+00 WtEn= 0.00D+00
 Coeff-Com: -0.507D-02 0.158D+00 0.512D-01 0.859D-01-0.197D+00-0.793D+00
 Coeff-Com:  0.665D+00 0.896D-01-0.568D-02-0.314D+00 0.139D+00 0.113D+01
 Coeff:     -0.507D-02 0.158D+00 0.512D-01 0.859D-01-0.197D+00-0.793D+00
 Coeff:      0.665D+00 0.896D-01-0.568D-02-0.314D+00 0.139D+00 0.113D+01
 Gap=     0.219 Goal=   None    Shift=    0.000
 Gap=     0.105 Goal=   None    Shift=    0.000
 RMSDP=3.48D-05 MaxDP=9.57D-04 DE=-1.10D-06 OVMax= 6.79D-03

 Cycle  37  Pass 1  IDiag  1:
 E= -1145.65756220776     Delta-E=       -0.000000167925 Rises=F Damp=F
 DIIS: error= 6.03D-06 at cycle  37 NSaved=  13.
 NSaved=13 IEnMin=13 EnMin= -1145.65756220776     IErMin=13 ErrMin= 6.03D-06
 ErrMax= 6.03D-06  0.00D+00 EMaxC= 1.00D-01 BMatC= 4.16D-09 BMatP= 1.02D-08
 IDIUse=1 WtCom= 1.00D+00 WtEn= 0.00D+00
 Coeff-Com: -0.551D-02 0.146D+00 0.476D-01 0.779D-01-0.641D-02-0.692D+00
 Coeff-Com:  0.401D+00-0.370D-01 0.173D+00-0.238D-01-0.355D+00 0.200D+00
 Coeff-Com:  0.107D+01
 Coeff:     -0.551D-02 0.146D+00 0.476D-01 0.779D-01-0.641D-02-0.692D+00
 Coeff:      0.401D+00-0.370D-01 0.173D+00-0.238D-01-0.355D+00 0.200D+00
 Coeff:      0.107D+01
 Gap=     0.219 Goal=   None    Shift=    0.000
 Gap=     0.105 Goal=   None    Shift=    0.000
 RMSDP=9.28D-06 MaxDP=2.55D-04 DE=-1.68D-07 OVMax= 1.81D-03

 Cycle  38  Pass 1  IDiag  1:
 E= -1145.65756222626     Delta-E=       -0.000000018505 Rises=F Damp=F
 DIIS: error= 6.75D-07 at cycle  38 NSaved=  14.
 NSaved=14 IEnMin=14 EnMin= -1145.65756222626     IErMin=14 ErrMin= 6.75D-07
 ErrMax= 6.75D-07  0.00D+00 EMaxC= 1.00D-01 BMatC= 6.30D-11 BMatP= 4.16D-09
 IDIUse=1 WtCom= 1.00D+00 WtEn= 0.00D+00
 Coeff-Com: -0.640D-03-0.264D-01-0.877D-02-0.102D-01 0.329D-01 0.116D+00
 Coeff-Com: -0.116D+00-0.211D-01 0.613D-02 0.390D-01 0.253D-01-0.150D+00
 Coeff-Com:  0.100D-01 0.110D+01
 Coeff:     -0.640D-03-0.264D-01-0.877D-02-0.102D-01 0.329D-01 0.116D+00
 Coeff:     -0.116D+00-0.211D-01 0.613D-02 0.390D-01 0.253D-01-0.150D+00
 Coeff:      0.100D-01 0.110D+01
 Gap=     0.219 Goal=   None    Shift=    0.000
 Gap=     0.105 Goal=   None    Shift=    0.000
 RMSDP=8.63D-06 MaxDP=2.37D-04 DE=-1.85D-08 OVMax= 1.68D-03

 Cycle  39  Pass 1  IDiag  1:
 E= -1145.65756223156     Delta-E=       -0.000000005296 Rises=F Damp=F
 DIIS: error= 2.96D-06 at cycle  39 NSaved=  15.
 NSaved=15 IEnMin=15 EnMin= -1145.65756223156     IErMin=14 ErrMin= 6.75D-07
 ErrMax= 2.96D-06  0.00D+00 EMaxC= 1.00D-01 BMatC= 8.92D-10 BMatP= 6.30D-11
 IDIUse=1 WtCom= 1.00D+00 WtEn= 0.00D+00
 Coeff-Com: -0.631D-03-0.198D-01-0.671D-02-0.870D-02 0.150D-01 0.896D-01
 Coeff-Com: -0.655D-01-0.633D-02-0.669D-02 0.220D-01 0.245D-01-0.153D+00
 Coeff-Com: -0.159D+00 0.680D+00 0.595D+00
 Coeff:     -0.631D-03-0.198D-01-0.671D-02-0.870D-02 0.150D-01 0.896D-01
 Coeff:     -0.655D-01-0.633D-02-0.669D-02 0.220D-01 0.245D-01-0.153D+00
 Coeff:     -0.159D+00 0.680D+00 0.595D+00
 Gap=     0.219 Goal=   None    Shift=    0.000
 Gap=     0.105 Goal=   None    Shift=    0.000
 RMSDP=1.74D-07 MaxDP=6.55D-06 DE=-5.30D-09 OVMax= 2.16D-05

 Cycle  40  Pass 1  IDiag  1:
 E= -1145.65756223191     Delta-E=       -0.000000000350 Rises=F Damp=F
 DIIS: error= 3.91D-08 at cycle  40 NSaved=  16.
 NSaved=16 IEnMin=16 EnMin= -1145.65756223191     IErMin=16 ErrMin= 3.91D-08
 ErrMax= 3.91D-08  0.00D+00 EMaxC= 1.00D-01 BMatC= 6.87D-13 BMatP= 6.30D-11
 IDIUse=1 WtCom= 1.00D+00 WtEn= 0.00D+00
 Coeff-Com:  0.115D-03-0.345D-02-0.115D-02-0.261D-02-0.178D-02 0.145D-01
 Coeff-Com: -0.636D-02 0.228D-02-0.669D-02-0.452D-02 0.170D-01 0.205D-01
 Coeff-Com: -0.314D-01-0.205D-01-0.466D-01 0.107D+01
 Coeff:      0.115D-03-0.345D-02-0.115D-02-0.261D-02-0.178D-02 0.145D-01
 Coeff:     -0.636D-02 0.228D-02-0.669D-02-0.452D-02 0.170D-01 0.205D-01
 Coeff:     -0.314D-01-0.205D-01-0.466D-01 0.107D+01
 Gap=     0.219 Goal=   None    Shift=    0.000
 Gap=     0.105 Goal=   None    Shift=    0.000
 RMSDP=5.33D-07 MaxDP=1.46D-05 DE=-3.50D-10 OVMax= 1.04D-04

 Cycle  41  Pass 1  IDiag  1:
 E= -1145.65756223192     Delta-E=       -0.000000000010 Rises=F Damp=F
 DIIS: error= 4.30D-07 at cycle  41 NSaved=  17.
 NSaved=17 IEnMin=17 EnMin= -1145.65756223192     IErMin=16 ErrMin= 3.91D-08
 ErrMax= 4.30D-07  0.00D+00 EMaxC= 1.00D-01 BMatC= 1.91D-11 BMatP= 6.87D-13
 IDIUse=1 WtCom= 1.00D+00 WtEn= 0.00D+00
 Coeff-Com:  0.185D-04 0.244D-02 0.792D-03 0.101D-02-0.198D-02-0.114D-01
 Coeff-Com:  0.918D-02 0.588D-03 0.612D-03-0.332D-02-0.119D-02 0.177D-01
 Coeff-Com:  0.693D-02-0.692D-01-0.179D+00 0.227D+00 0.100D+01
 Coeff:      0.185D-04 0.244D-02 0.792D-03 0.101D-02-0.198D-02-0.114D-01
 Coeff:      0.918D-02 0.588D-03 0.612D-03-0.332D-02-0.119D-02 0.177D-01
 Coeff:      0.693D-02-0.692D-01-0.179D+00 0.227D+00 0.100D+01
 Gap=     0.219 Goal=   None    Shift=    0.000
 Gap=     0.105 Goal=   None    Shift=    0.000
 RMSDP=2.60D-08 MaxDP=9.67D-07 DE=-1.05D-11 OVMax= 3.19D-06

 Cycle  42  Pass 1  IDiag  1:
 E= -1145.65756223192     Delta-E=       -0.000000000004 Rises=F Damp=F
 DIIS: error= 1.48D-08 at cycle  42 NSaved=  18.
 NSaved=18 IEnMin=18 EnMin= -1145.65756223192     IErMin=18 ErrMin= 1.48D-08
 ErrMax= 1.48D-08  0.00D+00 EMaxC= 1.00D-01 BMatC= 3.54D-14 BMatP= 6.87D-13
 IDIUse=1 WtCom= 1.00D+00 WtEn= 0.00D+00
 Coeff-Com: -0.728D-05-0.925D-04-0.363D-04 0.610D-04 0.616D-03 0.298D-03
 Coeff-Com: -0.119D-02-0.520D-03 0.536D-03 0.576D-03-0.356D-03-0.747D-03
 Coeff-Com:  0.559D-02 0.995D-02-0.666D-02-0.910D-01-0.170D-01 0.110D+01
 Coeff:     -0.728D-05-0.925D-04-0.363D-04 0.610D-04 0.616D-03 0.298D-03
 Coeff:     -0.119D-02-0.520D-03 0.536D-03 0.576D-03-0.356D-03-0.747D-03
 Coeff:      0.559D-02 0.995D-02-0.666D-02-0.910D-01-0.170D-01 0.110D+01
 Gap=     0.219 Goal=   None    Shift=    0.000
 Gap=     0.105 Goal=   None    Shift=    0.000
 RMSDP=3.15D-08 MaxDP=8.59D-07 DE=-3.64D-12 OVMax= 6.09D-06

 Cycle  43  Pass 1  IDiag  1:
 E= -1145.65756223192     Delta-E=       -0.000000000003 Rises=F Damp=F
 DIIS: error= 6.34D-08 at cycle  43 NSaved=  19.
 NSaved=19 IEnMin=19 EnMin= -1145.65756223192     IErMin=18 ErrMin= 1.48D-08
 ErrMax= 6.34D-08  0.00D+00 EMaxC= 1.00D-01 BMatC= 3.98D-13 BMatP= 3.54D-14
 IDIUse=1 WtCom= 1.00D+00 WtEn= 0.00D+00
 Large coefficients: NSaved= 19 BigCof=    0.00 CofMax=   10.00 Det=-3.62D-15
 Inversion failed.  Reducing to 18 matrices.
 Large coefficients: NSaved= 18 BigCof=    0.00 CofMax=   10.00 Det=-3.63D-15
 Inversion failed.  Reducing to 17 matrices.
 Large coefficients: NSaved= 17 BigCof=    0.00 CofMax=   10.00 Det=-3.64D-15
 Inversion failed.  Reducing to 16 matrices.
 Large coefficients: NSaved= 16 BigCof=    0.00 CofMax=   10.00 Det=-3.71D-15
 Inversion failed.  Reducing to 15 matrices.
 Coeff-Com: -0.878D-04 0.163D-04-0.343D-04 0.540D-04 0.425D-04 0.649D-04
 Coeff-Com: -0.109D-03-0.623D-03 0.440D-03 0.420D-02 0.131D-02-0.798D-02
 Coeff-Com: -0.140D+00 0.164D+00 0.979D+00
 Coeff:     -0.878D-04 0.163D-04-0.343D-04 0.540D-04 0.425D-04 0.649D-04
 Coeff:     -0.109D-03-0.623D-03 0.440D-03 0.420D-02 0.131D-02-0.798D-02
 Coeff:     -0.140D+00 0.164D+00 0.979D+00
 Gap=     0.219 Goal=   None    Shift=    0.000
 Gap=     0.105 Goal=   None    Shift=    0.000
 RMSDP=3.69D-09 MaxDP=1.24D-07 DE=-2.73D-12 OVMax= 4.30D-07

 SCF Done:  E(UB971) =  -1145.65756223     A.U. after   43 cycles
            NFock= 43  Conv=0.37D-08     -V/T= 2.0020
 <Sx>= 0.0000 <Sy>= 0.0000 <Sz>= 1.0000 <S**2>= 2.0085 S= 1.0028
 <L.S>= 0.000000000000E+00
 KE= 1.143370746100D+03 PE=-3.267488345886D+03 EE= 7.044549084097D+02
 Annihilation of the first spin contaminant:
 S**2 before annihilation     2.0085,   after     2.0000
 Leave Link  502 at Mon Oct 19 20:31:28 2015, MaxMem=   524288000 cpu:       171.7
 (Enter /opt/g09/l508.exe)
 QCSCF skips out because SCF is already converged.
 Leave Link  508 at Mon Oct 19 20:31:28 2015, MaxMem=   524288000 cpu:         0.0
 (Enter /opt/g09/l801.exe)
 DoSCS=F DFT=T ScalE2(SS,OS)=  1.000000  1.000000
 Range of M.O.s used for correlation:     1   126
 NBasis=   126 NAE=    30 NBE=    28 NFC=     0 NFV=     0
 NROrb=    126 NOA=    30 NOB=    28 NVA=    96 NVB=    98
 Leave Link  801 at Mon Oct 19 20:31:28 2015, MaxMem=   524288000 cpu:         0.2
 (Enter /opt/g09/l1101.exe)
 Using compressed storage, NAtomX=     5.
 Will process      6 centers per pass.
 Leave Link 1101 at Mon Oct 19 20:31:28 2015, MaxMem=   524288000 cpu:         1.3
 (Enter /opt/g09/l1102.exe)
 Symmetrizing basis deriv contribution to polar:
 IMax=3 JMax=2 DiffMx= 0.00D+00
 Leave Link 1102 at Mon Oct 19 20:31:28 2015, MaxMem=   524288000 cpu:         0.2
 (Enter /opt/g09/l1110.exe)
 Forming Gx(P) for the SCF density, NAtomX=     5.
 Integral derivatives from FoFJK, PRISM(SPDF).
 Do as many integral derivatives as possible in FoFJK.
 G2DrvN: MDV=     524287856.
 G2DrvN: will do     6 centers at a time, making    1 passes.
 Calling FoFCou, ICntrl=  3107 FMM=F I1Cent=   0 AccDes= 0.00D+00.
 FoFJK:  IHMeth= 1 ICntrl=    3107 DoSepK=F KAlg= 0 I1Cent=   0 FoldK=F
 IRaf=         0 NMat=   1 IRICut=       1 DoRegI=T DoRafI=F ISym2E= 0.
 FoFCou: FMM=F IPFlag=           0 FMFlag=      100000 FMFlg1=           0
         NFxFlg=           0 DoJE=F BraDBF=F KetDBF=F FulRan=T
         wScrn=  0.000000 ICntrl=    3107 IOpCl=  1 I1Cent=           0 NGrid=           0
         NMat0=    1 NMatS0=      1 NMatT0=    0 NMatD0=    1 NMtDS0=    0 NMtDT0=    0
 Symmetry not used in FoFCou.
 End of G2Drv F.D. properties file   721 does not exist.
 End of G2Drv F.D. properties file   722 does not exist.
 End of G2Drv F.D. properties file   788 does not exist.
 Leave Link 1110 at Mon Oct 19 20:31:36 2015, MaxMem=   524288000 cpu:        65.4
 (Enter /opt/g09/l1002.exe)
 Minotr:  UHF open shell wavefunction.
          IDoAtm=11111
          Direct CPHF calculation.
          Differentiating once with respect to electric field.
                with respect to dipole field.
          Differentiating once with respect to nuclear coordinates.
          Requested convergence is 1.0D-08 RMS, and 1.0D-07 maximum.
          Secondary convergence is 1.0D-12 RMS, and 1.0D-12 maximum.
          NewPWx=T KeepS1=F KeepF1=F KeepIn=T MapXYZ=F SortEE=F KeepMc=T.
          MDV=     524287694 using IRadAn=       1.
 Generate precomputed XC quadrature information.
 Keep R1 and R2 ints in memory in canonical form, NReq=65176830.
 FoFCou: FMM=F IPFlag=           0 FMFlag=           0 FMFlg1=           0
         NFxFlg=           0 DoJE=F BraDBF=F KetDBF=F FulRan=T
         wScrn=  0.000000 ICntrl=     600 IOpCl=  0 I1Cent=           0 NGrid=           0
         NMat0=    1 NMatS0=   8001 NMatT0=    0 NMatD0=    1 NMtDS0=    0 NMtDT0=    0
 Symmetry not used in FoFCou.
          Solving linear equations simultaneously, MaxMat=       0.
          There are    18 degrees of freedom in the 1st order CPHF.  IDoFFX=6 NUNeed=     3.
     15 vectors produced by pass  0 Test12= 3.12D-14 5.56D-09 XBig12= 2.16D+02 1.19D+01.
 AX will form    15 AO Fock derivatives at one time.
     15 vectors produced by pass  1 Test12= 3.12D-14 5.56D-09 XBig12= 1.86D+02 3.11D+00.
     15 vectors produced by pass  2 Test12= 3.12D-14 5.56D-09 XBig12= 1.13D+01 1.09D+00.
     15 vectors produced by pass  3 Test12= 3.12D-14 5.56D-09 XBig12= 7.55D-01 2.04D-01.
     15 vectors produced by pass  4 Test12= 3.12D-14 5.56D-09 XBig12= 2.50D-02 6.03D-02.
     15 vectors produced by pass  5 Test12= 3.12D-14 5.56D-09 XBig12= 6.82D-04 1.23D-02.
     15 vectors produced by pass  6 Test12= 3.12D-14 5.56D-09 XBig12= 4.65D-06 5.38D-04.
     14 vectors produced by pass  7 Test12= 3.12D-14 5.56D-09 XBig12= 2.81D-08 3.99D-05.
      5 vectors produced by pass  8 Test12= 3.12D-14 5.56D-09 XBig12= 2.41D-10 4.09D-06.
      3 vectors produced by pass  9 Test12= 3.12D-14 5.56D-09 XBig12= 1.47D-12 2.02D-07.
      1 vectors produced by pass 10 Test12= 3.12D-14 5.56D-09 XBig12= 7.08D-15 2.11D-08.
 InvSVY:  IOpt=1 It=  1 EMax= 3.04D-15
 Solved reduced A of dimension   128 with    15 vectors.
 FullF1:  Do perturbations    1 to     3.
 Isotropic polarizability for W=    0.000000       41.20 Bohr**3.
 End of Minotr F.D. properties file   721 does not exist.
 End of Minotr F.D. properties file   722 does not exist.
 End of Minotr F.D. properties file   788 does not exist.
 Leave Link 1002 at Mon Oct 19 20:31:53 2015, MaxMem=   524288000 cpu:       129.8
 (Enter /opt/g09/l701.exe)
 Compute integral second derivatives.
 ... and contract with generalized density number  0.
 Leave Link  701 at Mon Oct 19 20:31:53 2015, MaxMem=   524288000 cpu:         2.1
 (Enter /opt/g09/l702.exe)
 L702 exits ... SP integral derivatives will be done elsewhere.
 Leave Link  702 at Mon Oct 19 20:31:53 2015, MaxMem=   524288000 cpu:         0.2
 (Enter /opt/g09/l703.exe)
 Compute integral second derivatives, UseDBF=F ICtDFT=           0.
 Integral derivatives from FoFJK, PRISM(SPDF).
 Calling FoFJK, ICntrl=    100127 FMM=F ISym2X=0 I1Cent= 0 IOpClX= 1 NMat=1 NMatS=1 NMatT=0.
 FoFJK:  IHMeth= 1 ICntrl=  100127 DoSepK=F KAlg= 0 I1Cent=   0 FoldK=F
 IRaf=         0 NMat=   1 IRICut=       1 DoRegI=T DoRafI=F ISym2E= 0.
 FoFCou: FMM=F IPFlag=           0 FMFlag=      100000 FMFlg1=         800
         NFxFlg=           0 DoJE=F BraDBF=F KetDBF=F FulRan=T
         wScrn=  0.000000 ICntrl=  100127 IOpCl=  1 I1Cent=           0 NGrid=           0
         NMat0=    1 NMatS0=      1 NMatT0=    0 NMatD0=    1 NMtDS0=    0 NMtDT0=    0
 Symmetry not used in FoFCou.
 Leave Link  703 at Mon Oct 19 20:32:12 2015, MaxMem=   524288000 cpu:       148.7
 (Enter /opt/g09/l716.exe)
 Dipole        =-1.15166671D-02-1.41848646D-06 3.02415944D-01
 Polarizability= 3.43773357D+01-1.28481273D-04 5.21126298D+01
                 7.65634666D+00-1.28391132D-06 3.71122430D+01
 -------------------------------------------------------------------
 Center     Atomic                   Forces (Hartrees/Bohr)
 Number     Number              X              Y              Z
 -------------------------------------------------------------------
      1       17          -0.000000090    0.000000001    0.000002289
      2        8           0.000000564   -0.000000006    0.000000920
      3       17           0.000000438    0.000001247   -0.000000891
      4        8          -0.000000615    0.000000396   -0.000001498
      5        8          -0.000000297   -0.000001637   -0.000000819
 -------------------------------------------------------------------
 Cartesian Forces:  Max     0.000002289 RMS     0.000001006
 Force constants in Cartesian coordinates: 
                1             2             3             4             5 
      1  0.762245D-01
      2  0.000000D+00  0.128400D-03
      3  0.126008D+00  0.000000D+00  0.211732D+00
      4 -0.760510D-01  0.000000D+00 -0.127477D+00  0.807843D-01
      5  0.000000D+00 -0.218097D-03  0.000000D+00  0.000000D+00  0.577843D-03
      6 -0.125577D+00  0.000000D+00 -0.211415D+00  0.126254D+00  0.000000D+00
      7 -0.807641D-03  0.000000D+00  0.702163D-03 -0.389723D-02  0.000000D+00
      8  0.000000D+00  0.447551D-03  0.000000D+00  0.000000D+00 -0.102525D-02
      9 -0.185733D-02  0.000000D+00 -0.126326D-02  0.234517D-02  0.000000D+00
     10  0.317080D-03 -0.751372D-04  0.383199D-03 -0.418068D-03  0.386015D-03
     11  0.748999D-04 -0.178926D-03 -0.113532D-03 -0.504624D-03  0.332757D-03
     12  0.713081D-03  0.509478D-04  0.473317D-03 -0.561425D-03 -0.745804D-04
     13  0.317048D-03  0.751247D-04  0.383200D-03 -0.418020D-03 -0.386009D-03
     14 -0.748868D-04 -0.178929D-03  0.113548D-03  0.504607D-03  0.332750D-03
     15  0.713079D-03 -0.509515D-04  0.473319D-03 -0.561436D-03  0.745883D-04
                6             7             8             9            10 
      6  0.211589D+00
      7 -0.827787D-03  0.571636D-01
      8  0.000000D+00  0.000000D+00  0.527622D+00
      9  0.442773D-03  0.109236D+00  0.277539D-05  0.242118D+00
     10  0.751842D-04 -0.262288D-01 -0.660580D-01 -0.548620D-01  0.216444D-01
     11  0.362058D-03 -0.526643D-01 -0.263524D+00 -0.117170D+00  0.594205D-01
     12 -0.308185D-03 -0.545551D-01 -0.144685D+00 -0.120649D+00  0.451789D-01
     13  0.751770D-04 -0.262299D-01  0.660587D-01 -0.548622D-01  0.468544D-02
     14 -0.362061D-03  0.526650D-01 -0.263520D+00  0.117167D+00  0.632662D-02
     15 -0.308190D-03 -0.545556D-01  0.144682D+00 -0.120648D+00  0.922465D-02
               11            12            13            14            15 
     11  0.276185D+00
     12  0.130815D+00  0.100119D+00
     13 -0.632648D-02  0.922455D-02  0.216454D-01
     14 -0.128151D-01  0.138937D-01 -0.594214D-01  0.276181D+00
     15 -0.138936D-01  0.203648D-01  0.451793D-01 -0.130812D+00  0.100118D+00
 FormGI is forming the generalized inverse of G from B-inverse, IUseBI=4.
 Force constants in internal coordinates: 
                1             2             3             4             5 
      1  0.287096D+00
      2 -0.128059D-02  0.502363D-02
      3  0.413842D-03 -0.397413D-03  0.361798D+00
      4  0.413827D-03 -0.397419D-03  0.245228D-02  0.361793D+00
      5  0.100811D-02  0.254757D-02  0.884705D-03  0.884667D-03  0.839626D-02
      6 -0.393834D-03  0.400311D-03 -0.985130D-03  0.458602D-03  0.397585D-03
      7 -0.250784D-03  0.130192D-03  0.595813D-03 -0.356049D-03  0.723289D-04
      8 -0.152342D-02 -0.495061D-03  0.369732D-02  0.368858D-02 -0.142717D-02
      9  0.724397D-03  0.291951D-03 -0.214246D-02 -0.163035D-02  0.760705D-03
     10 -0.724415D-03 -0.291948D-03  0.167236D-02  0.210042D-02 -0.760664D-03
     11 -0.239325D-03  0.452056D-03 -0.491824D-03 -0.790897D-03  0.544691D-03
                6             7             8             9            10 
      6  0.688939D-02
      7 -0.210158D-04  0.305566D-02
      8  0.116413D-01  0.124755D-01  0.127610D+00
      9 -0.501700D-02 -0.634777D-02 -0.629652D-01  0.314894D-01
     10  0.575729D-02  0.585968D-02  0.629608D-01 -0.307269D-01  0.314463D-01
     11  0.173015D-02  0.133519D-02 -0.133716D-02  0.836610D-03 -0.989974D-03
               11 
     11  0.269845D-02
 Leave Link  716 at Mon Oct 19 20:32:12 2015, MaxMem=   524288000 cpu:         0.3
 (Enter /opt/g09/l103.exe)

 GradGradGradGradGradGradGradGradGradGradGradGradGradGradGradGradGradGrad
 Berny optimization.
 Red2BG is reusing G-inverse.
 Internal  Forces:  Max     0.000001492 RMS     0.000000679
 Search for a local minimum.
 Step number   1 out of a maximum of  100
 All quantities printed in internal units (Hartrees-Bohrs-Radians)
 RMS Force = .67873D-06 SwitMx=.10000D-02 MixMth= 2
 Mixed Optimization -- En-DIIS/RFO-DIIS
 Second derivative matrix not updated -- analytic derivatives used.
 The second derivative matrix:
                          R1        R2        R3        R4        A1
           R1           0.28710
           R2          -0.00128   0.00502
           R3           0.00041  -0.00040   0.36180
           R4           0.00041  -0.00040   0.00245   0.36179
           A1           0.00101   0.00255   0.00088   0.00088   0.00840
           A2          -0.00039   0.00040  -0.00099   0.00046   0.00040
           A3          -0.00025   0.00013   0.00060  -0.00036   0.00007
           A4          -0.00152  -0.00050   0.00370   0.00369  -0.00143
           D1           0.00072   0.00029  -0.00214  -0.00163   0.00076
           D2          -0.00072  -0.00029   0.00167   0.00210  -0.00076
           D3          -0.00024   0.00045  -0.00049  -0.00079   0.00054
                          A2        A3        A4        D1        D2
           A2           0.00689
           A3          -0.00002   0.00306
           A4           0.01164   0.01248   0.12761
           D1          -0.00502  -0.00635  -0.06297   0.03149
           D2           0.00576   0.00586   0.06296  -0.03073   0.03145
           D3           0.00173   0.00134  -0.00134   0.00084  -0.00099
                          D3
           D3           0.00270
 ITU=  0
     Eigenvalues ---    0.00064   0.00353   0.00375   0.00660   0.01002
     Eigenvalues ---    0.19178   0.28714   0.35935   0.36450
 RFO step:  Lambda= 0.00000000D+00 EMin= 6.43293802D-04
 Linear search not attempted -- first point.
 Iteration  1 RMS(Cart)=  0.00000725 RMS(Int)=  0.00000000
 Iteration  2 RMS(Cart)=  0.00000000 RMS(Int)=  0.00000000
 ITry= 1 IFail=0 DXMaxC= 1.32D-05 DCOld= 1.00D+10 DXMaxT= 2.56D+00 DXLimC= 3.00D+00 Rises=F
 Variable       Old X    -DE/DX   Delta X   Delta X   Delta X     New X
                                 (Linear)    (Quad)   (Total)
    R1        3.04163   0.00000   0.00000   0.00000   0.00000   3.04163
    R2        5.85493   0.00000   0.00000   0.00002   0.00002   5.85494
    R3        2.87106   0.00000   0.00000   0.00000   0.00000   2.87106
    R4        2.87106   0.00000   0.00000   0.00000   0.00000   2.87106
    A1        1.86042   0.00000   0.00000  -0.00001  -0.00001   1.86042
    A2        1.48012   0.00000   0.00000   0.00000   0.00000   1.48012
    A3        1.48012   0.00000   0.00000   0.00000   0.00000   1.48012
    A4        2.05440   0.00000   0.00000  -0.00001  -0.00001   2.05440
    D1       -1.03407   0.00000   0.00000   0.00001   0.00001  -1.03406
    D2        1.03407   0.00000   0.00000   0.00000   0.00000   1.03406
    D3        1.41976   0.00000   0.00000   0.00000   0.00000   1.41977
         Item               Value     Threshold  Converged?
 Maximum Force            0.000001     0.000015     YES
 RMS     Force            0.000001     0.000010     YES
 Maximum Displacement     0.000013     0.000060     YES
 RMS     Displacement     0.000007     0.000040     YES
 Predicted change in Energy=-1.082035D-11
 Optimization completed.
    -- Stationary point found.
                           ----------------------------
                           !   Optimized Parameters   !
                           ! (Angstroms and Degrees)  !
 --------------------------                            --------------------------
 ! Name  Definition              Value          Derivative Info.                !
 --------------------------------------------------------------------------------
 ! R1    R(1,2)                  1.6096         -DE/DX =    0.0                 !
 ! R2    R(2,3)                  3.0983         -DE/DX =    0.0                 !
 ! R3    R(3,4)                  1.5193         -DE/DX =    0.0                 !
 ! R4    R(3,5)                  1.5193         -DE/DX =    0.0                 !
 ! A1    A(1,2,3)              106.5945         -DE/DX =    0.0                 !
 ! A2    A(2,3,4)               84.8048         -DE/DX =    0.0                 !
 ! A3    A(2,3,5)               84.8044         -DE/DX =    0.0                 !
 ! A4    A(4,3,5)              117.7086         -DE/DX =    0.0                 !
 ! D1    D(1,2,3,4)            -59.2477         -DE/DX =    0.0                 !
 ! D2    D(1,2,3,5)             59.2476         -DE/DX =    0.0                 !
 ! D3    D(2,3,4,5)             81.3464         -DE/DX =    0.0                 !
 --------------------------------------------------------------------------------
 Lowest energy point so far.  Saving SCF results.
 GradGradGradGradGradGradGradGradGradGradGradGradGradGradGradGradGradGrad

 Largest change from initial coordinates is atom    0       0.000 Angstoms.
 Leave Link  103 at Mon Oct 19 20:32:12 2015, MaxMem=   524288000 cpu:         0.1
 (Enter /opt/g09/l202.exe)
                          Input orientation:                          
 ---------------------------------------------------------------------
 Center     Atomic      Atomic             Coordinates (Angstroms)
 Number     Number       Type             X           Y           Z
 ---------------------------------------------------------------------
      1         17           0       -2.202330    0.000000   -0.347270
      2          8           0       -1.378250    0.000000    1.035330
      3         17           0        1.625350    0.000000    0.275190
      4          8           0        1.302170   -1.300300   -0.441080
      5          8           0        1.302160    1.300300   -0.441080
 ---------------------------------------------------------------------
                    Distance matrix (angstroms):
                    1          2          3          4          5
     1  Cl   0.000000
     2  O    1.609562   0.000000
     3  Cl   3.877962   3.098294   0.000000
     4  O    3.739131   3.324939   1.519299   0.000000
     5  O    3.739122   3.324931   1.519301   2.600600   0.000000
 Symmetry turned off by external request.
 Stoichiometry    Cl2O3(3)
 Framework group  C1[X(Cl2O3)]
 Deg. of freedom     9
 Full point group                 C1      NOp   1
 Rotational constants (GHZ):      5.9937749      1.3410786      1.2612296
 Leave Link  202 at Mon Oct 19 20:32:12 2015, MaxMem=   524288000 cpu:         0.1
 (Enter /opt/g09/l716.exe)
 Dipole        =-1.15166671D-02-1.41848646D-06 3.02415944D-01
 Polarizability= 3.43773357D+01-1.28481273D-04 5.21126298D+01
                 7.65634666D+00-1.28391132D-06 3.71122430D+01
 Full mass-weighted force constant matrix:
 Low frequencies ---   -7.6884   -0.0032   -0.0015    0.0026    0.6491    3.9932
 Low frequencies ---   19.6600   35.7697   45.7681
 Diagonal vibrational polarizability:
      190.8980480     348.4235359      39.2779732
 Harmonic frequencies (cm**-1), IR intensities (KM/Mole), Raman scattering
 activities (A**4/AMU), depolarization ratios for plane and unpolarized
 incident light, reduced masses (AMU), force constants (mDyne/A),
 and normal coordinates:
                      1                      2                      3
                      A                      A                      A
 Frequencies --     19.2191                35.7689                45.7440
 Red. masses --     18.0162                25.0554                16.5948
 Frc consts  --      0.0039                 0.0189                 0.0205
 IR Inten    --      4.3354                 4.4372                 2.3588
  Atom  AN      X      Y      Z        X      Y      Z        X      Y      Z
     1  17     0.00   0.32   0.00     0.65   0.00  -0.09     0.00  -0.12   0.00
     2   8     0.00  -0.39   0.00    -0.10   0.00   0.35     0.00   0.68   0.00
     3  17     0.00   0.03   0.00    -0.20   0.00  -0.09     0.00  -0.13   0.00
     4   8     0.55  -0.20   0.17    -0.44   0.00   0.02     0.39  -0.07  -0.30
     5   8    -0.55  -0.20  -0.17    -0.44   0.00   0.02    -0.39  -0.07   0.30
                      4                      5                      6
                      A                      A                      A
 Frequencies --     63.3236               100.2375               419.0059
 Red. masses --     18.0168                20.9264                18.4803
 Frc consts  --      0.0426                 0.1239                 1.9116
 IR Inten    --     12.3058                18.9079                19.7502
  Atom  AN      X      Y      Z        X      Y      Z        X      Y      Z
     1  17     0.09   0.00   0.03     0.07   0.00   0.08     0.00   0.00   0.00
     2   8    -0.44   0.00   0.35     0.77   0.00  -0.35     0.00   0.00   0.00
     3  17    -0.30   0.00   0.07    -0.47   0.00   0.16     0.16   0.00   0.33
     4   8     0.46   0.00  -0.28     0.06   0.01  -0.09    -0.17   0.53  -0.36
     5   8     0.46   0.00  -0.28     0.06  -0.01  -0.09    -0.17  -0.53  -0.36
                      7                      8                      9
                      A                      A                      A
 Frequencies --    832.3575               873.5119               996.0974
 Red. masses --     19.2621                18.3080                20.4533
 Frc consts  --      7.8627                 8.2306                11.9569
 IR Inten    --      6.5593                 9.4435                82.0571
  Atom  AN      X      Y      Z        X      Y      Z        X      Y      Z
     1  17     0.21   0.00   0.36     0.01   0.00   0.01     0.00   0.00   0.00
     2   8    -0.47   0.00  -0.78    -0.01   0.00  -0.01     0.00   0.00   0.00
     3  17     0.01   0.00   0.00    -0.14   0.00  -0.32     0.00   0.48   0.00
     4   8     0.00  -0.01  -0.01     0.16   0.54   0.35    -0.13  -0.53  -0.29
     5   8     0.00   0.01  -0.01     0.16  -0.54   0.35     0.13  -0.53   0.29

 -------------------
 - Thermochemistry -
 -------------------
 Temperature   298.150 Kelvin.  Pressure   1.00000 Atm.
 Atom     1 has atomic number 17 and mass  34.96885
 Atom     2 has atomic number  8 and mass  15.99491
 Atom     3 has atomic number 17 and mass  34.96885
 Atom     4 has atomic number  8 and mass  15.99491
 Atom     5 has atomic number  8 and mass  15.99491
 Molecular mass:   117.92245 amu.
 Principal axes and moments of inertia in atomic units:
                           1         2         3
     Eigenvalues --   301.102601345.738581430.93783
           X            0.99999   0.00000  -0.00375
           Y            0.00000   1.00000   0.00000
           Z            0.00375   0.00000   0.99999
 This molecule is an asymmetric top.
 Rotational symmetry number  1.
 Rotational temperatures (Kelvin)      0.28766     0.06436     0.06053
 Rotational constants (GHZ):           5.99377     1.34108     1.26123
 Zero-point vibrational energy      20248.4 (Joules/Mol)
                                    4.83948 (Kcal/Mol)
 Warning -- explicit consideration of   6 degrees of freedom as
           vibrations may cause significant error
 Vibrational temperatures:     27.65    51.46    65.82    91.11   144.22
          (Kelvin)            602.86  1197.58  1256.79  1433.16
 
 Zero-point correction=                           0.007712 (Hartree/Particle)
 Thermal correction to Energy=                    0.015154
 Thermal correction to Enthalpy=                  0.016098
 Thermal correction to Gibbs Free Energy=        -0.029781
 Sum of electronic and zero-point Energies=          -1145.649850
 Sum of electronic and thermal Energies=             -1145.642408
 Sum of electronic and thermal Enthalpies=           -1145.641464
 Sum of electronic and thermal Free Energies=        -1145.687343
 
                     E (Thermal)             CV                S
                      KCal/Mol        Cal/Mol-Kelvin    Cal/Mol-Kelvin
 Total                    9.509             18.776             96.561
 Electronic               0.000              0.000              2.183
 Translational            0.889              2.981             40.209
 Rotational               0.889              2.981             27.852
 Vibrational              7.732             12.814             26.316
 Vibration     1          0.593              1.986              6.713
 Vibration     2          0.594              1.982              5.481
[...]
     3  17     0.01   0.00   0.00    -0.14   0.00  -0.32     0.00   0.48   0.00
     4   8     0.00  -0.01  -0.01     0.16   0.54   0.35    -0.13  -0.53  -0.29
     5   8     0.00   0.01  -0.01     0.16  -0.54   0.35     0.13  -0.53   0.29

 -------------------
 - Thermochemistry -
 -------------------
 Temperature   298.150 Kelvin.  Pressure   1.00000 Atm.
 Atom     1 has atomic number 17 and mass  34.96885
 Atom     2 has atomic number  8 and mass  15.99491
 Atom     3 has atomic number 17 and mass  34.96885
 Atom     4 has atomic number  8 and mass  15.99491
 Atom     5 has atomic number  8 and mass  15.99491
 Molecular mass:   117.92245 amu.
 Principal axes and moments of inertia in atomic units:
                           1         2         3
     Eigenvalues --   301.102601345.738581430.93783
           X            0.99999   0.00000  -0.00375
           Y            0.00000   1.00000   0.00000
           Z            0.00375   0.00000   0.99999
 This molecule is an asymmetric top.
 Rotational symmetry number  1.
 Rotational temperatures (Kelvin)      0.28766     0.06436     0.06053
 Rotational constants (GHZ):           5.99377     1.34108     1.26123
 Zero-point vibrational energy      20248.4 (Joules/Mol)
                                    4.83948 (Kcal/Mol)
 Warning -- explicit consideration of   6 degrees of freedom as
           vibrations may cause significant error
 Vibrational temperatures:     27.65    51.46    65.81    91.11   144.22
          (Kelvin)            602.86  1197.58  1256.79  1433.16
 
 Zero-point correction=                           0.007712 (Hartree/Particle)
 Thermal correction to Energy=                    0.015154
 Thermal correction to Enthalpy=                  0.016098
 Thermal correction to Gibbs Free Energy=        -0.029781
 Sum of electronic and zero-point Energies=          -1145.649850
 Sum of electronic and thermal Energies=             -1145.642408
 Sum of electronic and thermal Enthalpies=           -1145.641464
 Sum of electronic and thermal Free Energies=        -1145.687343
 
                     E (Thermal)             CV                S
                      KCal/Mol        Cal/Mol-Kelvin    Cal/Mol-Kelvin
 Total                    9.509             18.776             96.561
 Electronic               0.000              0.000              2.183
 Translational            0.889              2.981             40.209
 Rotational               0.889              2.981             27.852
 Vibrational              7.732             12.814             26.316
 Vibration     1          0.593              1.986              6.713
 Vibration     2          0.594              1.982              5.481
 Vibration     3          0.595              1.979              4.993
 Vibration     4          0.597              1.972              4.351
 Vibration     5          0.604              1.949              3.450
 Vibration     6          0.782              1.429              0.895
                       Q            Log10(Q)             Ln(Q)
 Total Bot       0.499142D+14         13.698224         31.541327
 Total V=0       0.176028D+18         17.245581         39.709419
 Vib (Bot)       0.121271D+01          0.083759          0.192862
 Vib (Bot)    1  0.107785D+02          1.032557          2.377550
 Vib (Bot)    2  0.578626D+01          0.762398          1.755486
 Vib (Bot)    3  0.452112D+01          0.655246          1.508760
 Vib (Bot)    4  0.325977D+01          0.513187          1.181658
 Vib (Bot)    5  0.204732D+01          0.311186          0.716532
 Vib (Bot)    6  0.419380D+00         -0.377392         -0.868978
 Vib (V=0)       0.427677D+04          3.631116          8.360953
 Vib (V=0)    1  0.112901D+02          1.052696          2.423922
 Vib (V=0)    2  0.630782D+01          0.799879          1.841790
 Vib (V=0)    3  0.504868D+01          0.703178          1.619127
 Vib (V=0)    4  0.379790D+01          0.579543          1.334447
 Vib (V=0)    5  0.260749D+01          0.416223          0.958389
 Vib (V=0)    6  0.115259D+01          0.061677          0.142016
 Electronic      0.300000D+01          0.477121          1.098612
 Translational   0.503327D+08          7.701850         17.734165
 Rotational      0.272580D+06          5.435494         12.515688
 
                                                      ./00_00fine-Cl2O3_3let.g09
                                                             IR Spectrum
 
                                                                                                                                     
     9               8    8                                                    4                                        1            
     9               7    3                                                    1                                        0   6  43 1  
     6               4    2                                                    9                                        0   3  66 9  
 
     X               X    X                                                    X                                        X   X  XX X  
     X               X    X                                                    X                                        X   X        
     X                                                                         X                                        X   X        
     X                                                                         X                                        X            
     X                                                                         X                                        X            
     X                                                                                                                               
     X                                                                                                                               
     X                                                                                                                               
     X                                                                                                                               
     X                                                                                                                               
     X                                                                                                                               
     X                                                                                                                               
     X                                                                                                                               
     X                                                                                                                               
     X                                                                                                                               
     X                                                                                                                               
     X                                                                                                                               
     X                                                                                                                               
     X                                                                                                                               
     X                                                                                                                               
 
 -------------------------------------------------------------------
 Center     Atomic                   Forces (Hartrees/Bohr)
 Number     Number              X              Y              Z
 -------------------------------------------------------------------
      1       17          -0.000000087    0.000000001    0.000002294
      2        8           0.000000561   -0.000000006    0.000000915
      3       17           0.000000439    0.000001245   -0.000000889
      4        8          -0.000000616    0.000000395   -0.000001499
      5        8          -0.000000297   -0.000001635   -0.000000820
 -------------------------------------------------------------------
 Cartesian Forces:  Max     0.000002294 RMS     0.000001006
 Force constants in Cartesian coordinates: 
                1             2             3             4             5 
      1  0.762245D-01
      2  0.000000D+00  0.128386D-03
      3  0.126008D+00  0.000000D+00  0.211732D+00
      4 -0.760510D-01  0.000000D+00 -0.127477D+00  0.807843D-01
      5  0.000000D+00 -0.218067D-03  0.000000D+00  0.000000D+00  0.577764D-03
      6 -0.125577D+00  0.000000D+00 -0.211415D+00  0.126254D+00  0.000000D+00
      7 -0.807640D-03  0.000000D+00  0.702163D-03 -0.389723D-02  0.000000D+00
      8  0.000000D+00  0.447516D-03  0.000000D+00  0.000000D+00 -0.102514D-02
      9 -0.185733D-02  0.000000D+00 -0.126326D-02  0.234517D-02  0.000000D+00
     10  0.317079D-03 -0.751250D-04  0.383199D-03 -0.418067D-03  0.385976D-03
     11  0.749001D-04 -0.178916D-03 -0.113531D-03 -0.504624D-03  0.332724D-03
     12  0.713082D-03  0.509489D-04  0.473317D-03 -0.561425D-03 -0.745838D-04
     13  0.317048D-03  0.751125D-04  0.383200D-03 -0.418020D-03 -0.385969D-03
     14 -0.748870D-04 -0.178919D-03  0.113548D-03  0.504607D-03  0.332718D-03
     15  0.713080D-03 -0.509525D-04  0.473319D-03 -0.561436D-03  0.745917D-04
                6             7             8             9            10 
      6  0.211589D+00
      7 -0.827788D-03  0.571636D-01
      8  0.000000D+00  0.000000D+00  0.527622D+00
      9  0.442773D-03  0.109236D+00  0.277397D-05  0.242118D+00
     10  0.751843D-04 -0.262288D-01 -0.660579D-01 -0.548620D-01  0.216444D-01
     11  0.362057D-03 -0.526643D-01 -0.263524D+00 -0.117170D+00  0.594204D-01
     12 -0.308185D-03 -0.545551D-01 -0.144685D+00 -0.120649D+00  0.451789D-01
     13  0.751773D-04 -0.262299D-01  0.660587D-01 -0.548622D-01  0.468547D-02
     14 -0.362060D-03  0.526650D-01 -0.263520D+00  0.117167D+00  0.632660D-02
     15 -0.308190D-03 -0.545556D-01  0.144682D+00 -0.120648D+00  0.922465D-02
               11            12            13            14            15 
     11  0.276185D+00
     12  0.130815D+00  0.100119D+00
     13 -0.632646D-02  0.922455D-02  0.216454D-01
     14 -0.128151D-01  0.138937D-01 -0.594213D-01  0.276181D+00
     15 -0.138936D-01  0.203648D-01  0.451793D-01 -0.130812D+00  0.100118D+00
 FormGI is forming the generalized inverse of G from B-inverse, IUseBI=4.
 Force constants in internal coordinates: 
                1             2             3             4             5 
      1  0.287096D+00
      2 -0.128059D-02  0.502363D-02
      3  0.413842D-03 -0.397413D-03  0.361798D+00
      4  0.413827D-03 -0.397419D-03  0.245231D-02  0.361793D+00
      5  0.100811D-02  0.254757D-02  0.884706D-03  0.884668D-03  0.839626D-02
      6 -0.393833D-03  0.400311D-03 -0.985060D-03  0.458533D-03  0.397587D-03
      7 -0.250784D-03  0.130192D-03  0.595767D-03 -0.356003D-03  0.723301D-04
      8 -0.152342D-02 -0.495061D-03  0.369732D-02  0.368858D-02 -0.142717D-02
      9  0.724397D-03  0.291951D-03 -0.214244D-02 -0.163038D-02  0.760706D-03
     10 -0.724415D-03 -0.291948D-03  0.167238D-02  0.210040D-02 -0.760664D-03
     11 -0.239324D-03  0.452057D-03 -0.491838D-03 -0.790882D-03  0.544694D-03
                6             7             8             9            10 
      6  0.688918D-02
      7 -0.208754D-04  0.305557D-02
      8  0.116413D-01  0.124755D-01  0.127610D+00
      9 -0.501708D-02 -0.634772D-02 -0.629652D-01  0.314893D-01
     10  0.575723D-02  0.585973D-02  0.629608D-01 -0.307269D-01  0.314463D-01
     11  0.173020D-02  0.133516D-02 -0.133716D-02  0.836627D-03 -0.989961D-03
               11 
     11  0.269844D-02
 Leave Link  716 at Mon Oct 19 20:32:58 2015, MaxMem=   524288000 cpu:         0.3
 (Enter /opt/g09/l103.exe)

 GradGradGradGradGradGradGradGradGradGradGradGradGradGradGradGradGradGrad
 Berny optimization.
 Red2BG is reusing G-inverse.
 Internal  Forces:  Max     0.000001489 RMS     0.000000678
 Search for a local minimum.
 Step number   1 out of a maximum of    2
 All quantities printed in internal units (Hartrees-Bohrs-Radians)
 Second derivative matrix not updated -- analytic derivatives used.
 The second derivative matrix:
                          R1        R2        R3        R4        A1
           R1           0.28710
           R2          -0.00128   0.00502
           R3           0.00041  -0.00040   0.36180
           R4           0.00041  -0.00040   0.00245   0.36179
           A1           0.00101   0.00255   0.00088   0.00088   0.00840
           A2          -0.00039   0.00040  -0.00099   0.00046   0.00040
           A3          -0.00025   0.00013   0.00060  -0.00036   0.00007
           A4          -0.00152  -0.00050   0.00370   0.00369  -0.00143
           D1           0.00072   0.00029  -0.00214  -0.00163   0.00076
           D2          -0.00072  -0.00029   0.00167   0.00210  -0.00076
           D3          -0.00024   0.00045  -0.00049  -0.00079   0.00054
                          A2        A3        A4        D1        D2
           A2           0.00689
           A3          -0.00002   0.00306
           A4           0.01164   0.01248   0.12761
           D1          -0.00502  -0.00635  -0.06297   0.03149
           D2           0.00576   0.00586   0.06296  -0.03073   0.03145
           D3           0.00173   0.00134  -0.00134   0.00084  -0.00099
                          D3
           D3           0.00270
 ITU=  0
     Eigenvalues ---    0.00064   0.00353   0.00375   0.00660   0.01002
     Eigenvalues ---    0.19178   0.28714   0.35935   0.36450
 Angle between quadratic step and forces=  62.57 degrees.
 Linear search not attempted -- first point.
 Iteration  1 RMS(Cart)=  0.00000733 RMS(Int)=  0.00000000
 Iteration  2 RMS(Cart)=  0.00000000 RMS(Int)=  0.00000000
 ITry= 1 IFail=0 DXMaxC= 1.32D-05 DCOld= 1.00D+10 DXMaxT= 2.56D+00 DXLimC= 3.00D+00 Rises=F
 Variable       Old X    -DE/DX   Delta X   Delta X   Delta X     New X
                                 (Linear)    (Quad)   (Total)
    R1        3.04163   0.00000   0.00000   0.00000   0.00000   3.04163
    R2        5.85493   0.00000   0.00000   0.00002   0.00002   5.85494
    R3        2.87106   0.00000   0.00000   0.00000   0.00000   2.87106
    R4        2.87106   0.00000   0.00000   0.00000   0.00000   2.87106
    A1        1.86042   0.00000   0.00000  -0.00001  -0.00001   1.86042
    A2        1.48012   0.00000   0.00000   0.00000   0.00000   1.48012
    A3        1.48012   0.00000   0.00000   0.00000   0.00000   1.48012
    A4        2.05440   0.00000   0.00000  -0.00001  -0.00001   2.05440
    D1       -1.03407   0.00000   0.00000   0.00001   0.00001  -1.03406
    D2        1.03407   0.00000   0.00000   0.00000   0.00000   1.03406
    D3        1.41976   0.00000   0.00000   0.00001   0.00001   1.41977
         Item               Value     Threshold  Converged?
 Maximum Force            0.000001     0.000015     YES
 RMS     Force            0.000001     0.000010     YES
 Maximum Displacement     0.000013     0.000060     YES
 RMS     Displacement     0.000007     0.000040     YES
 Predicted change in Energy=-1.081162D-11
 Optimization completed.
    -- Stationary point found.
                           ----------------------------
                           !   Optimized Parameters   !
                           ! (Angstroms and Degrees)  !
 --------------------------                            --------------------------
 ! Name  Definition              Value          Derivative Info.                !
 --------------------------------------------------------------------------------
 ! R1    R(1,2)                  1.6096         -DE/DX =    0.0                 !
 ! R2    R(2,3)                  3.0983         -DE/DX =    0.0                 !
 ! R3    R(3,4)                  1.5193         -DE/DX =    0.0                 !
 ! R4    R(3,5)                  1.5193         -DE/DX =    0.0                 !
 ! A1    A(1,2,3)              106.5945         -DE/DX =    0.0                 !
 ! A2    A(2,3,4)               84.8048         -DE/DX =    0.0                 !
 ! A3    A(2,3,5)               84.8044         -DE/DX =    0.0                 !
 ! A4    A(4,3,5)              117.7086         -DE/DX =    0.0                 !
 ! D1    D(1,2,3,4)            -59.2477         -DE/DX =    0.0                 !
 ! D2    D(1,2,3,5)             59.2476         -DE/DX =    0.0                 !
 ! D3    D(2,3,4,5)             81.3464         -DE/DX =    0.0                 !
 --------------------------------------------------------------------------------
 GradGradGradGradGradGradGradGradGradGradGradGradGradGradGradGradGradGrad

 Leave Link  103 at Mon Oct 19 20:32:58 2015, MaxMem=   524288000 cpu:         0.1
 (Enter /opt/g09/l9999.exe)
 1\1\GINC-CONSTABLE\Freq\UB971\6-311+G(d,p)\Cl2O3(3)\PB556\19-Oct-2015\
 0\\#P Geom=AllCheck Guess=TCheck SCRF=Check GenChk UB971/6-311+G(d,p) 
 Freq\\./00_00fine-Cl2O3_3let.g09\\0,3\Cl,-2.20233,0.,-0.34727\O,-1.378
 25,0.,1.03533\Cl,1.62535,0.,0.27519\O,1.30217,-1.3003,-0.44108\O,1.302
 16,1.3003,-0.44108\\Version=ES64L-G09RevD.01\HF=-1145.6575622\S2=2.008
 467\S2-1=0.\S2A=2.000043\RMSD=5.039e-10\RMSF=1.006e-06\ZeroPoint=0.007
 7122\Thermal=0.0151541\Dipole=-0.0115168,-0.0000015,0.3024157\DipoleDe
 riv=0.0379052,0.0000001,-0.1978462,0.,0.2076352,-0.0000002,-0.2580179,
 -0.0000002,-0.1247245,-0.09622,-0.0000004,0.2001527,0.0000006,-0.19868
 54,0.,0.2409389,0.0000004,0.1391976,0.7786396,-0.0000006,0.0133922,-0.
 000003,1.1788716,0.0000004,0.0045474,0.0000028,0.6689051,-0.3601614,-0
 .0740965,-0.0078498,0.047835,-0.5939127,0.0705366,0.0062663,-0.1576886
 ,-0.341689,-0.3601633,0.0740974,-0.0078489,-0.0478325,-0.5939087,-0.07
 0537,0.0062653,0.1576857,-0.3416892\Polar=34.3773386,-0.0001285,52.112
 666,7.6563471,-0.0000013,37.1122444\PG=C01 [X(Cl2O3)]\NImag=0\\0.07622
 449,0.,0.00012839,0.12600814,-0.00000001,0.21173199,-0.07605098,0.,-0.
 12747670,0.08078429,0.00000001,-0.00021807,0.00000001,0.,0.00057776,-0
 .12557697,0.,-0.21141536,0.12625440,0.,0.21158896,-0.00080764,0.,0.000
 70216,-0.00389723,0.,-0.00082779,0.05716363,-0.00000003,0.00044752,-0.
 00000002,0.00000002,-0.00102514,0.,-0.00000076,0.52762150,-0.00185733,
 0.,-0.00126326,0.00234517,-0.00000001,0.00044277,0.10923636,0.00000277
 ,0.24211806,0.00031708,-0.00007512,0.00038320,-0.00041807,0.00038598,0
 .00007518,-0.02622885,-0.06605789,-0.05486198,0.02164437,0.00007490,-0
 .00017892,-0.00011353,-0.00050462,0.00033272,0.00036206,-0.05266425,-0
 .26352412,-0.11717000,0.05942044,0.27618545,0.00071308,0.00005095,0.00
 047332,-0.00056143,-0.00007458,-0.00030818,-0.05455515,-0.14468510,-0.
 12064928,0.04517894,0.13081508,0.10011932,0.00031705,0.00007511,0.0003
 8320,-0.00041802,-0.00038597,0.00007518,-0.02622992,0.06605865,-0.0548
 6222,0.00468547,-0.00632646,0.00922455,0.02164542,-0.00007489,-0.00017
 892,0.00011355,0.00050461,0.00033272,-0.00036206,0.05266501,-0.2635197
 7,0.11716723,0.00632660,-0.01281514,0.01389365,-0.05942133,0.27618111,
 0.00071308,-0.00005095,0.00047332,-0.00056144,0.00007459,-0.00030819,-
 0.05455559,0.14468234,-0.12064829,0.00922465,-0.01389361,0.02036483,0.
 04517929,-0.13081237,0.10011834\\0.00000009,0.,-0.00000229,-0.00000056
 ,0.,-0.00000092,-0.00000044,-0.00000124,0.00000089,0.00000062,-0.00000
 040,0.00000150,0.00000030,0.00000163,0.00000082\\\@


 I LOVE THOSE WHO LONG FOR THE IMPOSSIBLE.

                                 -- GOETHE
 Job cpu time:       0 days  0 hours  6 minutes  4.5 seconds.
 File lengths (MBytes):  RWF=     27 Int=      0 D2E=      0 Chk=      2 Scr=      1
 Normal termination of Gaussian 09 at Mon Oct 19 20:32:58 2015.
