 Entering Gaussian System, Link 0=g09
 Input=0_2-internal-freq-trimer-i-19_spin-5.gau
 Output=0_2-internal-freq-trimer-i-19_spin-5.log
 Initial command:
 /opt/g09/l1.exe "/scratch/pb556/g09_run/ti_runs//Gau-30107.inp" -scrdir="/scratch/pb556/g09_run/ti_runs//"
 Entering Link 1 = /opt/g09/l1.exe PID=     30108.
  
 Copyright (c) 1988,1990,1992,1993,1995,1998,2003,2009,2013,
            Gaussian, Inc.  All Rights Reserved.
  
 This is part of the Gaussian(R) 09 program.  It is based on
 the Gaussian(R) 03 system (copyright 2003, Gaussian, Inc.),
 the Gaussian(R) 98 system (copyright 1998, Gaussian, Inc.),
 the Gaussian(R) 94 system (copyright 1995, Gaussian, Inc.),
 the Gaussian 92(TM) system (copyright 1992, Gaussian, Inc.),
 the Gaussian 90(TM) system (copyright 1990, Gaussian, Inc.),
 the Gaussian 88(TM) system (copyright 1988, Gaussian, Inc.),
 the Gaussian 86(TM) system (copyright 1986, Carnegie Mellon
 University), and the Gaussian 82(TM) system (copyright 1983,
 Carnegie Mellon University). Gaussian is a federally registered
 trademark of Gaussian, Inc.
  
 This software contains proprietary and confidential information,
 including trade secrets, belonging to Gaussian, Inc.
  
 This software is provided under written license and may be
 used, copied, transmitted, or stored only in accord with that
 written license.
  
 The following legend is applicable only to US Government
 contracts under FAR:
  
                    RESTRICTED RIGHTS LEGEND
  
 Use, reproduction and disclosure by the US Government is
 subject to restrictions as set forth in subparagraphs (a)
 and (c) of the Commercial Computer Software - Restricted
 Rights clause in FAR 52.227-19.
  
 Gaussian, Inc.
 340 Quinnipiac St., Bldg. 40, Wallingford CT 06492
  
  
 ---------------------------------------------------------------
 Warning -- This program may not be used in any manner that
 competes with the business of Gaussian, Inc. or will provide
 assistance to any competitor of Gaussian, Inc.  The licensee
 of this program is prohibited from giving any competitor of
 Gaussian, Inc. access to this program.  By using this program,
 the user acknowledges that Gaussian, Inc. is engaged in the
 business of creating and licensing software in the field of
 computational chemistry and represents and warrants to the
 licensee that it is not a competitor of Gaussian, Inc. and that
 it will not use this program in any manner prohibited above.
 ---------------------------------------------------------------
  

 Cite this work as:
 Gaussian 09, Revision D.01,
 M. J. Frisch, G. W. Trucks, H. B. Schlegel, G. E. Scuseria, 
 M. A. Robb, J. R. Cheeseman, G. Scalmani, V. Barone, B. Mennucci, 
 G. A. Petersson, H. Nakatsuji, M. Caricato, X. Li, H. P. Hratchian, 
 A. F. Izmaylov, J. Bloino, G. Zheng, J. L. Sonnenberg, M. Hada, 
 M. Ehara, K. Toyota, R. Fukuda, J. Hasegawa, M. Ishida, T. Nakajima, 
 Y. Honda, O. Kitao, H. Nakai, T. Vreven, J. A. Montgomery, Jr., 
 J. E. Peralta, F. Ogliaro, M. Bearpark, J. J. Heyd, E. Brothers, 
 K. N. Kudin, V. N. Staroverov, T. Keith, R. Kobayashi, J. Normand, 
 K. Raghavachari, A. Rendell, J. C. Burant, S. S. Iyengar, J. Tomasi, 
 M. Cossi, N. Rega, J. M. Millam, M. Klene, J. E. Knox, J. B. Cross, 
 V. Bakken, C. Adamo, J. Jaramillo, R. Gomperts, R. E. Stratmann, 
 O. Yazyev, A. J. Austin, R. Cammi, C. Pomelli, J. W. Ochterski, 
 R. L. Martin, K. Morokuma, V. G. Zakrzewski, G. A. Voth, 
 P. Salvador, J. J. Dannenberg, S. Dapprich, A. D. Daniels, 
 O. Farkas, J. B. Foresman, J. V. Ortiz, J. Cioslowski, 
 and D. J. Fox, Gaussian, Inc., Wallingford CT, 2013.
 
 ******************************************
 Gaussian 09:  ES64L-G09RevD.01 24-Apr-2013
                28-Mar-2016 
 ******************************************
 %NProcShared=8
 Will use up to    8 processors via shared memory.
 %Mem=500MW
 ----------------------------------------------------------------------
 #p uB971/6-311+G(d,p) Opt=(Tight, CalcAll, MaxCycles=512, MaxStep=256)
  Freq GFInput Population=None Integral(Grid=UltraFine) Geom=Connectivi
 ty SCF=XQC Guess=MIX NoSymmetry
 ----------------------------------------------------------------------
 1/6=512,7=10,8=256,10=4,14=-1,18=20,19=15,26=4,38=1,57=2/1,3;
 2/9=110,12=2,15=1,17=6,18=5,40=1/2;
 3/5=4,6=6,7=111,11=2,16=1,24=10,25=1,30=1,71=2,74=-20,75=-5,116=2,140=1/1,2,3;
 4/13=-1/1;
 5/5=2,8=3,13=1,38=5/2,8;
 8/6=4,10=90,11=11/1;
 11/6=1,8=1,9=11,15=111,16=1,31=1/1,2,10;
 10/6=1,31=1/2;
 7/10=1,25=1,30=1/1,2,3,16;
 1/6=512,7=10,8=256,10=4,14=-1,18=20,19=15,26=4/3(3);
 2/9=110,15=1/2;
 7/8=1,9=1,25=1,30=1,44=-1/16;
 99//99;
 2/9=110,15=1/2;
 3/5=4,6=6,7=111,11=2,16=1,25=1,30=1,71=2,74=-20,75=-5,116=2,140=1/1,2,3;
 4/5=5,16=3,69=1/1;
 5/5=2,8=3,13=1,38=5/2,8;
 8/6=4,10=90,11=11/1;
 11/6=1,8=1,9=11,15=111,16=1,31=1/1,2,10;
 10/6=1,31=1/2;
 7/10=1,25=1,30=1/1,2,3,16;
 1/6=512,7=10,8=256,10=4,14=-1,18=20,19=15,26=4/3(-8);
 2/9=110,15=1/2;
 7/8=1,9=1,25=1,30=1,44=-1/16;
 99//99;
 Leave Link    1 at Mon Mar 28 22:49:48 2016, MaxMem=   524288000 cpu:         0.7
 (Enter /opt/g09/l101.exe)
 ------------------------------------------
 ./0_1_internal-fine-trimer-i-19_spin-5.g09
 ------------------------------------------
 Symbolic Z-matrix:
 Charge =  0 Multiplicity = 5
 Ti                   -0.32333   2.38054  -1.20475 
 O                    -0.41663   0.61155  -0.87061 
 Ti                   -1.26421   0.52442   0.79003 
 O                    -3.19217   1.12112   0.49065 
 Ti                   -2.85634   2.7936    0.27881 
 O                    -1.09305   2.61088   0.68319 
 O                    -2.38557   2.8605   -1.60359 
 Cl                    1.28993   3.63798  -2.1502 
 Cl                   -4.12513   4.352     1.25865 
 O                    -0.8348   -0.52429   2.28621 
 
 NAtoms=     10 NQM=       10 NQMF=       0 NMMI=      0 NMMIF=      0
                NMic=       0 NMicF=      0.
                    Isotopes and Nuclear Properties:
 (Nuclear quadrupole moments (NQMom) in fm**2, nuclear magnetic moments (NMagM)
  in nuclear magnetons)

  Atom         1           2           3           4           5           6           7           8           9          10
 IAtWgt=          48          16          48          16          48          16          16          35          35          16
 AtmWgt=  47.9479467  15.9949146  47.9479467  15.9949146  47.9479467  15.9949146  15.9949146  34.9688527  34.9688527  15.9949146
 NucSpn=           0           0           0           0           0           0           0           3           3           0
 AtZEff=   0.0000000   0.0000000   0.0000000   0.0000000   0.0000000   0.0000000   0.0000000   0.0000000   0.0000000   0.0000000
 NQMom=    0.0000000   0.0000000   0.0000000   0.0000000   0.0000000   0.0000000   0.0000000  -8.1650000  -8.1650000   0.0000000
 NMagM=    0.0000000   0.0000000   0.0000000   0.0000000   0.0000000   0.0000000   0.0000000   0.8218740   0.8218740   0.0000000
 AtZNuc=  22.0000000   8.0000000  22.0000000   8.0000000  22.0000000   8.0000000   8.0000000  17.0000000  17.0000000   8.0000000
 Leave Link  101 at Mon Mar 28 22:49:48 2016, MaxMem=   524288000 cpu:         1.4
 (Enter /opt/g09/l103.exe)

 GradGradGradGradGradGradGradGradGradGradGradGradGradGradGradGradGradGrad
 Berny optimization.
 Initialization pass.
                           ----------------------------
                           !    Initial Parameters    !
                           ! (Angstroms and Degrees)  !
 --------------------------                            --------------------------
 ! Name  Definition              Value          Derivative Info.                !
 --------------------------------------------------------------------------------
 ! R1    R(1,2)                  1.8027         calculate D2E/DX2 analytically  !
 ! R2    R(1,6)                  2.0518         calculate D2E/DX2 analytically  !
 ! R3    R(1,7)                  2.1546         calculate D2E/DX2 analytically  !
 ! R4    R(1,8)                  2.2534         calculate D2E/DX2 analytically  !
 ! R5    R(2,3)                  1.8665         calculate D2E/DX2 analytically  !
 ! R6    R(3,4)                  2.0403         calculate D2E/DX2 analytically  !
 ! R7    R(3,10)                 1.8769         calculate D2E/DX2 analytically  !
 ! R8    R(4,5)                  1.719          calculate D2E/DX2 analytically  !
 ! R9    R(5,6)                  1.8183         calculate D2E/DX2 analytically  !
 ! R10   R(5,7)                  1.9415         calculate D2E/DX2 analytically  !
 ! R11   R(5,9)                  2.2357         calculate D2E/DX2 analytically  !
 ! A1    A(2,1,6)               85.4226         calculate D2E/DX2 analytically  !
 ! A2    A(2,1,7)              101.7342         calculate D2E/DX2 analytically  !
 ! A3    A(2,1,8)              131.4849         calculate D2E/DX2 analytically  !
 ! A4    A(6,1,7)               77.6581         calculate D2E/DX2 analytically  !
 ! A5    A(6,1,8)              126.2991         calculate D2E/DX2 analytically  !
 ! A6    A(7,1,8)              118.8994         calculate D2E/DX2 analytically  !
 ! A7    A(1,2,3)              103.5461         calculate D2E/DX2 analytically  !
 ! A8    A(2,3,4)              106.5532         calculate D2E/DX2 analytically  !
 ! A9    A(2,3,10)             129.1562         calculate D2E/DX2 analytically  !
 ! A10   A(4,3,10)             119.7737         calculate D2E/DX2 analytically  !
 ! A11   A(3,4,5)               96.778          calculate D2E/DX2 analytically  !
 ! A12   A(4,5,6)               93.6854         calculate D2E/DX2 analytically  !
 ! A13   A(4,5,7)              101.5592         calculate D2E/DX2 analytically  !
 ! A14   A(4,5,9)              120.8844         calculate D2E/DX2 analytically  !
 ! A15   A(6,5,7)               89.0801         calculate D2E/DX2 analytically  !
 ! A16   A(6,5,9)              121.5285         calculate D2E/DX2 analytically  !
 ! A17   A(7,5,9)              122.5817         calculate D2E/DX2 analytically  !
 ! A18   A(1,6,5)               99.8137         calculate D2E/DX2 analytically  !
 ! A19   A(1,7,5)               92.5752         calculate D2E/DX2 analytically  !
 ! D1    D(6,1,2,3)              5.1982         calculate D2E/DX2 analytically  !
 ! D2    D(7,1,2,3)            -71.1727         calculate D2E/DX2 analytically  !
 ! D3    D(8,1,2,3)            141.4168         calculate D2E/DX2 analytically  !
 ! D4    D(2,1,6,5)            -96.0338         calculate D2E/DX2 analytically  !
 ! D5    D(7,1,6,5)              7.0494         calculate D2E/DX2 analytically  !
 ! D6    D(8,1,6,5)            123.9925         calculate D2E/DX2 analytically  !
 ! D7    D(2,1,7,5)             76.0854         calculate D2E/DX2 analytically  !
 ! D8    D(6,1,7,5)             -6.5094         calculate D2E/DX2 analytically  !
 ! D9    D(8,1,7,5)           -131.3591         calculate D2E/DX2 analytically  !
 ! D10   D(1,2,3,4)             69.1278         calculate D2E/DX2 analytically  !
 ! D11   D(1,2,3,10)          -135.3518         calculate D2E/DX2 analytically  !
 ! D12   D(2,3,4,5)            -73.0558         calculate D2E/DX2 analytically  !
 ! D13   D(10,3,4,5)           128.6708         calculate D2E/DX2 analytically  !
 ! D14   D(3,4,5,6)             -5.7393         calculate D2E/DX2 analytically  !
 ! D15   D(3,4,5,7)             84.0747         calculate D2E/DX2 analytically  !
 ! D16   D(3,4,5,9)           -136.2138         calculate D2E/DX2 analytically  !
 ! D17   D(4,5,6,1)             93.8779         calculate D2E/DX2 analytically  !
 ! D18   D(7,5,6,1)             -7.6466         calculate D2E/DX2 analytically  !
 ! D19   D(9,5,6,1)           -136.1085         calculate D2E/DX2 analytically  !
 ! D20   D(4,5,7,1)            -86.3939         calculate D2E/DX2 analytically  !
 ! D21   D(6,5,7,1)              7.1799         calculate D2E/DX2 analytically  !
 ! D22   D(9,5,7,1)            134.7988         calculate D2E/DX2 analytically  !
 --------------------------------------------------------------------------------
 Trust Radius=2.56D+00 FncErr=1.00D-07 GrdErr=1.00D-06
 Number of steps in this run=    100 maximum allowed number of steps=    100.
 GradGradGradGradGradGradGradGradGradGradGradGradGradGradGradGradGradGrad

 Leave Link  103 at Mon Mar 28 22:49:48 2016, MaxMem=   524288000 cpu:         0.1
 (Enter /opt/g09/l202.exe)
                          Input orientation:                          
 ---------------------------------------------------------------------
 Center     Atomic      Atomic             Coordinates (Angstroms)
 Number     Number       Type             X           Y           Z
 ---------------------------------------------------------------------
      1         22           0       -0.323330    2.380540   -1.204750
      2          8           0       -0.416630    0.611550   -0.870610
      3         22           0       -1.264210    0.524420    0.790030
      4          8           0       -3.192170    1.121120    0.490650
      5         22           0       -2.856340    2.793600    0.278810
      6          8           0       -1.093050    2.610880    0.683190
      7          8           0       -2.385570    2.860500   -1.603590
      8         17           0        1.289930    3.637980   -2.150200
      9         17           0       -4.125130    4.352000    1.258650
     10          8           0       -0.834800   -0.524290    2.286210
 ---------------------------------------------------------------------
                    Distance matrix (angstroms):
                    1          2          3          4          5
     1  Ti   0.000000
     2  O    1.802687   0.000000
     3  Ti   2.882635   1.866470   0.000000
     4  O    3.562410   3.133100   2.040272   0.000000
     5  Ti   2.964407   3.469106   2.818759   1.718967   0.000000
     6  O    2.051790   2.620908   2.096193   2.581233   1.818269
     7  O    2.154592   3.077623   3.527625   2.839346   1.941528
     8  Cl   2.253362   3.702563   4.986265   5.779091   4.878998
     9  Cl   4.940514   5.681345   4.801545   3.449467   2.235738
    10  O    4.570169   3.380904   1.876896   3.389484   4.373177
                    6          7          8          9         10
     6  O    0.000000
     7  O    2.638613   0.000000
     8  Cl   3.842086   3.796387   0.000000
     9  Cl   3.543468   3.666478   6.438397   0.000000
    10  O    3.530674   5.384444   6.443656   5.971629   0.000000
 Symmetry turned off by external request.
 Stoichiometry    Cl2O5Ti3(5)
 Framework group  C1[X(Cl2O5Ti3)]
 Deg. of freedom    24
 Full point group                 C1      NOp   1
 Rotational constants (GHZ):      0.6482951      0.4518256      0.2975706
 Leave Link  202 at Mon Mar 28 22:49:48 2016, MaxMem=   524288000 cpu:         0.0
 (Enter /opt/g09/l301.exe)
 Standard basis: 6-311+G(d,p) (5D, 7F)
 Ernie: Thresh=  0.10000D-02 Tol=  0.10000D-05 Strict=F.
 AO basis set in the form of general basis input (Overlap normalization):
      1 0
 S   6 1.00       0.000000000000
      0.2060820000D+06  0.5673151380D-03
      0.3122680000D+05  0.4379672866D-02
      0.7199320000D+04  0.2242029425D-01
      0.2048750000D+04  0.9063426645D-01
      0.6707900000D+03  0.2890357165D+00
      0.2436500000D+03  0.6803470061D+00
 S   1 1.00       0.000000000000
      0.9592500000D+02  0.1000000000D+01
 S   1 1.00       0.000000000000
      0.3981010000D+02  0.1000000000D+01
 S   1 1.00       0.000000000000
      0.1222050000D+02  0.1000000000D+01
 S   1 1.00       0.000000000000
      0.5008820000D+01  0.1000000000D+01
 S   1 1.00       0.000000000000
      0.1285690000D+01  0.1000000000D+01
 S   1 1.00       0.000000000000
      0.5128060000D+00  0.1000000000D+01
 S   1 1.00       0.000000000000
      0.8557600000D-01  0.1000000000D+01
 S   1 1.00       0.000000000000
      0.3330200000D-01  0.1000000000D+01
 S   1 1.00       0.000000000000
      0.9991000000D-02  0.1000000000D+01
 P   5 1.00       0.000000000000
      0.1264700000D+04  0.3122017423D-02
      0.3012300000D+03  0.2516579464D-01
      0.9697770000D+02  0.1184178291D+00
      0.3637270000D+02  0.3522190030D+00
      0.1478140000D+02  0.6219379661D+00
 P   1 1.00       0.000000000000
      0.6274650000D+01  0.1000000000D+01
 P   1 1.00       0.000000000000
      0.2478780000D+01  0.1000000000D+01
 P   1 1.00       0.000000000000
      0.1016180000D+01  0.1000000000D+01
 P   1 1.00       0.000000000000
      0.3981620000D+00  0.1000000000D+01
 P   1 1.00       0.000000000000
      0.1015610000D+00  0.1000000000D+01
 P   1 1.00       0.000000000000
      0.3405400000D-01  0.1000000000D+01
 D   3 1.00       0.000000000000
      0.2599240000D+02  0.5411706153D-01
      0.7086340000D+01  0.2873032281D+00
      0.2348710000D+01  0.7854540223D+00
 D   1 1.00       0.000000000000
      0.8001980000D+00  0.1000000000D+01
 D   1 1.00       0.000000000000
      0.2620490000D+00  0.1000000000D+01
 D   1 1.00       0.000000000000
      0.7200000000D-01  0.1000000000D+01
 F   1 1.00       0.000000000000
      0.6900000000D+00  0.1000000000D+01
 ****
      2 0
 S   6 1.00       0.000000000000
      0.8588500000D+04  0.1895150083D-02
      0.1297230000D+04  0.1438590063D-01
      0.2992960000D+03  0.7073200310D-01
      0.8737710000D+02  0.2400010105D+00
      0.2567890000D+02  0.5947970261D+00
      0.3740040000D+01  0.2808020123D+00
 SP   3 1.00       0.000000000000
      0.4211750000D+02  0.1138890124D+00  0.3651139738D-01
      0.9628370000D+01  0.9208111006D+00  0.2371529830D+00
      0.2853320000D+01 -0.3274470358D-02  0.8197019412D+00
 SP   1 1.00       0.000000000000
      0.9056610000D+00  0.1000000000D+01  0.1000000000D+01
 SP   1 1.00       0.000000000000
      0.2556110000D+00  0.1000000000D+01  0.1000000000D+01
 SP   1 1.00       0.000000000000
      0.8450000000D-01  0.1000000000D+01  0.1000000000D+01
 D   1 1.00       0.000000000000
      0.1292000000D+01  0.1000000000D+01
 ****
      3 0
 S   6 1.00       0.000000000000
      0.2060820000D+06  0.5673151380D-03
      0.3122680000D+05  0.4379672866D-02
      0.7199320000D+04  0.2242029425D-01
      0.2048750000D+04  0.9063426645D-01
      0.6707900000D+03  0.2890357165D+00
      0.2436500000D+03  0.6803470061D+00
 S   1 1.00       0.000000000000
      0.9592500000D+02  0.1000000000D+01
 S   1 1.00       0.000000000000
      0.3981010000D+02  0.1000000000D+01
 S   1 1.00       0.000000000000
      0.1222050000D+02  0.1000000000D+01
 S   1 1.00       0.000000000000
      0.5008820000D+01  0.1000000000D+01
 S   1 1.00       0.000000000000
      0.1285690000D+01  0.1000000000D+01
 S   1 1.00       0.000000000000
      0.5128060000D+00  0.1000000000D+01
 S   1 1.00       0.000000000000
      0.8557600000D-01  0.1000000000D+01
 S   1 1.00       0.000000000000
      0.3330200000D-01  0.1000000000D+01
 S   1 1.00       0.000000000000
      0.9991000000D-02  0.1000000000D+01
 P   5 1.00       0.000000000000
      0.1264700000D+04  0.3122017423D-02
      0.3012300000D+03  0.2516579464D-01
      0.9697770000D+02  0.1184178291D+00
      0.3637270000D+02  0.3522190030D+00
      0.1478140000D+02  0.6219379661D+00
 P   1 1.00       0.000000000000
      0.6274650000D+01  0.1000000000D+01
 P   1 1.00       0.000000000000
      0.2478780000D+01  0.1000000000D+01
 P   1 1.00       0.000000000000
      0.1016180000D+01  0.1000000000D+01
 P   1 1.00       0.000000000000
      0.3981620000D+00  0.1000000000D+01
 P   1 1.00       0.000000000000
      0.1015610000D+00  0.1000000000D+01
 P   1 1.00       0.000000000000
      0.3405400000D-01  0.1000000000D+01
 D   3 1.00       0.000000000000
      0.2599240000D+02  0.5411706153D-01
      0.7086340000D+01  0.2873032281D+00
      0.2348710000D+01  0.7854540223D+00
 D   1 1.00       0.000000000000
      0.8001980000D+00  0.1000000000D+01
 D   1 1.00       0.000000000000
      0.2620490000D+00  0.1000000000D+01
 D   1 1.00       0.000000000000
      0.7200000000D-01  0.1000000000D+01
 F   1 1.00       0.000000000000
      0.6900000000D+00  0.1000000000D+01
 ****
      4 0
 S   6 1.00       0.000000000000
      0.8588500000D+04  0.1895150083D-02
      0.1297230000D+04  0.1438590063D-01
      0.2992960000D+03  0.7073200310D-01
      0.8737710000D+02  0.2400010105D+00
      0.2567890000D+02  0.5947970261D+00
      0.3740040000D+01  0.2808020123D+00
 SP   3 1.00       0.000000000000
      0.4211750000D+02  0.1138890124D+00  0.3651139738D-01
      0.9628370000D+01  0.9208111006D+00  0.2371529830D+00
      0.2853320000D+01 -0.3274470358D-02  0.8197019412D+00
 SP   1 1.00       0.000000000000
      0.9056610000D+00  0.1000000000D+01  0.1000000000D+01
 SP   1 1.00       0.000000000000
      0.2556110000D+00  0.1000000000D+01  0.1000000000D+01
 SP   1 1.00       0.000000000000
      0.8450000000D-01  0.1000000000D+01  0.1000000000D+01
 D   1 1.00       0.000000000000
      0.1292000000D+01  0.1000000000D+01
 ****
      5 0
 S   6 1.00       0.000000000000
      0.2060820000D+06  0.5673151380D-03
      0.3122680000D+05  0.4379672866D-02
      0.7199320000D+04  0.2242029425D-01
      0.2048750000D+04  0.9063426645D-01
      0.6707900000D+03  0.2890357165D+00
      0.2436500000D+03  0.6803470061D+00
 S   1 1.00       0.000000000000
      0.9592500000D+02  0.1000000000D+01
 S   1 1.00       0.000000000000
      0.3981010000D+02  0.1000000000D+01
 S   1 1.00       0.000000000000
      0.1222050000D+02  0.1000000000D+01
 S   1 1.00       0.000000000000
      0.5008820000D+01  0.1000000000D+01
 S   1 1.00       0.000000000000
      0.1285690000D+01  0.1000000000D+01
 S   1 1.00       0.000000000000
      0.5128060000D+00  0.1000000000D+01
 S   1 1.00       0.000000000000
      0.8557600000D-01  0.1000000000D+01
 S   1 1.00       0.000000000000
      0.3330200000D-01  0.1000000000D+01
 S   1 1.00       0.000000000000
      0.9991000000D-02  0.1000000000D+01
 P   5 1.00       0.000000000000
      0.1264700000D+04  0.3122017423D-02
      0.3012300000D+03  0.2516579464D-01
      0.9697770000D+02  0.1184178291D+00
      0.3637270000D+02  0.3522190030D+00
      0.1478140000D+02  0.6219379661D+00
 P   1 1.00       0.000000000000
      0.6274650000D+01  0.1000000000D+01
 P   1 1.00       0.000000000000
      0.2478780000D+01  0.1000000000D+01
 P   1 1.00       0.000000000000
      0.1016180000D+01  0.1000000000D+01
 P   1 1.00       0.000000000000
      0.3981620000D+00  0.1000000000D+01
 P   1 1.00       0.000000000000
      0.1015610000D+00  0.1000000000D+01
 P   1 1.00       0.000000000000
      0.3405400000D-01  0.1000000000D+01
 D   3 1.00       0.000000000000
      0.2599240000D+02  0.5411706153D-01
      0.7086340000D+01  0.2873032281D+00
      0.2348710000D+01  0.7854540223D+00
 D   1 1.00       0.000000000000
      0.8001980000D+00  0.1000000000D+01
 D   1 1.00       0.000000000000
      0.2620490000D+00  0.1000000000D+01
 D   1 1.00       0.000000000000
      0.7200000000D-01  0.1000000000D+01
 F   1 1.00       0.000000000000
      0.6900000000D+00  0.1000000000D+01
 ****
      6 0
 S   6 1.00       0.000000000000
      0.8588500000D+04  0.1895150083D-02
      0.1297230000D+04  0.1438590063D-01
      0.2992960000D+03  0.7073200310D-01
      0.8737710000D+02  0.2400010105D+00
      0.2567890000D+02  0.5947970261D+00
      0.3740040000D+01  0.2808020123D+00
 SP   3 1.00       0.000000000000
      0.4211750000D+02  0.1138890124D+00  0.3651139738D-01
      0.9628370000D+01  0.9208111006D+00  0.2371529830D+00
      0.2853320000D+01 -0.3274470358D-02  0.8197019412D+00
 SP   1 1.00       0.000000000000
      0.9056610000D+00  0.1000000000D+01  0.1000000000D+01
 SP   1 1.00       0.000000000000
      0.2556110000D+00  0.1000000000D+01  0.1000000000D+01
 SP   1 1.00       0.000000000000
      0.8450000000D-01  0.1000000000D+01  0.1000000000D+01
 D   1 1.00       0.000000000000
      0.1292000000D+01  0.1000000000D+01
 ****
      7 0
 S   6 1.00       0.000000000000
      0.8588500000D+04  0.1895150083D-02
      0.1297230000D+04  0.1438590063D-01
      0.2992960000D+03  0.7073200310D-01
      0.8737710000D+02  0.2400010105D+00
      0.2567890000D+02  0.5947970261D+00
      0.3740040000D+01  0.2808020123D+00
 SP   3 1.00       0.000000000000
      0.4211750000D+02  0.1138890124D+00  0.3651139738D-01
      0.9628370000D+01  0.9208111006D+00  0.2371529830D+00
      0.2853320000D+01 -0.3274470358D-02  0.8197019412D+00
 SP   1 1.00       0.000000000000
      0.9056610000D+00  0.1000000000D+01  0.1000000000D+01
 SP   1 1.00       0.000000000000
      0.2556110000D+00  0.1000000000D+01  0.1000000000D+01
 SP   1 1.00       0.000000000000
      0.8450000000D-01  0.1000000000D+01  0.1000000000D+01
 D   1 1.00       0.000000000000
      0.1292000000D+01  0.1000000000D+01
 ****
      8 0
 S   6 1.00       0.000000000000
      0.1058190000D+06  0.7380002465D-03
      0.1587200000D+05  0.5718001910D-02
      0.3619650000D+04  0.2949500985D-01
      0.1030800000D+04  0.1172860392D+00
      0.3399080000D+03  0.3629491212D+00
      0.1245380000D+03  0.5841491951D+00
 S   3 1.00       0.000000000000
      0.1245380000D+03  0.1341769734D+00
      0.4951350000D+02  0.6242498762D+00
      0.2080560000D+02  0.2917559421D+00
 S   1 1.00       0.000000000000
      0.6583460000D+01  0.1000000000D+01
 S   1 1.00       0.000000000000
      0.2564680000D+01  0.1000000000D+01
 S   1 1.00       0.000000000000
      0.5597630000D+00  0.1000000000D+01
 S   1 1.00       0.000000000000
      0.1832730000D+00  0.1000000000D+01
 SP   1 1.00       0.000000000000
      0.4830000000D-01  0.1000000000D+01  0.1000000000D+01
 P   5 1.00       0.000000000000
      0.5897760000D+03  0.3665569355D-02
      0.1398490000D+03  0.2836791942D-01
      0.4514130000D+02  0.1247566028D+00
      0.1687330000D+02  0.3396546305D+00
      0.2771520000D+01  0.7475859630D+00
 P   2 1.00       0.000000000000
      0.6741100000D+01 -0.1572243813D+01
      0.2771520000D+01  0.9923888817D+00
 P   1 1.00       0.000000000000
      0.1023870000D+01  0.1000000000D+01
 P   1 1.00       0.000000000000
      0.3813680000D+00  0.1000000000D+01
 P   1 1.00       0.000000000000
      0.1094370000D+00  0.1000000000D+01
 D   1 1.00       0.000000000000
      0.7500000000D+00  0.1000000000D+01
 ****
      9 0
 S   6 1.00       0.000000000000
      0.1058190000D+06  0.7380002465D-03
      0.1587200000D+05  0.5718001910D-02
      0.3619650000D+04  0.2949500985D-01
      0.1030800000D+04  0.1172860392D+00
      0.3399080000D+03  0.3629491212D+00
      0.1245380000D+03  0.5841491951D+00
 S   3 1.00       0.000000000000
      0.1245380000D+03  0.1341769734D+00
      0.4951350000D+02  0.6242498762D+00
      0.2080560000D+02  0.2917559421D+00
 S   1 1.00       0.000000000000
      0.6583460000D+01  0.1000000000D+01
 S   1 1.00       0.000000000000
      0.2564680000D+01  0.1000000000D+01
 S   1 1.00       0.000000000000
      0.5597630000D+00  0.1000000000D+01
 S   1 1.00       0.000000000000
      0.1832730000D+00  0.1000000000D+01
 SP   1 1.00       0.000000000000
      0.4830000000D-01  0.1000000000D+01  0.1000000000D+01
 P   5 1.00       0.000000000000
      0.5897760000D+03  0.3665569355D-02
      0.1398490000D+03  0.2836791942D-01
      0.4514130000D+02  0.1247566028D+00
      0.1687330000D+02  0.3396546305D+00
      0.2771520000D+01  0.7475859630D+00
 P   2 1.00       0.000000000000
      0.6741100000D+01 -0.1572243813D+01
      0.2771520000D+01  0.9923888817D+00
 P   1 1.00       0.000000000000
      0.1023870000D+01  0.1000000000D+01
 P   1 1.00       0.000000000000
      0.3813680000D+00  0.1000000000D+01
 P   1 1.00       0.000000000000
      0.1094370000D+00  0.1000000000D+01
 D   1 1.00       0.000000000000
      0.7500000000D+00  0.1000000000D+01
 ****
     10 0
 S   6 1.00       0.000000000000
      0.8588500000D+04  0.1895150083D-02
      0.1297230000D+04  0.1438590063D-01
      0.2992960000D+03  0.7073200310D-01
      0.8737710000D+02  0.2400010105D+00
      0.2567890000D+02  0.5947970261D+00
      0.3740040000D+01  0.2808020123D+00
 SP   3 1.00       0.000000000000
      0.4211750000D+02  0.1138890124D+00  0.3651139738D-01
      0.9628370000D+01  0.9208111006D+00  0.2371529830D+00
      0.2853320000D+01 -0.3274470358D-02  0.8197019412D+00
 SP   1 1.00       0.000000000000
      0.9056610000D+00  0.1000000000D+01  0.1000000000D+01
 SP   1 1.00       0.000000000000
      0.2556110000D+00  0.1000000000D+01  0.1000000000D+01
 SP   1 1.00       0.000000000000
      0.8450000000D-01  0.1000000000D+01  0.1000000000D+01
 D   1 1.00       0.000000000000
      0.1292000000D+01  0.1000000000D+01
 ****

   344 basis functions,   568 primitive gaussians,   372 cartesian basis functions
    72 alpha electrons       68 beta electrons
       nuclear repulsion energy      1506.8551692506 Hartrees.
 IExCor= 1614 DFT=T Ex+Corr=B971 ExCW=0 ScaHFX=  0.210000
 ScaDFX=  1.000000  1.000000  1.000000  1.000000 ScalE2=  1.000000  1.000000
 IRadAn=      5 IRanWt=     -1 IRanGd=            0 ICorTp=0 IEmpDi=  4
 NAtoms=   10 NActive=   10 NUniq=   10 SFac= 1.00D+00 NAtFMM=   60 NAOKFM=F Big=F
 Integral buffers will be    131072 words long.
 Raffenetti 2 integral format.
 Two-electron integral symmetry is turned off.
 Leave Link  301 at Mon Mar 28 22:49:48 2016, MaxMem=   524288000 cpu:         0.4
 (Enter /opt/g09/l302.exe)
 NPDir=0 NMtPBC=     1 NCelOv=     1 NCel=       1 NClECP=     1 NCelD=      1
         NCelK=      1 NCelE2=     1 NClLst=     1 CellRange=     0.0.
 One-electron integrals computed using PRISM.
 NBasis=   344 RedAO= T EigKep=  2.03D-04  NBF=   344
 NBsUse=   344 1.00D-06 EigRej= -1.00D+00 NBFU=   344
 Precomputing XC quadrature grid using
 IXCGrd= 4 IRadAn=           5 IRanWt=          -1 IRanGd=           0 AccXCQ= 0.00D+00.
 Generated NRdTot=       0 NPtTot=           0 NUsed=           0 NTot=          32
 NSgBfM=   360   360   360   360   360 MxSgAt=    10 MxSgA2=    10.
 Leave Link  302 at Mon Mar 28 22:49:48 2016, MaxMem=   524288000 cpu:         3.2
 (Enter /opt/g09/l303.exe)
 DipDrv:  MaxL=1.
 Leave Link  303 at Mon Mar 28 22:49:49 2016, MaxMem=   524288000 cpu:         0.4
 (Enter /opt/g09/l401.exe)
 ExpMin= 9.99D-03 ExpMax= 2.06D+05 ExpMxC= 7.20D+03 IAcc=3 IRadAn=         5 AccDes= 0.00D+00
 Harris functional with IExCor= 1614 and IRadAn=       5 diagonalized for initial guess.
 HarFok:  IExCor= 1614 AccDes= 0.00D+00 IRadAn=         5 IDoV= 1 UseB2=F ITyADJ=14
 ICtDFT=  3500011 ScaDFX=  1.000000  1.000000  1.000000  1.000000
 FoFCou: FMM=F IPFlag=           0 FMFlag=      100000 FMFlg1=           0
         NFxFlg=           0 DoJE=T BraDBF=F KetDBF=T FulRan=T
         wScrn=  0.000000 ICntrl=     500 IOpCl=  0 I1Cent=   200000004 NGrid=           0
         NMat0=    1 NMatS0=      1 NMatT0=    0 NMatD0=    1 NMtDS0=    0 NMtDT0=    0
 Symmetry not used in FoFCou.
 Harris En= -3799.44341697929    
 JPrj=0 DoOrth=F DoCkMO=T.
 Mixing orbitals, IMix= 1 IMixAn=  0 NRI=1 NE=   72 Coef=  7.07106781D-01  7.07106781D-01
 Mixing orbitals, IMix= 1 IMixAn=  0 NRI=1 NE=   68 Coef= -7.07106781D-01  7.07106781D-01
 Initial guess <Sx>= 0.0000 <Sy>= 0.0000 <Sz>= 2.0000 <S**2>= 6.0000 S= 2.0000
 Leave Link  401 at Mon Mar 28 22:49:51 2016, MaxMem=   524288000 cpu:        16.4
 (Enter /opt/g09/l502.exe)
 UHF open shell SCF:
 Using DIIS extrapolation, IDIIS=  1040.
 Two-electron integral symmetry not used.
 IVT=      426322 IEndB=      426322 NGot=   524288000 MDV=   524004659
 LenX=   524004659 LenY=   523865834
 Requested convergence on RMS density matrix=1.00D-08 within  64 cycles.
 Requested convergence on MAX density matrix=1.00D-06.
 Requested convergence on             energy=1.00D-06.
 No special actions if energy rises.
 Fock matrices will be formed incrementally for  20 cycles.

 Cycle   1  Pass 1  IDiag  1:
 FoFJK:  IHMeth= 1 ICntrl=       0 DoSepK=F KAlg= 0 I1Cent=   0 FoldK=F
 IRaf= 810000000 NMat=   1 IRICut=       1 DoRegI=T DoRafI=F ISym2E= 0.
 FoFCou: FMM=F IPFlag=           0 FMFlag=      100000 FMFlg1=           0
         NFxFlg=           0 DoJE=F BraDBF=F KetDBF=F FulRan=T
         wScrn=  0.000000 ICntrl=       0 IOpCl=  1 I1Cent=           0 NGrid=           0
         NMat0=    1 NMatS0=      1 NMatT0=    0 NMatD0=    1 NMtDS0=    0 NMtDT0=    0
 Symmetry not used in FoFCou.
 E= -3842.48000646248    
 DIIS: error= 1.60D-01 at cycle   1 NSaved=   1.
 NSaved= 1 IEnMin= 1 EnMin= -3842.48000646248     IErMin= 1 ErrMin= 1.60D-01
 ErrMax= 1.60D-01  0.00D+00 EMaxC= 1.00D-01 BMatC= 4.23D+01 BMatP= 4.23D+01
 IDIUse=3 WtCom= 0.00D+00 WtEn= 1.00D+00
 Coeff-Com:  0.100D+01
 Coeff-En:   0.100D+01
 Coeff:      0.100D+01
 Gap=     0.017 Goal=   None    Shift=    0.000
 Gap=    -0.081 Goal=   None    Shift=    0.000
 GapD=   -0.081 DampG=0.250 DampE=0.125 DampFc=0.1250 IDamp=-1.
 Damping current iteration by 1.25D-01
 RMSDP=1.88D-02 MaxDP=2.35D+00              OVMax= 9.46D-01

 Cycle   2  Pass 1  IDiag  1:
 RMSU=  2.34D-03    CP:  9.90D-01
 E= -3843.00763243182     Delta-E=       -0.527625969340 Rises=F Damp=T
 DIIS: error= 1.27D-01 at cycle   2 NSaved=   2.
 NSaved= 2 IEnMin= 2 EnMin= -3843.00763243182     IErMin= 2 ErrMin= 1.27D-01
 ErrMax= 1.27D-01  0.00D+00 EMaxC= 1.00D-01 BMatC= 2.50D+01 BMatP= 4.23D+01
 IDIUse=3 WtCom= 0.00D+00 WtEn= 1.00D+00
 Coeff-Com: -0.109D+01 0.209D+01
 Coeff-En:   0.249D+00 0.751D+00
 Coeff:      0.249D+00 0.751D+00
 Gap=     0.136 Goal=   None    Shift=    0.000
 Gap=    -0.014 Goal=   None    Shift=    0.000
 RMSDP=7.17D-03 MaxDP=2.82D-01 DE=-5.28D-01 OVMax= 9.37D-01

 Cycle   3  Pass 1  IDiag  1:
 RMSU=  6.91D-03    CP:  9.16D-01  1.60D+00
 E= -3838.63437106828     Delta-E=        4.373261363542 Rises=F Damp=F
 DIIS: error= 1.73D-01 at cycle   3 NSaved=   3.
 NSaved= 3 IEnMin= 2 EnMin= -3843.00763243182     IErMin= 2 ErrMin= 1.27D-01
 ErrMax= 1.73D-01  0.00D+00 EMaxC= 1.00D-01 BMatC= 4.26D+01 BMatP= 2.50D+01
 IDIUse=2 WtCom= 0.00D+00 WtEn= 1.00D+00
 EnCoef did   100 forward-backward iterations
 Coeff-En:   0.653D+00 0.256D-01 0.322D+00
 Coeff:      0.653D+00 0.256D-01 0.322D+00
 Gap=     0.051 Goal=   None    Shift=    0.000
 Gap=    -0.037 Goal=   None    Shift=    0.000
 RMSDP=6.06D-03 MaxDP=4.24D-01 DE= 4.37D+00 OVMax= 9.43D-01

 Cycle   4  Pass 1  IDiag  1:
 RMSU=  5.23D-03    CP:  9.13D-01  1.15D+00  5.85D-01
 E= -3838.82510025339     Delta-E=       -0.190729185106 Rises=F Damp=F
 DIIS: error= 1.61D-01 at cycle   4 NSaved=   4.
 NSaved= 4 IEnMin= 2 EnMin= -3843.00763243182     IErMin= 2 ErrMin= 1.27D-01
 ErrMax= 1.61D-01  0.00D+00 EMaxC= 1.00D-01 BMatC= 3.88D+01 BMatP= 2.50D+01
 IDIUse=2 WtCom= 0.00D+00 WtEn= 1.00D+00
 EnCoef did   100 forward-backward iterations
 Coeff-En:   0.575D+00 0.819D-02 0.250D+00 0.167D+00
 Coeff:      0.575D+00 0.819D-02 0.250D+00 0.167D+00
 Gap=    -0.017 Goal=   None    Shift=    0.000
 Gap=    -0.041 Goal=   None    Shift=    0.000
 RMSDP=5.00D-03 MaxDP=3.56D-01 DE=-1.91D-01 OVMax= 9.47D-01

 Cycle   5  Pass 1  IDiag  1:
 RMSU=  3.09D-03    CP:  9.30D-01  7.09D-01  5.76D-01  2.77D-01
 E= -3843.72062510070     Delta-E=       -4.895524847316 Rises=F Damp=F
 DIIS: error= 4.37D-02 at cycle   5 NSaved=   5.
 NSaved= 5 IEnMin= 5 EnMin= -3843.72062510070     IErMin= 5 ErrMin= 4.37D-02
 ErrMax= 4.37D-02  0.00D+00 EMaxC= 1.00D-01 BMatC= 4.07D+00 BMatP= 2.50D+01
 IDIUse=3 WtCom= 5.63D-01 WtEn= 4.37D-01
 EnCoef did   100 forward-backward iterations
 Coeff-Com:  0.347D+00-0.238D+00 0.119D+00 0.142D+00 0.629D+00
 Coeff-En:   0.337D+00 0.440D-02 0.954D-01 0.106D+00 0.456D+00
 Coeff:      0.343D+00-0.132D+00 0.109D+00 0.127D+00 0.554D+00
 Gap=     0.138 Goal=   None    Shift=    0.000
 Gap=     0.069 Goal=   None    Shift=    0.000
 RMSDP=7.79D-03 MaxDP=6.33D-01 DE=-4.90D+00 OVMax= 9.75D-01

 Cycle   6  Pass 1  IDiag  1:
 RMSU=  6.98D-03    CP:  9.34D-01  4.95D-01  4.85D-01  3.64D-02 -8.75D-03
 E= -3816.64681107437     Delta-E=       27.073814026330 Rises=F Damp=F
 DIIS: error= 1.91D-01 at cycle   6 NSaved=   6.
 NSaved= 6 IEnMin= 5 EnMin= -3843.72062510070     IErMin= 5 ErrMin= 4.37D-02
 ErrMax= 1.91D-01  0.00D+00 EMaxC= 1.00D-01 BMatC= 1.17D+02 BMatP= 4.07D+00
 IDIUse=2 WtCom= 0.00D+00 WtEn= 1.00D+00
 EnCoef did     6 forward-backward iterations
 Coeff-En:   0.151D+00 0.000D+00 0.000D+00 0.110D+00 0.657D+00 0.814D-01
 Coeff:      0.151D+00 0.000D+00 0.000D+00 0.110D+00 0.657D+00 0.814D-01
 Gap=     0.039 Goal=   None    Shift=    0.000
 Gap=    -0.102 Goal=   None    Shift=    0.000
 RMSDP=5.74D-03 MaxDP=3.88D-01 DE= 2.71D+01 OVMax= 9.02D-01

 Cycle   7  Pass 1  IDiag  1:
 RMSU=  3.48D-03    CP:  9.38D-01  5.47D-01  4.96D-01  2.74D-01  1.60D-01
                    CP:  3.75D-01
 E= -3841.50075389770     Delta-E=      -24.853942823325 Rises=F Damp=F
 DIIS: error= 1.17D-01 at cycle   7 NSaved=   7.
 NSaved= 7 IEnMin= 5 EnMin= -3843.72062510070     IErMin= 5 ErrMin= 4.37D-02
 ErrMax= 1.17D-01  0.00D+00 EMaxC= 1.00D-01 BMatC= 1.63D+01 BMatP= 4.07D+00
 IDIUse=2 WtCom= 0.00D+00 WtEn= 1.00D+00
 Coeff-En:   0.000D+00 0.000D+00 0.000D+00 0.000D+00 0.657D+00 0.000D+00
 Coeff-En:   0.343D+00
 Coeff:      0.000D+00 0.000D+00 0.000D+00 0.000D+00 0.657D+00 0.000D+00
 Coeff:      0.343D+00
 Gap=     0.078 Goal=   None    Shift=    0.000
 Gap=    -0.061 Goal=   None    Shift=    0.000
 RMSDP=4.84D-03 MaxDP=2.46D-01 DE=-2.49D+01 OVMax= 9.35D-01

 Cycle   8  Pass 1  IDiag  1:
 RMSU=  3.56D-03    CP:  9.55D-01  6.45D-01  3.12D-01  3.93D-01  2.75D-01
                    CP:  2.56D-01  2.02D-01
 E= -3841.81000047946     Delta-E=       -0.309246581759 Rises=F Damp=F
 DIIS: error= 9.52D-02 at cycle   8 NSaved=   8.
 NSaved= 8 IEnMin= 5 EnMin= -3843.72062510070     IErMin= 5 ErrMin= 4.37D-02
 ErrMax= 9.52D-02  0.00D+00 EMaxC= 1.00D-01 BMatC= 1.41D+01 BMatP= 4.07D+00
 IDIUse=2 WtCom= 0.00D+00 WtEn= 1.00D+00
 EnCoef did     3 forward-backward iterations
 Coeff-En:   0.000D+00 0.000D+00 0.000D+00 0.000D+00 0.598D+00 0.000D+00
 Coeff-En:   0.272D+00 0.130D+00
 Coeff:      0.000D+00 0.000D+00 0.000D+00 0.000D+00 0.598D+00 0.000D+00
 Coeff:      0.272D+00 0.130D+00
 Gap=     0.047 Goal=   None    Shift=    0.000
 Gap=    -0.041 Goal=   None    Shift=    0.000
 RMSDP=3.72D-03 MaxDP=2.58D-01 DE=-3.09D-01 OVMax= 9.11D-01

 Cycle   9  Pass 1  IDiag  1:
 RMSU=  2.25D-03    CP:  9.44D-01  6.23D-01  4.55D-01  2.87D-01  4.58D-01
                    CP:  2.08D-01  3.42D-01  2.69D-01
 E= -3844.21041750480     Delta-E=       -2.400417025340 Rises=F Damp=F
 DIIS: error= 3.53D-02 at cycle   9 NSaved=   9.
 NSaved= 9 IEnMin= 9 EnMin= -3844.21041750480     IErMin= 9 ErrMin= 3.53D-02
 ErrMax= 3.53D-02  0.00D+00 EMaxC= 1.00D-01 BMatC= 2.15D+00 BMatP= 4.07D+00
 IDIUse=3 WtCom= 6.47D-01 WtEn= 3.53D-01
 EnCoef did     7 forward-backward iterations
 Coeff-Com: -0.641D-01 0.124D+00-0.163D-01 0.352D-02 0.458D+00-0.839D-03
 Coeff-Com:  0.158D+00 0.545D-01 0.283D+00
 Coeff-En:   0.000D+00 0.000D+00 0.000D+00 0.000D+00 0.461D+00 0.000D+00
 Coeff-En:   0.128D+00 0.231D-01 0.388D+00
 Coeff:     -0.415D-01 0.804D-01-0.106D-01 0.228D-02 0.459D+00-0.543D-03
 Coeff:      0.148D+00 0.434D-01 0.320D+00
 Gap=     0.009 Goal=   None    Shift=    0.000
 Gap=     0.002 Goal=   None    Shift=    0.000
 RMSDP=3.41D-03 MaxDP=1.60D-01 DE=-2.40D+00 OVMax= 8.22D-01

 Cycle  10  Pass 1  IDiag  1:
 RMSU=  2.55D-03    CP:  9.49D-01  6.24D-01  4.54D-01  3.31D-01  4.37D-01
                    CP:  2.12D-01  4.31D-01  2.30D-01  1.16D-02
 E= -3843.92909254714     Delta-E=        0.281324957657 Rises=F Damp=F
 DIIS: error= 3.95D-02 at cycle  10 NSaved=  10.
 NSaved=10 IEnMin= 9 EnMin= -3844.21041750480     IErMin= 9 ErrMin= 3.53D-02
 ErrMax= 3.95D-02  0.00D+00 EMaxC= 1.00D-01 BMatC= 3.92D+00 BMatP= 2.15D+00
 IDIUse=2 WtCom= 0.00D+00 WtEn= 1.00D+00
 EnCoef did     6 forward-backward iterations
 Coeff-En:   0.000D+00 0.000D+00 0.000D+00 0.000D+00 0.220D+00 0.000D+00
 Coeff-En:   0.000D+00 0.000D+00 0.481D+00 0.299D+00
 Coeff:      0.000D+00 0.000D+00 0.000D+00 0.000D+00 0.220D+00 0.000D+00
 Coeff:      0.000D+00 0.000D+00 0.481D+00 0.299D+00
 Gap=     0.063 Goal=   None    Shift=    0.000
 Gap=     0.030 Goal=   None    Shift=    0.000
 RMSDP=2.69D-03 MaxDP=1.93D-01 DE= 2.81D-01 OVMax= 8.23D-01

 Cycle  11  Pass 1  IDiag  1:
 RMSU=  1.65D-03    CP:  9.42D-01  7.79D-01  4.87D-01  2.83D-01  6.89D-01
                    CP:  1.01D-01  2.55D-01  1.37D-01  3.36D-01  4.41D-01
 E= -3844.40297181143     Delta-E=       -0.473879264291 Rises=F Damp=F
 DIIS: error= 3.36D-02 at cycle  11 NSaved=  11.
 NSaved=11 IEnMin=11 EnMin= -3844.40297181143     IErMin=11 ErrMin= 3.36D-02
 ErrMax= 3.36D-02  0.00D+00 EMaxC= 1.00D-01 BMatC= 2.15D+00 BMatP= 2.15D+00
 IDIUse=3 WtCom= 6.64D-01 WtEn= 3.36D-01
 EnCoef did     2 forward-backward iterations
 Coeff-Com: -0.255D-01 0.366D-01-0.964D-02-0.767D-02 0.165D+00-0.259D-03
 Coeff-Com:  0.158D-01 0.149D-01 0.402D+00 0.205D+00 0.204D+00
 Coeff-En:   0.000D+00 0.000D+00 0.000D+00 0.000D+00 0.000D+00 0.000D+00
 Coeff-En:   0.000D+00 0.000D+00 0.429D+00 0.181D+00 0.390D+00
 Coeff:     -0.169D-01 0.243D-01-0.640D-02-0.509D-02 0.110D+00-0.172D-03
 Coeff:      0.105D-01 0.989D-02 0.411D+00 0.197D+00 0.266D+00
 Gap=     0.086 Goal=   None    Shift=    0.000
 Gap=     0.031 Goal=   None    Shift=    0.000
 RMSDP=2.01D-03 MaxDP=1.23D-01 DE=-4.74D-01 OVMax= 8.62D-01

 Cycle  12  Pass 1  IDiag  1:
 RMSU=  1.28D-03    CP:  9.40D-01  6.28D-01  5.09D-01  3.22D-01  5.47D-01
                    CP:  1.63D-01  3.27D-01  2.13D-01  4.78D-01  3.00D-01
                    CP:  2.70D-01
 E= -3844.91460967718     Delta-E=       -0.511637865752 Rises=F Damp=F
 DIIS: error= 7.15D-03 at cycle  12 NSaved=  12.
 NSaved=12 IEnMin=12 EnMin= -3844.91460967718     IErMin=12 ErrMin= 7.15D-03
 ErrMax= 7.15D-03  0.00D+00 EMaxC= 1.00D-01 BMatC= 1.74D-01 BMatP= 2.15D+00
 IDIUse=3 WtCom= 9.29D-01 WtEn= 7.15D-02
 Coeff-Com: -0.306D-01 0.357D-01-0.141D-01 0.346D-02-0.128D-01 0.165D-03
 Coeff-Com:  0.966D-02 0.884D-02 0.914D-01 0.470D-01 0.214D+00 0.648D+00
 Coeff-En:   0.000D+00 0.000D+00 0.000D+00 0.000D+00 0.000D+00 0.000D+00
 Coeff-En:   0.000D+00 0.000D+00 0.000D+00 0.000D+00 0.749D-01 0.925D+00
 Coeff:     -0.284D-01 0.331D-01-0.131D-01 0.321D-02-0.119D-01 0.153D-03
 Coeff:      0.897D-02 0.821D-02 0.849D-01 0.437D-01 0.204D+00 0.667D+00
 Gap=     0.105 Goal=   None    Shift=    0.000
 Gap=     0.065 Goal=   None    Shift=    0.000
 RMSDP=1.04D-03 MaxDP=6.97D-02 DE=-5.12D-01 OVMax= 2.17D-01

 Cycle  13  Pass 1  IDiag  1:
 RMSU=  8.57D-04    CP:  9.47D-01  6.85D-01  4.64D-01  3.31D-01  4.88D-01
                    CP:  1.68D-01  3.52D-01  2.27D-01  5.78D-01  2.98D-01
                    CP:  4.34D-01  8.36D-01
 E= -3844.94422090492     Delta-E=       -0.029611227740 Rises=F Damp=F
 DIIS: error= 5.74D-03 at cycle  13 NSaved=  13.
 NSaved=13 IEnMin=13 EnMin= -3844.94422090492     IErMin=13 ErrMin= 5.74D-03
 ErrMax= 5.74D-03  0.00D+00 EMaxC= 1.00D-01 BMatC= 6.36D-02 BMatP= 1.74D-01
 IDIUse=3 WtCom= 9.43D-01 WtEn= 5.74D-02
 Coeff-Com: -0.157D-01 0.186D-01-0.535D-02 0.357D-02-0.179D-01-0.287D-03
 Coeff-Com:  0.286D-02 0.155D-02-0.131D-01 0.241D-01 0.947D-01 0.432D+00
 Coeff-Com:  0.475D+00
 Coeff-En:   0.000D+00 0.000D+00 0.000D+00 0.000D+00 0.000D+00 0.000D+00
 Coeff-En:   0.000D+00 0.000D+00 0.000D+00 0.000D+00 0.000D+00 0.217D+00
 Coeff-En:   0.783D+00
 Coeff:     -0.148D-01 0.175D-01-0.504D-02 0.336D-02-0.168D-01-0.271D-03
 Coeff:      0.270D-02 0.146D-02-0.124D-01 0.227D-01 0.892D-01 0.420D+00
 Coeff:      0.492D+00
 Gap=     0.110 Goal=   None    Shift=    0.000
 Gap=     0.078 Goal=   None    Shift=    0.000
 RMSDP=5.42D-04 MaxDP=2.67D-02 DE=-2.96D-02 OVMax= 1.63D-01

 Cycle  14  Pass 1  IDiag  1:
 RMSU=  3.97D-04    CP:  9.43D-01  6.80D-01  4.82D-01  3.42D-01  4.97D-01
                    CP:  1.65D-01  3.31D-01  2.10D-01  5.40D-01  3.06D-01
                    CP:  3.94D-01  9.47D-01  6.90D-01
 E= -3844.95929611065     Delta-E=       -0.015075205723 Rises=F Damp=F
 DIIS: error= 3.89D-03 at cycle  14 NSaved=  14.
 NSaved=14 IEnMin=14 EnMin= -3844.95929611065     IErMin=14 ErrMin= 3.89D-03
 ErrMax= 3.89D-03  0.00D+00 EMaxC= 1.00D-01 BMatC= 3.04D-02 BMatP= 6.36D-02
 IDIUse=3 WtCom= 9.61D-01 WtEn= 3.89D-02
 Coeff-Com: -0.473D-02 0.665D-02-0.220D-02 0.233D-02 0.254D-02-0.294D-03
 Coeff-Com: -0.114D-02-0.487D-02-0.263D-01 0.400D-01 0.231D-01 0.110D+00
 Coeff-Com:  0.323D+00 0.532D+00
 Coeff-En:   0.000D+00 0.000D+00 0.000D+00 0.000D+00 0.000D+00 0.000D+00
 Coeff-En:   0.000D+00 0.000D+00 0.000D+00 0.000D+00 0.000D+00 0.000D+00
 Coeff-En:   0.282D-01 0.972D+00
 Coeff:     -0.455D-02 0.639D-02-0.211D-02 0.224D-02 0.244D-02-0.283D-03
 Coeff:     -0.110D-02-0.468D-02-0.253D-01 0.384D-01 0.222D-01 0.106D+00
 Coeff:      0.311D+00 0.549D+00
 Gap=     0.107 Goal=   None    Shift=    0.000
 Gap=     0.070 Goal=   None    Shift=    0.000
 RMSDP=2.06D-04 MaxDP=6.47D-03 DE=-1.51D-02 OVMax= 2.93D-02

 Cycle  15  Pass 1  IDiag  1:
 RMSU=  1.60D-04    CP:  9.44D-01  6.82D-01  4.79D-01  3.45D-01  4.86D-01
                    CP:  1.64D-01  3.33D-01  2.01D-01  5.45D-01  3.21D-01
                    CP:  3.98D-01  9.28D-01  8.06D-01  1.09D+00
 E= -3844.96532172367     Delta-E=       -0.006025613018 Rises=F Damp=F
 DIIS: error= 2.26D-03 at cycle  15 NSaved=  15.
 NSaved=15 IEnMin=15 EnMin= -3844.96532172367     IErMin=15 ErrMin= 2.26D-03
 ErrMax= 2.26D-03  0.00D+00 EMaxC= 1.00D-01 BMatC= 1.20D-02 BMatP= 3.04D-02
 IDIUse=3 WtCom= 9.77D-01 WtEn= 2.26D-02
 Coeff-Com:  0.261D-02-0.167D-02-0.578D-03-0.570D-03 0.161D-01 0.626D-05
 Coeff-Com: -0.630D-03-0.221D-02-0.327D-01 0.345D-01-0.844D-02-0.682D-01
 Coeff-Com:  0.958D-01 0.409D+00 0.557D+00
 Coeff-En:   0.000D+00 0.000D+00 0.000D+00 0.000D+00 0.000D+00 0.000D+00
 Coeff-En:   0.000D+00 0.000D+00 0.000D+00 0.000D+00 0.000D+00 0.000D+00
 Coeff-En:   0.000D+00 0.000D+00 0.100D+01
 Coeff:      0.256D-02-0.163D-02-0.565D-03-0.558D-03 0.157D-01 0.612D-05
 Coeff:     -0.616D-03-0.216D-02-0.319D-01 0.338D-01-0.825D-02-0.666D-01
 Coeff:      0.936D-01 0.400D+00 0.567D+00
 Gap=     0.107 Goal=   None    Shift=    0.000
 Gap=     0.076 Goal=   None    Shift=    0.000
 RMSDP=1.71D-04 MaxDP=1.04D-02 DE=-6.03D-03 OVMax= 2.78D-02

 Cycle  16  Pass 1  IDiag  1:
 RMSU=  1.20D-04    CP:  9.44D-01  6.82D-01  4.78D-01  3.50D-01  4.81D-01
                    CP:  1.66D-01  3.32D-01  1.95D-01  5.34D-01  3.34D-01
                    CP:  3.88D-01  9.29D-01  8.88D-01  1.29D+00  9.38D-01
 E= -3844.96804817492     Delta-E=       -0.002726451251 Rises=F Damp=F
 DIIS: error= 1.48D-03 at cycle  16 NSaved=  16.
 NSaved=16 IEnMin=16 EnMin= -3844.96804817492     IErMin=16 ErrMin= 1.48D-03
 ErrMax= 1.48D-03  0.00D+00 EMaxC= 1.00D-01 BMatC= 4.61D-03 BMatP= 1.20D-02
 IDIUse=3 WtCom= 9.85D-01 WtEn= 1.48D-02
 Coeff-Com:  0.464D-02-0.513D-02-0.765D-03-0.937D-03 0.404D-02-0.416D-04
 Coeff-Com: -0.199D-02 0.140D-02-0.973D-02 0.738D-02 0.642D-02-0.101D-01
 Coeff-Com: -0.100D+00-0.298D+00 0.364D+00 0.104D+01
 Coeff-En:   0.000D+00 0.000D+00 0.000D+00 0.000D+00 0.000D+00 0.000D+00
 Coeff-En:   0.000D+00 0.000D+00 0.000D+00 0.000D+00 0.000D+00 0.000D+00
 Coeff-En:   0.000D+00 0.000D+00 0.000D+00 0.100D+01
 Coeff:      0.457D-02-0.505D-02-0.754D-03-0.923D-03 0.398D-02-0.410D-04
 Coeff:     -0.196D-02 0.137D-02-0.959D-02 0.727D-02 0.632D-02-0.995D-02
 Coeff:     -0.985D-01-0.293D+00 0.359D+00 0.104D+01
 Gap=     0.109 Goal=   None    Shift=    0.000
 Gap=     0.077 Goal=   None    Shift=    0.000
 RMSDP=1.54D-04 MaxDP=4.24D-03 DE=-2.73D-03 OVMax= 3.89D-02

 Cycle  17  Pass 1  IDiag  1:
 RMSU=  7.13D-05    CP:  9.44D-01  6.85D-01  4.76D-01  3.52D-01  4.79D-01
                    CP:  1.64D-01  3.27D-01  1.88D-01  5.29D-01  3.45D-01
                    CP:  3.93D-01  9.24D-01  9.17D-01  1.48D+00  1.51D+00
                    CP:  1.26D+00
 E= -3844.96990939386     Delta-E=       -0.001861218941 Rises=F Damp=F
 DIIS: error= 6.62D-04 at cycle  17 NSaved=  17.
 NSaved=17 IEnMin=17 EnMin= -3844.96990939386     IErMin=17 ErrMin= 6.62D-04
 ErrMax= 6.62D-04  0.00D+00 EMaxC= 1.00D-01 BMatC= 3.76D-04 BMatP= 4.61D-03
 IDIUse=3 WtCom= 9.93D-01 WtEn= 6.62D-03
 Coeff-Com:  0.227D-02-0.267D-02-0.416D-03 0.143D-03 0.619D-03-0.346D-04
 Coeff-Com:  0.428D-03-0.295D-03-0.167D-02-0.139D-04 0.284D-02 0.290D-01
 Coeff-Com: -0.196D-01-0.103D+00-0.282D-01 0.122D+00 0.999D+00
 Coeff-En:   0.000D+00 0.000D+00 0.000D+00 0.000D+00 0.000D+00 0.000D+00
 Coeff-En:   0.000D+00 0.000D+00 0.000D+00 0.000D+00 0.000D+00 0.000D+00
 Coeff-En:   0.000D+00 0.000D+00 0.000D+00 0.000D+00 0.100D+01
 Coeff:      0.226D-02-0.265D-02-0.413D-03 0.142D-03 0.615D-03-0.344D-04
 Coeff:      0.426D-03-0.293D-03-0.166D-02-0.138D-04 0.282D-02 0.288D-01
 Coeff:     -0.195D-01-0.103D+00-0.280D-01 0.121D+00 0.999D+00
 Gap=     0.108 Goal=   None    Shift=    0.000
 Gap=     0.076 Goal=   None    Shift=    0.000
 RMSDP=7.34D-05 MaxDP=3.10D-03 DE=-1.86D-03 OVMax= 2.73D-02

 Cycle  18  Pass 1  IDiag  1:
 RMSU=  3.84D-05    CP:  9.44D-01  6.83D-01  4.76D-01  3.54D-01  4.78D-01
                    CP:  1.64D-01  3.27D-01  1.84D-01  5.23D-01  3.47D-01
                    CP:  3.87D-01  9.26D-01  9.19D-01  1.53D+00  1.67D+00
                    CP:  1.56D+00  1.44D+00
 E= -3844.97027299058     Delta-E=       -0.000363596718 Rises=F Damp=F
 DIIS: error= 5.11D-04 at cycle  18 NSaved=  18.
 NSaved=18 IEnMin=18 EnMin= -3844.97027299058     IErMin=18 ErrMin= 5.11D-04
 ErrMax= 5.11D-04  0.00D+00 EMaxC= 1.00D-01 BMatC= 1.15D-04 BMatP= 3.76D-04
 IDIUse=3 WtCom= 9.95D-01 WtEn= 5.11D-03
 Coeff-Com:  0.573D-03-0.623D-03 0.114D-04-0.155D-03 0.491D-03-0.666D-05
 Coeff-Com:  0.351D-03-0.434D-03 0.665D-03-0.343D-03 0.267D-03 0.176D-01
 Coeff-Com:  0.525D-02-0.152D-01-0.579D-01-0.919D-01 0.403D+00 0.738D+00
 Coeff-En:   0.000D+00 0.000D+00 0.000D+00 0.000D+00 0.000D+00 0.000D+00
 Coeff-En:   0.000D+00 0.000D+00 0.000D+00 0.000D+00 0.000D+00 0.000D+00
 Coeff-En:   0.000D+00 0.000D+00 0.000D+00 0.000D+00 0.000D+00 0.100D+01
 Coeff:      0.571D-03-0.620D-03 0.114D-04-0.155D-03 0.488D-03-0.663D-05
 Coeff:      0.349D-03-0.431D-03 0.661D-03-0.342D-03 0.266D-03 0.176D-01
 Coeff:      0.522D-02-0.151D-01-0.576D-01-0.915D-01 0.401D+00 0.739D+00
 Gap=     0.109 Goal=   None    Shift=    0.000
 Gap=     0.076 Goal=   None    Shift=    0.000
 RMSDP=4.63D-05 MaxDP=2.17D-03 DE=-3.64D-04 OVMax= 1.90D-02

 Cycle  19  Pass 1  IDiag  1:
 RMSU=  1.93D-05    CP:  9.44D-01  6.83D-01  4.76D-01  3.54D-01  4.78D-01
                    CP:  1.64D-01  3.27D-01  1.83D-01  5.22D-01  3.47D-01
                    CP:  3.87D-01  9.24D-01  9.26D-01  1.55D+00  1.74D+00
                    CP:  1.66D+00  1.90D+00  1.41D+00
 E= -3844.97044932300     Delta-E=       -0.000176332429 Rises=F Damp=F
 DIIS: error= 4.44D-04 at cycle  19 NSaved=  19.
 NSaved=19 IEnMin=19 EnMin= -3844.97044932300     IErMin=19 ErrMin= 4.44D-04
 ErrMax= 4.44D-04  0.00D+00 EMaxC= 1.00D-01 BMatC= 7.82D-05 BMatP= 1.15D-04
 IDIUse=3 WtCom= 9.96D-01 WtEn= 4.44D-03
 Coeff-Com: -0.433D-03 0.572D-03 0.184D-03-0.260D-03 0.317D-03 0.204D-04
 Coeff-Com:  0.554D-04-0.219D-03 0.161D-02-0.241D-03-0.496D-03 0.667D-02
 Coeff-Com:  0.123D-01 0.182D-01-0.415D-01-0.121D+00-0.163D-01 0.615D+00
 Coeff-Com:  0.526D+00
 Coeff-En:   0.000D+00 0.000D+00 0.000D+00 0.000D+00 0.000D+00 0.000D+00
 Coeff-En:   0.000D+00 0.000D+00 0.000D+00 0.000D+00 0.000D+00 0.000D+00
 Coeff-En:   0.000D+00 0.000D+00 0.000D+00 0.000D+00 0.000D+00 0.000D+00
 Coeff-En:   0.100D+01
 Coeff:     -0.431D-03 0.569D-03 0.183D-03-0.258D-03 0.316D-03 0.203D-04
 Coeff:      0.552D-04-0.218D-03 0.161D-02-0.240D-03-0.494D-03 0.664D-02
 Coeff:      0.123D-01 0.181D-01-0.413D-01-0.121D+00-0.162D-01 0.612D+00
 Coeff:      0.528D+00
 Gap=     0.109 Goal=   None    Shift=    0.000
 Gap=     0.077 Goal=   None    Shift=    0.000
 RMSDP=3.87D-05 MaxDP=1.93D-03 DE=-1.76D-04 OVMax= 1.67D-02

 Cycle  20  Pass 1  IDiag  1:
 RMSU=  1.23D-05    CP:  9.44D-01  6.84D-01  4.76D-01  3.54D-01  4.79D-01
                    CP:  1.64D-01  3.27D-01  1.82D-01  5.21D-01  3.46D-01
                    CP:  3.86D-01  9.22D-01  9.29D-01  1.56D+00  1.81D+00
                    CP:  1.75D+00  2.22D+00  1.97D+00  1.31D+00
 E= -3844.97058735793     Delta-E=       -0.000138034924 Rises=F Damp=F
 DIIS: error= 4.08D-04 at cycle  20 NSaved=  20.
 NSaved=20 IEnMin=20 EnMin= -3844.97058735793     IErMin=20 ErrMin= 4.08D-04
 ErrMax= 4.08D-04  0.00D+00 EMaxC= 1.00D-01 BMatC= 3.77D-05 BMatP= 7.82D-05
 IDIUse=3 WtCom= 9.96D-01 WtEn= 4.08D-03
 Coeff-Com: -0.142D-02 0.168D-02 0.783D-05 0.165D-03 0.179D-03 0.631D-05
 Coeff-Com: -0.212D-03 0.341D-03 0.119D-02 0.462D-05-0.714D-03-0.637D-02
 Coeff-Com:  0.157D-02 0.134D-01 0.947D-02 0.670D-02-0.256D+00-0.331D+00
 Coeff-Com:  0.292D+00 0.127D+01
 Coeff-En:   0.000D+00 0.000D+00 0.000D+00 0.000D+00 0.000D+00 0.000D+00
 Coeff-En:   0.000D+00 0.000D+00 0.000D+00 0.000D+00 0.000D+00 0.000D+00
 Coeff-En:   0.000D+00 0.000D+00 0.000D+00 0.000D+00 0.000D+00 0.000D+00
 Coeff-En:   0.000D+00 0.100D+01
 Coeff:     -0.142D-02 0.167D-02 0.780D-05 0.165D-03 0.178D-03 0.628D-05
 Coeff:     -0.212D-03 0.340D-03 0.118D-02 0.460D-05-0.712D-03-0.634D-02
 Coeff:      0.156D-02 0.134D-01 0.943D-02 0.667D-02-0.255D+00-0.329D+00
 Coeff:      0.291D+00 0.127D+01
 Gap=     0.109 Goal=   None    Shift=    0.000
 Gap=     0.077 Goal=   None    Shift=    0.000
 RMSDP=7.62D-05 MaxDP=3.97D-03 DE=-1.38D-04 OVMax= 3.42D-02

 Cycle  21  Pass 1  IDiag  1:
 Restarting incremental Fock formation.
 E= -3844.97081168708     Delta-E=       -0.000224329156 Rises=F Damp=F
 DIIS: error= 3.13D-04 at cycle  21 NSaved=  20.
 NSaved=20 IEnMin=20 EnMin= -3844.97081168708     IErMin=20 ErrMin= 3.13D-04
 ErrMax= 3.13D-04  0.00D+00 EMaxC= 1.00D-01 BMatC= 2.71D-05 BMatP= 3.77D-05
 IDIUse=3 WtCom= 9.97D-01 WtEn= 3.13D-03
 Coeff-Com: -0.926D-03 0.103D-02-0.605D-04 0.339D-03-0.520D-03-0.467D-05
 Coeff-Com:  0.154D-03 0.272D-04-0.315D-03 0.120D-02-0.807D-02-0.160D-02
 Coeff-Com:  0.219D-01 0.185D-01-0.265D-02-0.256D-02-0.237D+00-0.288D+00
 Coeff-Com: -0.298D+00 0.180D+01
 Coeff-En:   0.000D+00 0.000D+00 0.000D+00 0.000D+00 0.000D+00 0.000D+00
 Coeff-En:   0.000D+00 0.000D+00 0.000D+00 0.000D+00 0.000D+00 0.000D+00
 Coeff-En:   0.000D+00 0.000D+00 0.000D+00 0.000D+00 0.000D+00 0.000D+00
 Coeff-En:   0.000D+00 0.100D+01
 Coeff:     -0.924D-03 0.102D-02-0.603D-04 0.338D-03-0.519D-03-0.465D-05
 Coeff:      0.153D-03 0.271D-04-0.314D-03 0.120D-02-0.804D-02-0.159D-02
 Coeff:      0.218D-01 0.185D-01-0.264D-02-0.255D-02-0.236D+00-0.287D+00
 Coeff:     -0.298D+00 0.179D+01
 Gap=     0.110 Goal=   None    Shift=    0.000
 Gap=     0.077 Goal=   None    Shift=    0.000
 RMSDP=1.02D-04 MaxDP=5.37D-03 DE=-2.24D-04 OVMax= 4.60D-02

 Cycle  22  Pass 1  IDiag  1:
 RMSU=  1.02D-04    CP:  1.00D+00
 E= -3844.97103280881     Delta-E=       -0.000221121729 Rises=F Damp=F
 DIIS: error= 2.05D-04 at cycle  22 NSaved=  20.
 NSaved=20 IEnMin=20 EnMin= -3844.97103280881     IErMin=20 ErrMin= 2.05D-04
 ErrMax= 2.05D-04  0.00D+00 EMaxC= 1.00D-01 BMatC= 1.22D-05 BMatP= 2.71D-05
 IDIUse=3 WtCom= 9.98D-01 WtEn= 2.05D-03
 Coeff-Com: -0.410D-03 0.471D-03-0.150D-04-0.671D-03 0.564D-04-0.118D-03
 Coeff-Com: -0.454D-04-0.619D-04 0.132D-02 0.152D-02 0.315D-02-0.172D-02
 Coeff-Com:  0.131D-02-0.703D-02 0.709D-01 0.108D+00-0.152D+00-0.687D+00
 Coeff-Com:  0.324D+00 0.134D+01
 Coeff-En:   0.000D+00 0.000D+00 0.000D+00 0.000D+00 0.000D+00 0.000D+00
 Coeff-En:   0.000D+00 0.000D+00 0.000D+00 0.000D+00 0.000D+00 0.000D+00
 Coeff-En:   0.000D+00 0.000D+00 0.000D+00 0.000D+00 0.000D+00 0.000D+00
 Coeff-En:   0.000D+00 0.100D+01
 Coeff:     -0.409D-03 0.470D-03-0.150D-04-0.670D-03 0.563D-04-0.117D-03
 Coeff:     -0.453D-04-0.617D-04 0.132D-02 0.152D-02 0.314D-02-0.172D-02
 Coeff:      0.131D-02-0.702D-02 0.708D-01 0.108D+00-0.152D+00-0.686D+00
 Coeff:      0.323D+00 0.134D+01
 Gap=     0.110 Goal=   None    Shift=    0.000
 Gap=     0.077 Goal=   None    Shift=    0.000
 RMSDP=8.19D-05 MaxDP=4.31D-03 DE=-2.21D-04 OVMax= 3.72D-02

 Cycle  23  Pass 1  IDiag  1:
 RMSU=  1.35D-05    CP:  1.00D+00  1.80D+00
 E= -3844.97115063535     Delta-E=       -0.000117826541 Rises=F Damp=F
 DIIS: error= 1.16D-04 at cycle  23 NSaved=  20.
 NSaved=20 IEnMin=20 EnMin= -3844.97115063535     IErMin=20 ErrMin= 1.16D-04
 ErrMax= 1.16D-04  0.00D+00 EMaxC= 1.00D-01 BMatC= 6.53D-06 BMatP= 1.22D-05
 IDIUse=3 WtCom= 9.99D-01 WtEn= 1.16D-03
 Coeff-Com:  0.394D-04-0.447D-04-0.169D-05 0.332D-04-0.311D-04-0.122D-03
 Coeff-Com:  0.232D-03-0.732D-04 0.595D-02 0.516D-02-0.126D-01-0.136D-01
 Coeff-Com: -0.605D-02 0.695D-02 0.670D-01 0.121D+00 0.134D+00-0.610D+00
 Coeff-Com: -0.136D+00 0.144D+01
 Coeff-En:   0.000D+00 0.000D+00 0.000D+00 0.000D+00 0.000D+00 0.000D+00
 Coeff-En:   0.000D+00 0.000D+00 0.000D+00 0.000D+00 0.000D+00 0.000D+00
 Coeff-En:   0.000D+00 0.000D+00 0.000D+00 0.000D+00 0.000D+00 0.000D+00
 Coeff-En:   0.000D+00 0.100D+01
 Coeff:      0.393D-04-0.447D-04-0.169D-05 0.332D-04-0.310D-04-0.122D-03
 Coeff:      0.232D-03-0.731D-04 0.594D-02 0.515D-02-0.126D-01-0.136D-01
 Coeff:     -0.604D-02 0.694D-02 0.669D-01 0.121D+00 0.134D+00-0.610D+00
 Coeff:     -0.136D+00 0.144D+01
 Gap=     0.110 Goal=   None    Shift=    0.000
 Gap=     0.077 Goal=   None    Shift=    0.000
 RMSDP=4.68D-05 MaxDP=2.23D-03 DE=-1.18D-04 OVMax= 2.04D-02

 Cycle  24  Pass 1  IDiag  1:
 RMSU=  8.58D-06    CP:  1.00D+00  2.22D+00  2.16D+00
 E= -3844.97120120707     Delta-E=       -0.000050571714 Rises=F Damp=F
 DIIS: error= 6.10D-05 at cycle  24 NSaved=  20.
 NSaved=20 IEnMin=20 EnMin= -3844.97120120707     IErMin=20 ErrMin= 6.10D-05
 ErrMax= 6.10D-05  0.00D+00 EMaxC= 1.00D-01 BMatC= 3.85D-06 BMatP= 6.53D-06
 IDIUse=1 WtCom= 1.00D+00 WtEn= 0.00D+00
 Coeff-Com:  0.127D-03-0.129D-03 0.191D-03-0.136D-04 0.452D-05 0.707D-04
 Coeff-Com: -0.327D-03 0.139D-02 0.125D-02-0.390D-04-0.638D-02-0.219D-01
 Coeff-Com: -0.194D-01 0.286D-01 0.857D-01 0.177D+00-0.211D+00-0.499D+00
 Coeff-Com:  0.956D-01 0.137D+01
 Coeff:      0.127D-03-0.129D-03 0.191D-03-0.136D-04 0.452D-05 0.707D-04
 Coeff:     -0.327D-03 0.139D-02 0.125D-02-0.390D-04-0.638D-02-0.219D-01
 Coeff:     -0.194D-01 0.286D-01 0.857D-01 0.177D+00-0.211D+00-0.499D+00
 Coeff:      0.956D-01 0.137D+01
 Gap=     0.110 Goal=   None    Shift=    0.000
 Gap=     0.077 Goal=   None    Shift=    0.000
 RMSDP=4.19D-05 MaxDP=1.86D-03 DE=-5.06D-05 OVMax= 1.73D-02

 Cycle  25  Pass 1  IDiag  1:
 RMSU=  7.23D-06    CP:  1.00D+00  2.59D+00  3.00D+00  2.16D+00
 E= -3844.97123664931     Delta-E=       -0.000035442241 Rises=F Damp=F
 DIIS: error= 5.88D-05 at cycle  25 NSaved=  20.
 NSaved=20 IEnMin=20 EnMin= -3844.97123664931     IErMin=20 ErrMin= 5.88D-05
 ErrMax= 5.88D-05  0.00D+00 EMaxC= 1.00D-01 BMatC= 2.43D-06 BMatP= 3.85D-06
 IDIUse=1 WtCom= 1.00D+00 WtEn= 0.00D+00
 Coeff-Com:  0.282D-04-0.310D-04 0.834D-04-0.192D-04-0.374D-04 0.112D-03
 Coeff-Com: -0.399D-04 0.128D-03 0.597D-02-0.126D-02-0.101D-01 0.127D-01
 Coeff-Com: -0.301D-01-0.374D-01 0.450D-01 0.174D+00-0.210D+00-0.346D+00
 Coeff-Com:  0.268D+00 0.113D+01
 Coeff:      0.282D-04-0.310D-04 0.834D-04-0.192D-04-0.374D-04 0.112D-03
 Coeff:     -0.399D-04 0.128D-03 0.597D-02-0.126D-02-0.101D-01 0.127D-01
 Coeff:     -0.301D-01-0.374D-01 0.450D-01 0.174D+00-0.210D+00-0.346D+00
 Coeff:      0.268D+00 0.113D+01
 Gap=     0.110 Goal=   None    Shift=    0.000
 Gap=     0.077 Goal=   None    Shift=    0.000
 RMSDP=2.24D-05 MaxDP=1.24D-03 DE=-3.54D-05 OVMax= 7.82D-03

 Cycle  26  Pass 1  IDiag  1:
 RMSU=  7.78D-06    CP:  1.00D+00  2.74D+00  3.00D+00  3.00D+00  2.51D+00
 E= -3844.97125515777     Delta-E=       -0.000018508463 Rises=F Damp=F
 DIIS: error= 5.65D-05 at cycle  26 NSaved=  20.
 NSaved=20 IEnMin=20 EnMin= -3844.97125515777     IErMin=20 ErrMin= 5.65D-05
 ErrMax= 5.65D-05  0.00D+00 EMaxC= 1.00D-01 BMatC= 2.00D-06 BMatP= 2.43D-06
 IDIUse=1 WtCom= 1.00D+00 WtEn= 0.00D+00
 Coeff-Com:  0.629D-05 0.415D-04 0.289D-04-0.408D-04 0.119D-03 0.276D-03
 Coeff-Com:  0.347D-03-0.204D-03-0.302D-03 0.562D-02 0.108D-02 0.495D-02
 Coeff-Com: -0.417D-02-0.655D-02 0.783D-02 0.137D+00-0.145D-01-0.880D+00
 Coeff-Com:  0.475D+00 0.127D+01
 Coeff:      0.629D-05 0.415D-04 0.289D-04-0.408D-04 0.119D-03 0.276D-03
 Coeff:      0.347D-03-0.204D-03-0.302D-03 0.562D-02 0.108D-02 0.495D-02
 Coeff:     -0.417D-02-0.655D-02 0.783D-02 0.137D+00-0.145D-01-0.880D+00
 Coeff:      0.475D+00 0.127D+01
 Gap=     0.110 Goal=   None    Shift=    0.000
 Gap=     0.078 Goal=   None    Shift=    0.000
 RMSDP=2.49D-05 MaxDP=1.58D-03 DE=-1.85D-05 OVMax= 9.62D-03

 Cycle  27  Pass 1  IDiag  1:
 RMSU=  1.55D-05    CP:  1.00D+00  2.87D+00  3.00D+00  3.00D+00  3.00D+00
                    CP:  2.36D+00
 E= -3844.97127511245     Delta-E=       -0.000019954674 Rises=F Damp=F
 DIIS: error= 5.30D-05 at cycle  27 NSaved=  20.
 NSaved=20 IEnMin=20 EnMin= -3844.97127511245     IErMin=20 ErrMin= 5.30D-05
 ErrMax= 5.30D-05  0.00D+00 EMaxC= 1.00D-01 BMatC= 1.60D-06 BMatP= 2.00D-06
 IDIUse=1 WtCom= 1.00D+00 WtEn= 0.00D+00
 Coeff-Com: -0.926D-04-0.196D-05 0.489D-04 0.803D-04 0.144D-02 0.276D-02
 Coeff-Com: -0.669D-03-0.532D-02-0.733D-02 0.147D-01 0.531D-01 0.150D-01
 Coeff-Com: -0.128D+00-0.117D+00 0.296D+00 0.329D+00-0.604D+00-0.571D+00
 Coeff-Com:  0.216D+00 0.150D+01
 Coeff:     -0.926D-04-0.196D-05 0.489D-04 0.803D-04 0.144D-02 0.276D-02
 Coeff:     -0.669D-03-0.532D-02-0.733D-02 0.147D-01 0.531D-01 0.150D-01
 Coeff:     -0.128D+00-0.117D+00 0.296D+00 0.329D+00-0.604D+00-0.571D+00
 Coeff:      0.216D+00 0.150D+01
 Gap=     0.110 Goal=   None    Shift=    0.000
 Gap=     0.078 Goal=   None    Shift=    0.000
 RMSDP=2.53D-05 MaxDP=1.80D-03 DE=-2.00D-05 OVMax= 1.07D-02

 Cycle  28  Pass 1  IDiag  1:
 RMSU=  7.49D-06    CP:  1.00D+00  2.97D+00  3.00D+00  3.00D+00  3.00D+00
                    CP:  3.00D+00  2.28D+00
 E= -3844.97129450315     Delta-E=       -0.000019390705 Rises=F Damp=F
 DIIS: error= 4.97D-05 at cycle  28 NSaved=  20.
 NSaved=20 IEnMin=20 EnMin= -3844.97129450315     IErMin=20 ErrMin= 4.97D-05
 ErrMax= 4.97D-05  0.00D+00 EMaxC= 1.00D-01 BMatC= 1.39D-06 BMatP= 1.60D-06
 IDIUse=1 WtCom= 1.00D+00 WtEn= 0.00D+00
 Coeff-Com:  0.486D-04 0.135D-03-0.198D-03 0.161D-02 0.220D-02 0.637D-03
 Coeff-Com: -0.818D-02-0.193D-01 0.162D-01 0.315D-01 0.231D-01-0.820D-02
 Coeff-Com: -0.741D-01-0.116D+00 0.126D+00 0.539D+00-0.358D+00-0.968D+00
 Coeff-Com:  0.299D+00 0.151D+01
 Coeff:      0.486D-04 0.135D-03-0.198D-03 0.161D-02 0.220D-02 0.637D-03
 Coeff:     -0.818D-02-0.193D-01 0.162D-01 0.315D-01 0.231D-01-0.820D-02
 Coeff:     -0.741D-01-0.116D+00 0.126D+00 0.539D+00-0.358D+00-0.968D+00
 Coeff:      0.299D+00 0.151D+01
 Gap=     0.110 Goal=   None    Shift=    0.000
 Gap=     0.078 Goal=   None    Shift=    0.000
 RMSDP=2.54D-05 MaxDP=1.91D-03 DE=-1.94D-05 OVMax= 1.12D-02

 Cycle  29  Pass 1  IDiag  1:
 RMSU=  1.11D-05    CP:  1.00D+00  3.00D+00  3.00D+00  3.00D+00  3.00D+00
                    CP:  3.00D+00  3.00D+00  2.68D+00
 E= -3844.97131274366     Delta-E=       -0.000018240508 Rises=F Damp=F
 DIIS: error= 4.53D-05 at cycle  29 NSaved=  20.
 NSaved=20 IEnMin=20 EnMin= -3844.97131274366     IErMin=20 ErrMin= 4.53D-05
 ErrMax= 4.53D-05  0.00D+00 EMaxC= 1.00D-01 BMatC= 1.05D-06 BMatP= 1.39D-06
 IDIUse=1 WtCom= 1.00D+00 WtEn= 0.00D+00
 Coeff-Com: -0.435D-04 0.138D-03 0.107D-02 0.395D-03 0.266D-02 0.445D-03
 Coeff-Com: -0.619D-02-0.263D-01-0.449D-01 0.458D-02 0.172D+00 0.506D-01
 Coeff-Com: -0.372D+00-0.242D+00 0.878D+00 0.550D+00-0.963D+00-0.125D+01
 Coeff-Com:  0.679D-01 0.218D+01
 Coeff:     -0.435D-04 0.138D-03 0.107D-02 0.395D-03 0.266D-02 0.445D-03
 Coeff:     -0.619D-02-0.263D-01-0.449D-01 0.458D-02 0.172D+00 0.506D-01
 Coeff:     -0.372D+00-0.242D+00 0.878D+00 0.550D+00-0.963D+00-0.125D+01
 Coeff:      0.679D-01 0.218D+01
 Gap=     0.110 Goal=   None    Shift=    0.000
 Gap=     0.078 Goal=   None    Shift=    0.000
 RMSDP=4.88D-05 MaxDP=3.87D-03 DE=-1.82D-05 OVMax= 2.13D-02

 Cycle  30  Pass 1  IDiag  1:
 RMSU=  3.13D-05    CP:  1.00D+00  3.00D+00  3.00D+00  3.00D+00  3.00D+00
                    CP:  3.00D+00  3.00D+00  3.00D+00  3.00D+00
 E= -3844.97134214017     Delta-E=       -0.000029396510 Rises=F Damp=F
 DIIS: error= 3.61D-05 at cycle  30 NSaved=  20.
 NSaved=20 IEnMin=20 EnMin= -3844.97134214017     IErMin=20 ErrMin= 3.61D-05
 ErrMax= 3.61D-05  0.00D+00 EMaxC= 1.00D-01 BMatC= 9.43D-07 BMatP= 1.05D-06
 IDIUse=1 WtCom= 1.00D+00 WtEn= 0.00D+00
 Coeff-Com:  0.163D-03 0.116D-02 0.415D-04-0.263D-03-0.700D-03-0.541D-02
 Coeff-Com: -0.183D-01-0.267D-01 0.293D-01 0.193D+00-0.620D-01-0.349D+00
 Coeff-Com: -0.959D-01 0.451D+00 0.448D+00-0.106D+00-0.616D+00-0.914D+00
 Coeff-Com:  0.801D+00 0.127D+01
 Coeff:      0.163D-03 0.116D-02 0.415D-04-0.263D-03-0.700D-03-0.541D-02
 Coeff:     -0.183D-01-0.267D-01 0.293D-01 0.193D+00-0.620D-01-0.349D+00
 Coeff:     -0.959D-01 0.451D+00 0.448D+00-0.106D+00-0.616D+00-0.914D+00
 Coeff:      0.801D+00 0.127D+01
 Gap=     0.109 Goal=   None    Shift=    0.000
 Gap=     0.078 Goal=   None    Shift=    0.000
 RMSDP=3.36D-05 MaxDP=2.80D-03 DE=-2.94D-05 OVMax= 1.47D-02

 Cycle  31  Pass 1  IDiag  1:
 RMSU=  1.20D-05    CP:  1.00D+00  3.00D+00  3.00D+00  3.00D+00  3.00D+00
                    CP:  3.00D+00  3.00D+00  3.00D+00  3.00D+00  2.00D+00
 E= -3844.97135842805     Delta-E=       -0.000016287881 Rises=F Damp=F
 DIIS: error= 2.88D-05 at cycle  31 NSaved=  20.
 NSaved=20 IEnMin=20 EnMin= -3844.97135842805     IErMin=20 ErrMin= 2.88D-05
 ErrMax= 2.88D-05  0.00D+00 EMaxC= 1.00D-01 BMatC= 5.98D-07 BMatP= 9.43D-07
 IDIUse=1 WtCom= 1.00D+00 WtEn= 0.00D+00
 Coeff-Com:  0.166D-02 0.333D-02 0.234D-02-0.693D-02-0.170D-01 0.135D-01
 Coeff-Com:  0.349D-01 0.943D-02-0.550D-01-0.731D-01 0.125D+00 0.233D+00
 Coeff-Com: -0.315D+00-0.401D+00 0.250D+00 0.475D+00 0.200D+00-0.722D+00
 Coeff-Com: -0.976D+00 0.222D+01
 Coeff:      0.166D-02 0.333D-02 0.234D-02-0.693D-02-0.170D-01 0.135D-01
 Coeff:      0.349D-01 0.943D-02-0.550D-01-0.731D-01 0.125D+00 0.233D+00
 Coeff:     -0.315D+00-0.401D+00 0.250D+00 0.475D+00 0.200D+00-0.722D+00
 Coeff:     -0.976D+00 0.222D+01
 Gap=     0.109 Goal=   None    Shift=    0.000
 Gap=     0.078 Goal=   None    Shift=    0.000
 RMSDP=4.39D-05 MaxDP=3.82D-03 DE=-1.63D-05 OVMax= 1.91D-02

 Cycle  32  Pass 1  IDiag  1:
 RMSU=  1.02D-05    CP:  1.00D+00  3.00D+00  3.00D+00  3.00D+00  3.00D+00
                    CP:  3.00D+00  3.00D+00  3.00D+00  3.00D+00  3.00D+00
                    CP:  2.31D+00
 E= -3844.97137435221     Delta-E=       -0.000015924154 Rises=F Damp=F
 DIIS: error= 2.02D-05 at cycle  32 NSaved=  20.
 NSaved=20 IEnMin=20 EnMin= -3844.97137435221     IErMin=20 ErrMin= 2.02D-05
 ErrMax= 2.02D-05  0.00D+00 EMaxC= 1.00D-01 BMatC= 4.60D-07 BMatP= 5.98D-07
 IDIUse=1 WtCom= 1.00D+00 WtEn= 0.00D+00
 Coeff-Com:  0.493D-03 0.196D-02-0.489D-03-0.426D-02 0.730D-02 0.262D-02
 Coeff-Com: -0.159D-01-0.445D-01 0.115D+00-0.122D-01-0.108D+00-0.540D-01
 Coeff-Com:  0.131D+00-0.260D+00 0.281D+00 0.236D+00 0.393D+00-0.144D+01
 Coeff-Com: -0.289D+00 0.206D+01
 Coeff:      0.493D-03 0.196D-02-0.489D-03-0.426D-02 0.730D-02 0.262D-02
 Coeff:     -0.159D-01-0.445D-01 0.115D+00-0.122D-01-0.108D+00-0.540D-01
 Coeff:      0.131D+00-0.260D+00 0.281D+00 0.236D+00 0.393D+00-0.144D+01
 Coeff:     -0.289D+00 0.206D+01
 Gap=     0.109 Goal=   None    Shift=    0.000
 Gap=     0.078 Goal=   None    Shift=    0.000
 RMSDP=4.00D-05 MaxDP=3.58D-03 DE=-1.59D-05 OVMax= 1.71D-02

 Cycle  33  Pass 1  IDiag  1:
 RMSU=  1.87D-05    CP:  1.00D+00  3.00D+00  3.00D+00  3.00D+00  3.00D+00
                    CP:  3.00D+00  3.00D+00  3.00D+00  3.00D+00  3.00D+00
                    CP:  3.00D+00  3.00D+00
 E= -3844.97138396516     Delta-E=       -0.000009612956 Rises=F Damp=F
 DIIS: error= 1.27D-05 at cycle  33 NSaved=  20.
 NSaved=20 IEnMin=20 EnMin= -3844.97138396516     IErMin=20 ErrMin= 1.27D-05
 ErrMax= 1.27D-05  0.00D+00 EMaxC= 1.00D-01 BMatC= 1.47D-07 BMatP= 4.60D-07
 IDIUse=1 WtCom= 1.00D+00 WtEn= 0.00D+00
 Coeff-Com:  0.564D-03 0.592D-03-0.573D-03-0.116D-01 0.339D-02 0.161D-01
 Coeff-Com:  0.237D-01-0.608D-02-0.798D-01-0.417D-01 0.186D+00 0.153D+00
 Coeff-Com: -0.371D+00-0.132D+00 0.168D+00 0.463D+00-0.475D+00-0.546D+00
 Coeff-Com:  0.595D+00 0.106D+01
 Coeff:      0.564D-03 0.592D-03-0.573D-03-0.116D-01 0.339D-02 0.161D-01
 Coeff:      0.237D-01-0.608D-02-0.798D-01-0.417D-01 0.186D+00 0.153D+00
 Coeff:     -0.371D+00-0.132D+00 0.168D+00 0.463D+00-0.475D+00-0.546D+00
 Coeff:      0.595D+00 0.106D+01
 Gap=     0.109 Goal=   None    Shift=    0.000
 Gap=     0.078 Goal=   None    Shift=    0.000
 RMSDP=2.44D-05 MaxDP=2.27D-03 DE=-9.61D-06 OVMax= 1.04D-02

 Cycle  34  Pass 1  IDiag  1:
 RMSU=  5.75D-06    CP:  1.00D+00  3.00D+00  3.00D+00  3.00D+00  3.00D+00
                    CP:  3.00D+00  3.00D+00  3.00D+00  3.00D+00  3.00D+00
                    CP:  3.00D+00  3.00D+00  2.27D+00
 E= -3844.97138715840     Delta-E=       -0.000003193240 Rises=F Damp=F
 DIIS: error= 1.17D-05 at cycle  34 NSaved=  20.
 NSaved=20 IEnMin=20 EnMin= -3844.97138715840     IErMin=20 ErrMin= 1.17D-05
 ErrMax= 1.17D-05  0.00D+00 EMaxC= 1.00D-01 BMatC= 1.27D-07 BMatP= 1.47D-07
 IDIUse=1 WtCom= 1.00D+00 WtEn= 0.00D+00
 Coeff-Com:  0.101D-03-0.167D-03-0.736D-02 0.869D-02 0.141D-01 0.715D-02
 Coeff-Com: -0.496D-01-0.207D-01 0.596D-01 0.137D+00-0.718D-01-0.190D+00
 Coeff-Com: -0.244D-01 0.373D-01 0.309D+00 0.105D+00-0.432D+00-0.473D+00
 Coeff-Com:  0.725D+00 0.866D+00
 Coeff:      0.101D-03-0.167D-03-0.736D-02 0.869D-02 0.141D-01 0.715D-02
 Coeff:     -0.496D-01-0.207D-01 0.596D-01 0.137D+00-0.718D-01-0.190D+00
 Coeff:     -0.244D-01 0.373D-01 0.309D+00 0.105D+00-0.432D+00-0.473D+00
 Coeff:      0.725D+00 0.866D+00
 Gap=     0.109 Goal=   None    Shift=    0.000
 Gap=     0.078 Goal=   None    Shift=    0.000
 RMSDP=1.10D-05 MaxDP=9.26D-04 DE=-3.19D-06 OVMax= 4.38D-03

 Cycle  35  Pass 1  IDiag  1:
 RMSU=  3.20D-06    CP:  1.00D+00  3.00D+00  3.00D+00  3.00D+00  3.00D+00
                    CP:  3.00D+00  3.00D+00  3.00D+00  3.00D+00  3.00D+00
                    CP:  3.00D+00  3.00D+00  2.80D+00  1.58D+00
 E= -3844.97138816730     Delta-E=       -0.000001008896 Rises=F Damp=F
 DIIS: error= 7.04D-06 at cycle  35 NSaved=  20.
 NSaved=20 IEnMin=20 EnMin= -3844.97138816730     IErMin=20 ErrMin= 7.04D-06
 ErrMax= 7.04D-06  0.00D+00 EMaxC= 1.00D-01 BMatC= 4.87D-08 BMatP= 1.27D-07
 IDIUse=1 WtCom= 1.00D+00 WtEn= 0.00D+00
 Coeff-Com: -0.703D-04-0.314D-02 0.328D-04 0.679D-02 0.230D-01-0.292D-01
 Coeff-Com: -0.204D-01-0.371D-02 0.255D-01 0.609D-01 0.103D+00-0.196D+00
 Coeff-Com: -0.251D+00 0.606D-01 0.600D+00-0.105D+00-0.518D+00-0.140D+00
 Coeff-Com:  0.366D+00 0.102D+01
 Coeff:     -0.703D-04-0.314D-02 0.328D-04 0.679D-02 0.230D-01-0.292D-01
 Coeff:     -0.204D-01-0.371D-02 0.255D-01 0.609D-01 0.103D+00-0.196D+00
 Coeff:     -0.251D+00 0.606D-01 0.600D+00-0.105D+00-0.518D+00-0.140D+00
 Coeff:      0.366D+00 0.102D+01
 Gap=     0.109 Goal=   None    Shift=    0.000
 Gap=     0.078 Goal=   None    Shift=    0.000
 RMSDP=1.01D-05 MaxDP=9.49D-04 DE=-1.01D-06 OVMax= 4.26D-03

 Cycle  36  Pass 1  IDiag  1:
 RMSU=  5.99D-06    CP:  1.00D+00  3.00D+00  3.00D+00  3.00D+00  3.00D+00
                    CP:  3.00D+00  3.00D+00  3.00D+00  3.00D+00  3.00D+00
                    CP:  3.00D+00  3.00D+00  3.00D+00  2.06D+00  1.08D+00
 E= -3844.97138861777     Delta-E=       -0.000000450469 Rises=F Damp=F
 DIIS: error= 5.59D-06 at cycle  36 NSaved=  20.
 NSaved=20 IEnMin=20 EnMin= -3844.97138861777     IErMin=20 ErrMin= 5.59D-06
 ErrMax= 5.59D-06  0.00D+00 EMaxC= 1.00D-01 BMatC= 3.57D-08 BMatP= 4.87D-08
 IDIUse=1 WtCom= 1.00D+00 WtEn= 0.00D+00
 Coeff-Com:  0.415D-02-0.686D-02-0.851D-02 0.249D-02 0.203D-01 0.118D-01
 Coeff-Com: -0.321D-01-0.598D-01 0.455D-02 0.247D+00-0.668D-01-0.156D+00
 Coeff-Com: -0.201D+00 0.271D+00 0.355D+00-0.312D+00-0.500D+00-0.174D+00
 Coeff-Com:  0.705D+00 0.894D+00
 Coeff:      0.415D-02-0.686D-02-0.851D-02 0.249D-02 0.203D-01 0.118D-01
 Coeff:     -0.321D-01-0.598D-01 0.455D-02 0.247D+00-0.668D-01-0.156D+00
 Coeff:     -0.201D+00 0.271D+00 0.355D+00-0.312D+00-0.500D+00-0.174D+00
 Coeff:      0.705D+00 0.894D+00
 Gap=     0.109 Goal=   None    Shift=    0.000
 Gap=     0.078 Goal=   None    Shift=    0.000
 RMSDP=3.79D-06 MaxDP=2.17D-04 DE=-4.50D-07 OVMax= 1.13D-03

 Cycle  37  Pass 1  IDiag  1:
 RMSU=  9.54D-07    CP:  1.00D+00  3.00D+00  3.00D+00  3.00D+00  3.00D+00
                    CP:  3.00D+00  3.00D+00  3.00D+00  3.00D+00  3.00D+00
                    CP:  3.00D+00  3.00D+00  3.00D+00  2.29D+00  1.77D+00
                    CP:  1.44D+00
 E= -3844.97138875736     Delta-E=       -0.000000139592 Rises=F Damp=F
 DIIS: error= 4.24D-06 at cycle  37 NSaved=  20.
 NSaved=20 IEnMin=20 EnMin= -3844.97138875736     IErMin=20 ErrMin= 4.24D-06
 ErrMax= 4.24D-06  0.00D+00 EMaxC= 1.00D-01 BMatC= 1.20D-08 BMatP= 3.57D-08
 IDIUse=1 WtCom= 1.00D+00 WtEn= 0.00D+00
 Coeff-Com: -0.439D-02-0.145D-02-0.104D-04 0.990D-02-0.226D-02-0.434D-02
 Coeff-Com:  0.423D-02-0.390D-01 0.183D-01 0.190D-01 0.726D-01-0.753D-01
 Coeff-Com: -0.722D-01 0.873D-01 0.915D-01-0.149D+00-0.968D-01-0.200D+00
 Coeff-Com:  0.408D+00 0.934D+00
 Coeff:     -0.439D-02-0.145D-02-0.104D-04 0.990D-02-0.226D-02-0.434D-02
 Coeff:      0.423D-02-0.390D-01 0.183D-01 0.190D-01 0.726D-01-0.753D-01
 Coeff:     -0.722D-01 0.873D-01 0.915D-01-0.149D+00-0.968D-01-0.200D+00
 Coeff:      0.408D+00 0.934D+00
 Gap=     0.109 Goal=   None    Shift=    0.000
 Gap=     0.078 Goal=   None    Shift=    0.000
 RMSDP=3.22D-06 MaxDP=2.92D-04 DE=-1.40D-07 OVMax= 1.30D-03

 Cycle  38  Pass 1  IDiag  1:
 RMSU=  6.41D-07    CP:  1.00D+00  3.00D+00  3.00D+00  3.00D+00  3.00D+00
                    CP:  3.00D+00  3.00D+00  3.00D+00  3.00D+00  3.00D+00
                    CP:  3.00D+00  3.00D+00  3.00D+00  2.45D+00  1.86D+00
                    CP:  1.93D+00  5.25D-01
 E= -3844.97138878965     Delta-E=       -0.000000032294 Rises=F Damp=F
 DIIS: error= 1.37D-06 at cycle  38 NSaved=  20.
 NSaved=20 IEnMin=20 EnMin= -3844.97138878965     IErMin=20 ErrMin= 1.37D-06
 ErrMax= 1.37D-06  0.00D+00 EMaxC= 1.00D-01 BMatC= 4.31D-09 BMatP= 1.20D-08
 IDIUse=1 WtCom= 1.00D+00 WtEn= 0.00D+00
 Coeff-Com: -0.103D-02-0.687D-02 0.603D-02 0.129D-01 0.885D-02-0.149D-01
 Coeff-Com: -0.550D-01-0.671D-02 0.775D-01 0.921D-01-0.645D-01-0.151D+00
 Coeff-Com:  0.463D-01 0.138D+00-0.457D-01-0.484D-01-0.303D+00 0.141D+00
 Coeff-Com:  0.537D+00 0.636D+00
 Coeff:     -0.103D-02-0.687D-02 0.603D-02 0.129D-01 0.885D-02-0.149D-01
 Coeff:     -0.550D-01-0.671D-02 0.775D-01 0.921D-01-0.645D-01-0.151D+00
 Coeff:      0.463D-01 0.138D+00-0.457D-01-0.484D-01-0.303D+00 0.141D+00
 Coeff:      0.537D+00 0.636D+00
 Gap=     0.109 Goal=   None    Shift=    0.000
 Gap=     0.078 Goal=   None    Shift=    0.000
 RMSDP=9.57D-07 MaxDP=4.71D-05 DE=-3.23D-08 OVMax= 4.13D-04

 Cycle  39  Pass 1  IDiag  1:
 RMSU=  2.30D-07    CP:  1.00D+00  3.00D+00  3.00D+00  3.00D+00  3.00D+00
                    CP:  3.00D+00  3.00D+00  3.00D+00  3.00D+00  3.00D+00
                    CP:  3.00D+00  3.00D+00  3.00D+00  2.49D+00  2.04D+00
                    CP:  1.96D+00  1.15D+00  5.29D-01
 E= -3844.97138879707     Delta-E=       -0.000000007413 Rises=F Damp=F
 DIIS: error= 2.49D-06 at cycle  39 NSaved=  20.
 NSaved=20 IEnMin=20 EnMin= -3844.97138879707     IErMin=19 ErrMin= 1.37D-06
 ErrMax= 2.49D-06  0.00D+00 EMaxC= 1.00D-01 BMatC= 4.69D-09 BMatP= 4.31D-09
 IDIUse=1 WtCom= 1.00D+00 WtEn= 0.00D+00
 Coeff-Com: -0.336D-02-0.421D-03 0.105D-01 0.115D-01-0.203D-01-0.309D-01
 Coeff-Com:  0.357D-02 0.557D-01 0.405D-01-0.490D-01-0.709D-01 0.307D-01
 Coeff-Com:  0.601D-01-0.201D-01 0.156D-01-0.229D+00 0.517D-01 0.234D+00
 Coeff-Com:  0.518D+00 0.392D+00
 Coeff:     -0.336D-02-0.421D-03 0.105D-01 0.115D-01-0.203D-01-0.309D-01
 Coeff:      0.357D-02 0.557D-01 0.405D-01-0.490D-01-0.709D-01 0.307D-01
 Coeff:      0.601D-01-0.201D-01 0.156D-01-0.229D+00 0.517D-01 0.234D+00
 Coeff:      0.518D+00 0.392D+00
 Gap=     0.109 Goal=   None    Shift=    0.000
 Gap=     0.078 Goal=   None    Shift=    0.000
 RMSDP=2.25D-07 MaxDP=1.52D-05 DE=-7.41D-09 OVMax= 7.09D-05

 Cycle  40  Pass 1  IDiag  1:
 RMSU=  8.00D-08    CP:  1.00D+00  3.00D+00  3.00D+00  3.00D+00  3.00D+00
                    CP:  3.00D+00  3.00D+00  3.00D+00  3.00D+00  3.00D+00
                    CP:  3.00D+00  3.00D+00  3.00D+00  2.50D+00  2.06D+00
                    CP:  1.99D+00  1.14D+00  6.25D-01  1.07D+00
 E= -3844.97138879826     Delta-E=       -0.000000001194 Rises=F Damp=F
 DIIS: error= 1.93D-06 at cycle  40 NSaved=  20.
 NSaved=20 IEnMin=20 EnMin= -3844.97138879826     IErMin=18 ErrMin= 1.37D-06
 ErrMax= 1.93D-06  0.00D+00 EMaxC= 1.00D-01 BMatC= 1.55D-09 BMatP= 4.31D-09
 IDIUse=1 WtCom= 1.00D+00 WtEn= 0.00D+00
 Coeff-Com: -0.178D-02 0.271D-02 0.547D-02-0.683D-02-0.818D-02 0.106D-01
 Coeff-Com:  0.949D-02 0.154D-03-0.139D-01 0.555D-03 0.142D-01-0.200D-01
 Coeff-Com: -0.121D-01 0.648D-01-0.706D-01 0.430D-01-0.159D+00 0.167D+00
 Coeff-Com:  0.124D+00 0.850D+00
 Coeff:     -0.178D-02 0.271D-02 0.547D-02-0.683D-02-0.818D-02 0.106D-01
 Coeff:      0.949D-02 0.154D-03-0.139D-01 0.555D-03 0.142D-01-0.200D-01
 Coeff:     -0.121D-01 0.648D-01-0.706D-01 0.430D-01-0.159D+00 0.167D+00
 Coeff:      0.124D+00 0.850D+00
 Gap=     0.109 Goal=   None    Shift=    0.000
 Gap=     0.078 Goal=   None    Shift=    0.000
 RMSDP=9.28D-08 MaxDP=3.59D-06 DE=-1.19D-09 OVMax= 2.86D-05

 Cycle  41  Pass 1  IDiag  1:
 Restarting incremental Fock formation.
 E= -3844.97138879877     Delta-E=       -0.000000000506 Rises=F Damp=F
 DIIS: error= 1.20D-06 at cycle  41 NSaved=  20.
 NSaved=20 IEnMin=20 EnMin= -3844.97138879877     IErMin=20 ErrMin= 1.20D-06
 ErrMax= 1.20D-06  0.00D+00 EMaxC= 1.00D-01 BMatC= 8.71D-10 BMatP= 1.55D-09
 IDIUse=1 WtCom= 1.00D+00 WtEn= 0.00D+00
 Coeff-Com:  0.111D-03 0.241D-02 0.111D-03-0.554D-02-0.211D-02 0.820D-02
 Coeff-Com:  0.989D-02-0.169D-02-0.123D-01-0.608D-02 0.248D-03-0.183D-02
 Coeff-Com:  0.558D-01-0.723D-01 0.447D-01-0.122D+00 0.890D-01-0.159D-01
 Coeff-Com:  0.525D+00 0.504D+00
 Coeff:      0.111D-03 0.241D-02 0.111D-03-0.554D-02-0.211D-02 0.820D-02
 Coeff:      0.989D-02-0.169D-02-0.123D-01-0.608D-02 0.248D-03-0.183D-02
 Coeff:      0.558D-01-0.723D-01 0.447D-01-0.122D+00 0.890D-01-0.159D-01
 Coeff:      0.525D+00 0.504D+00
 Gap=     0.109 Goal=   None    Shift=    0.000
 Gap=     0.078 Goal=   None    Shift=    0.000
 RMSDP=8.97D-08 MaxDP=4.71D-06 DE=-5.06D-10 OVMax= 3.97D-05

 Cycle  42  Pass 1  IDiag  1:
 RMSU=  8.97D-08    CP:  1.00D+00
 E= -3844.97138879899     Delta-E=       -0.000000000224 Rises=F Damp=F
 DIIS: error= 1.22D-06 at cycle  42 NSaved=  20.
 NSaved=20 IEnMin=20 EnMin= -3844.97138879899     IErMin=19 ErrMin= 1.20D-06
 ErrMax= 1.22D-06  0.00D+00 EMaxC= 1.00D-01 BMatC= 7.64D-10 BMatP= 8.71D-10
 IDIUse=1 WtCom= 1.00D+00 WtEn= 0.00D+00
 Coeff-Com:  0.296D-03 0.312D-03 0.131D-02 0.293D-02-0.290D-02-0.509D-02
 Coeff-Com:  0.135D-02 0.169D-01-0.248D-02-0.257D-01-0.145D-01 0.419D-01
 Coeff-Com: -0.117D-01 0.478D-01-0.101D+00 0.136D-01-0.144D+00-0.129D+00
 Coeff-Com:  0.442D+00 0.869D+00
 Coeff:      0.296D-03 0.312D-03 0.131D-02 0.293D-02-0.290D-02-0.509D-02
 Coeff:      0.135D-02 0.169D-01-0.248D-02-0.257D-01-0.145D-01 0.419D-01
 Coeff:     -0.117D-01 0.478D-01-0.101D+00 0.136D-01-0.144D+00-0.129D+00
 Coeff:      0.442D+00 0.869D+00
 Gap=     0.109 Goal=   None    Shift=    0.000
 Gap=     0.078 Goal=   None    Shift=    0.000
 RMSDP=8.84D-08 MaxDP=3.47D-06 DE=-2.24D-10 OVMax= 3.19D-05

 Cycle  43  Pass 1  IDiag  1:
 RMSU=  6.74D-08    CP:  1.00D+00  1.64D+00
 E= -3844.97138879922     Delta-E=       -0.000000000226 Rises=F Damp=F
 DIIS: error= 8.98D-07 at cycle  43 NSaved=  20.
 NSaved=20 IEnMin=20 EnMin= -3844.97138879922     IErMin=20 ErrMin= 8.98D-07
 ErrMax= 8.98D-07  0.00D+00 EMaxC= 1.00D-01 BMatC= 3.28D-10 BMatP= 7.64D-10
 IDIUse=1 WtCom= 1.00D+00 WtEn= 0.00D+00
 Coeff-Com: -0.930D-03 0.207D-02 0.426D-02-0.400D-02-0.645D-02 0.758D-03
 Coeff-Com:  0.134D-01 0.152D-02-0.148D-01-0.156D-01 0.206D-01-0.325D-02
 Coeff-Com:  0.397D-01-0.435D-01 0.102D-01-0.114D+00-0.292D+00 0.175D+00
 Coeff-Com:  0.471D+00 0.756D+00
 Coeff:     -0.930D-03 0.207D-02 0.426D-02-0.400D-02-0.645D-02 0.758D-03
 Coeff:      0.134D-01 0.152D-02-0.148D-01-0.156D-01 0.206D-01-0.325D-02
[...]
     24  0.282805D-02  0.451209D-03 -0.130899D-02  0.265265D-02 -0.119997D-02
     25 -0.440053D-02  0.255360D-02  0.158751D-02 -0.516120D-03 -0.141555D-02
     26  0.978625D-02  0.112640D-02  0.250364D-02  0.145759D-02  0.198417D-02
     27  0.638411D-02  0.118173D-02  0.318411D-02  0.136270D-02 -0.149416D-02
     28  0.969717D-03  0.175557D-02  0.100876D-04  0.900051D-04  0.234198D-04
     29  0.613433D-03 -0.413763D-02  0.205637D-02  0.606438D-04 -0.100106D-04
     30 -0.472680D-03  0.758351D-02  0.294703D-03 -0.180692D-03  0.750063D-04
               21            22            23            24            25 
     21  0.107055D+00
     22 -0.780440D-03  0.747269D-01
     23 -0.649941D-03  0.535961D-01  0.437872D-01
     24  0.212412D-02 -0.419802D-01 -0.310929D-01  0.265620D-01
     25  0.503610D-02 -0.903436D-03 -0.686163D-03  0.605462D-03  0.518034D-01
     26 -0.689661D-02  0.117390D-02  0.114347D-02 -0.740176D-03 -0.560835D-01
     27 -0.146440D-02  0.690161D-03  0.449195D-03 -0.350083D-03 -0.366423D-01
     28  0.556912D-04  0.499437D-03  0.195240D-03 -0.159981D-03 -0.268932D-03
     29  0.163302D-03 -0.130532D-02 -0.837289D-03  0.742449D-03  0.888841D-03
     30 -0.577941D-03  0.160115D-02  0.108033D-02 -0.861101D-03 -0.126837D-02
               26            27            28            29            30 
     26  0.737825D-01
     27  0.444742D-01  0.324660D-01
     28  0.341945D-03  0.147476D-03  0.159520D-01
     29 -0.970457D-03 -0.578223D-03 -0.263204D-01  0.633063D-01
     30  0.145137D-02  0.115007D-02  0.347871D-01 -0.841377D-01  0.126082D+00
 FormGI is forming the generalized inverse of G from B-inverse, IUseBI=4.
 Leave Link  716 at Tue Mar 29 00:07:10 2016, MaxMem=   524288000 cpu:         0.3
 (Enter /opt/g09/l103.exe)

 GradGradGradGradGradGradGradGradGradGradGradGradGradGradGradGradGradGrad
 Berny optimization.
 Red2BG is reusing G-inverse.
 Internal  Forces:  Max     0.000002127 RMS     0.000000648
 Search for a local minimum.
 Step number   1 out of a maximum of    2
 All quantities printed in internal units (Hartrees-Bohrs-Radians)
 Second derivative matrix not updated -- analytic derivatives used.
 ITU=  0
     Eigenvalues ---    0.00833   0.00921   0.01214   0.01440   0.02042
     Eigenvalues ---    0.02290   0.02717   0.03427   0.04071   0.04793
     Eigenvalues ---    0.05783   0.06641   0.07667   0.08522   0.11538
     Eigenvalues ---    0.12581   0.13647   0.14395   0.16619   0.18226
     Eigenvalues ---    0.19562   0.20103   0.25490   0.37557
 Angle between quadratic step and forces=  41.56 degrees.
 Linear search not attempted -- first point.
 Iteration  1 RMS(Cart)=  0.00000520 RMS(Int)=  0.00000000
 Iteration  2 RMS(Cart)=  0.00000000 RMS(Int)=  0.00000000
 ITry= 1 IFail=0 DXMaxC= 1.88D-05 DCOld= 1.00D+10 DXMaxT= 2.56D+00 DXLimC= 3.00D+00 Rises=F
 Variable       Old X    -DE/DX   Delta X   Delta X   Delta X     New X
                                 (Linear)    (Quad)   (Total)
    R1        3.40658   0.00000   0.00000  -0.00001  -0.00001   3.40657
    R2        3.87732   0.00000   0.00000  -0.00002  -0.00002   3.87730
    R3        4.07159   0.00000   0.00000  -0.00001  -0.00001   4.07158
    R4        4.25824   0.00000   0.00000   0.00001   0.00001   4.25824
    R5        3.52712   0.00000   0.00000   0.00001   0.00001   3.52713
    R6        3.85555   0.00000   0.00000   0.00000   0.00000   3.85556
    R7        3.54682   0.00000   0.00000   0.00000   0.00000   3.54682
    R8        3.24838   0.00000   0.00000   0.00001   0.00001   3.24838
    R9        3.43603   0.00000   0.00000   0.00000   0.00000   3.43603
   R10        3.66896   0.00000   0.00000   0.00000   0.00000   3.66895
   R11        4.22493   0.00000   0.00000  -0.00001  -0.00001   4.22492
    A1        1.49091   0.00000   0.00000   0.00001   0.00001   1.49091
    A2        1.77560   0.00000   0.00000   0.00000   0.00000   1.77559
    A3        2.29484   0.00000   0.00000   0.00000   0.00000   2.29484
    A4        1.35539   0.00000   0.00000   0.00000   0.00000   1.35539
    A5        2.20434   0.00000   0.00000   0.00000   0.00000   2.20433
    A6        2.07519   0.00000   0.00000   0.00000   0.00000   2.07519
    A7        1.80722   0.00000   0.00000   0.00000   0.00000   1.80722
    A8        1.85970   0.00000   0.00000   0.00000   0.00000   1.85970
    A9        2.25420   0.00000   0.00000   0.00000   0.00000   2.25420
   A10        2.09045   0.00000   0.00000   0.00000   0.00000   2.09045
   A11        1.68909   0.00000   0.00000   0.00000   0.00000   1.68909
   A12        1.63512   0.00000   0.00000   0.00000   0.00000   1.63512
   A13        1.77254   0.00000   0.00000   0.00000   0.00000   1.77254
   A14        2.10983   0.00000   0.00000   0.00000   0.00000   2.10983
   A15        1.55474   0.00000   0.00000   0.00000   0.00000   1.55474
   A16        2.12107   0.00000   0.00000   0.00000   0.00000   2.12108
   A17        2.13945   0.00000   0.00000   0.00000   0.00000   2.13946
   A18        1.74208   0.00000   0.00000   0.00000   0.00000   1.74208
   A19        1.61574   0.00000   0.00000   0.00000   0.00000   1.61574
    D1        0.09073   0.00000   0.00000   0.00000   0.00000   0.09073
    D2       -1.24220   0.00000   0.00000   0.00000   0.00000  -1.24220
    D3        2.46819   0.00000   0.00000   0.00000   0.00000   2.46819
    D4       -1.67611   0.00000   0.00000   0.00000   0.00000  -1.67610
    D5        0.12304   0.00000   0.00000   0.00000   0.00000   0.12303
    D6        2.16408   0.00000   0.00000   0.00000   0.00000   2.16408
    D7        1.32794   0.00000   0.00000   0.00001   0.00001   1.32795
    D8       -0.11361   0.00000   0.00000   0.00000   0.00000  -0.11361
    D9       -2.29265   0.00000   0.00000   0.00001   0.00001  -2.29264
   D10        1.20651   0.00000   0.00000   0.00000   0.00000   1.20651
   D11       -2.36233   0.00000   0.00000   0.00001   0.00001  -2.36233
   D12       -1.27506   0.00000   0.00000   0.00001   0.00001  -1.27506
   D13        2.24573   0.00000   0.00000   0.00000   0.00000   2.24573
   D14       -0.10017   0.00000   0.00000   0.00000   0.00000  -0.10017
   D15        1.46738   0.00000   0.00000   0.00000   0.00000   1.46738
   D16       -2.37738   0.00000   0.00000   0.00000   0.00000  -2.37738
   D17        1.63848   0.00000   0.00000   0.00000   0.00000   1.63848
   D18       -0.13346   0.00000   0.00000   0.00000   0.00000  -0.13345
   D19       -2.37554   0.00000   0.00000   0.00000   0.00000  -2.37554
   D20       -1.50786   0.00000   0.00000  -0.00001  -0.00001  -1.50786
   D21        0.12531   0.00000   0.00000   0.00000   0.00000   0.12531
   D22        2.35268   0.00000   0.00000   0.00000   0.00000   2.35268
         Item               Value     Threshold  Converged?
 Maximum Force            0.000002     0.000015     YES
 RMS     Force            0.000001     0.000010     YES
 Maximum Displacement     0.000019     0.000060     YES
 RMS     Displacement     0.000005     0.000040     YES
 Predicted change in Energy=-6.666933D-11
 Optimization completed.
    -- Stationary point found.
                           ----------------------------
                           !   Optimized Parameters   !
                           ! (Angstroms and Degrees)  !
 --------------------------                            --------------------------
 ! Name  Definition              Value          Derivative Info.                !
 --------------------------------------------------------------------------------
 ! R1    R(1,2)                  1.8027         -DE/DX =    0.0                 !
 ! R2    R(1,6)                  2.0518         -DE/DX =    0.0                 !
 ! R3    R(1,7)                  2.1546         -DE/DX =    0.0                 !
 ! R4    R(1,8)                  2.2534         -DE/DX =    0.0                 !
 ! R5    R(2,3)                  1.8665         -DE/DX =    0.0                 !
 ! R6    R(3,4)                  2.0403         -DE/DX =    0.0                 !
 ! R7    R(3,10)                 1.8769         -DE/DX =    0.0                 !
 ! R8    R(4,5)                  1.719          -DE/DX =    0.0                 !
 ! R9    R(5,6)                  1.8183         -DE/DX =    0.0                 !
 ! R10   R(5,7)                  1.9415         -DE/DX =    0.0                 !
 ! R11   R(5,9)                  2.2357         -DE/DX =    0.0                 !
 ! A1    A(2,1,6)               85.4226         -DE/DX =    0.0                 !
 ! A2    A(2,1,7)              101.7342         -DE/DX =    0.0                 !
 ! A3    A(2,1,8)              131.4849         -DE/DX =    0.0                 !
 ! A4    A(6,1,7)               77.6581         -DE/DX =    0.0                 !
 ! A5    A(6,1,8)              126.2991         -DE/DX =    0.0                 !
 ! A6    A(7,1,8)              118.8994         -DE/DX =    0.0                 !
 ! A7    A(1,2,3)              103.5461         -DE/DX =    0.0                 !
 ! A8    A(2,3,4)              106.5532         -DE/DX =    0.0                 !
 ! A9    A(2,3,10)             129.1562         -DE/DX =    0.0                 !
 ! A10   A(4,3,10)             119.7737         -DE/DX =    0.0                 !
 ! A11   A(3,4,5)               96.778          -DE/DX =    0.0                 !
 ! A12   A(4,5,6)               93.6854         -DE/DX =    0.0                 !
 ! A13   A(4,5,7)              101.5592         -DE/DX =    0.0                 !
 ! A14   A(4,5,9)              120.8844         -DE/DX =    0.0                 !
 ! A15   A(6,5,7)               89.0801         -DE/DX =    0.0                 !
 ! A16   A(6,5,9)              121.5285         -DE/DX =    0.0                 !
 ! A17   A(7,5,9)              122.5817         -DE/DX =    0.0                 !
 ! A18   A(1,6,5)               99.8137         -DE/DX =    0.0                 !
 ! A19   A(1,7,5)               92.5752         -DE/DX =    0.0                 !
 ! D1    D(6,1,2,3)              5.1982         -DE/DX =    0.0                 !
 ! D2    D(7,1,2,3)            -71.1727         -DE/DX =    0.0                 !
 ! D3    D(8,1,2,3)            141.4168         -DE/DX =    0.0                 !
 ! D4    D(2,1,6,5)            -96.0338         -DE/DX =    0.0                 !
 ! D5    D(7,1,6,5)              7.0494         -DE/DX =    0.0                 !
 ! D6    D(8,1,6,5)            123.9925         -DE/DX =    0.0                 !
 ! D7    D(2,1,7,5)             76.0854         -DE/DX =    0.0                 !
 ! D8    D(6,1,7,5)             -6.5094         -DE/DX =    0.0                 !
 ! D9    D(8,1,7,5)           -131.3591         -DE/DX =    0.0                 !
 ! D10   D(1,2,3,4)             69.1278         -DE/DX =    0.0                 !
 ! D11   D(1,2,3,10)          -135.3518         -DE/DX =    0.0                 !
 ! D12   D(2,3,4,5)            -73.0558         -DE/DX =    0.0                 !
 ! D13   D(10,3,4,5)           128.6708         -DE/DX =    0.0                 !
 ! D14   D(3,4,5,6)             -5.7393         -DE/DX =    0.0                 !
 ! D15   D(3,4,5,7)             84.0747         -DE/DX =    0.0                 !
 ! D16   D(3,4,5,9)           -136.2138         -DE/DX =    0.0                 !
 ! D17   D(4,5,6,1)             93.8779         -DE/DX =    0.0                 !
 ! D18   D(7,5,6,1)             -7.6466         -DE/DX =    0.0                 !
 ! D19   D(9,5,6,1)           -136.1085         -DE/DX =    0.0                 !
 ! D20   D(4,5,7,1)            -86.3939         -DE/DX =    0.0                 !
 ! D21   D(6,5,7,1)              7.1799         -DE/DX =    0.0                 !
 ! D22   D(9,5,7,1)            134.7988         -DE/DX =    0.0                 !
 --------------------------------------------------------------------------------
 GradGradGradGradGradGradGradGradGradGradGradGradGradGradGradGradGradGrad

 Leave Link  103 at Tue Mar 29 00:07:10 2016, MaxMem=   524288000 cpu:         0.1
 (Enter /opt/g09/l9999.exe)
 1\1\GINC-PICASSO\Freq\UB971\6-311+G(d,p)\Cl2O5Ti3(5)\PB556\29-Mar-2016
 \0\\#P Geom=AllCheck Guess=TCheck SCRF=Check GenChk UB971/6-311+G(d,p)
  Freq\\./0_1_internal-fine-trimer-i-19_spin-5.g09\\0,5\Ti,-0.32333,2.3
 8054,-1.20475\O,-0.41663,0.61155,-0.87061\Ti,-1.26421,0.52442,0.79003\
 O,-3.19217,1.12112,0.49065\Ti,-2.85634,2.7936,0.27881\O,-1.09305,2.610
 88,0.68319\O,-2.38557,2.8605,-1.60359\Cl,1.28993,3.63798,-2.1502\Cl,-4
 .12513,4.352,1.25865\O,-0.8348,-0.52429,2.28621\\Version=ES64L-G09RevD
 .01\HF=-3844.9713888\S2=6.017805\S2-1=0.\S2A=6.000117\RMSD=3.420e-09\R
 MSF=5.899e-06\ZeroPoint=0.0187383\Thermal=0.032103\Dipole=-0.2480602,-
 0.2614417,-0.2416643\DipoleDeriv=1.6948422,0.4628478,-0.7191229,0.6925
 486,2.0409751,-0.7364166,-0.6169532,-0.3379639,1.4679925,-0.7683895,-0
 .1596567,0.4459475,-0.2890645,-1.4361342,0.4656949,0.449059,0.4560485,
 -1.2597615,1.4017144,-0.2260412,-0.1174798,-0.2516032,1.830076,-0.5302
 18,-0.1610975,-0.9520204,2.1245802,-0.7655678,0.1473777,-0.1413033,0.1
 072534,-1.1285378,-0.2019643,-0.0128404,0.2014477,-0.4849417,2.1592342
 ,-0.5500734,-0.153046,-0.7451396,2.0013343,0.5834525,-0.1830987,0.3332
 62,1.0916405,-1.1787783,0.1008541,0.0935493,0.185049,-0.7917473,0.0518
 001,0.1656994,0.0142785,-0.7244814,-0.4871979,0.0298067,0.0796661,0.04
 06159,-0.257411,-0.0428544,-0.1199934,-0.1903774,-0.2602604,-0.9108472
 ,-0.397193,0.4315597,-0.3890666,-0.6421341,0.2956506,0.3235287,0.22306
 67,-0.590427,-0.7151434,0.4336296,0.2011391,0.5224633,-0.7837273,-0.26
 42376,0.3138408,-0.3225851,-0.4688875,-0.4298668,0.1584484,-0.1209097,
 0.1269436,-0.8326939,0.3790927,-0.1581447,0.5748433,-0.8954536\Polar=1
 48.4403745,-9.3643152,145.7686387,-34.3039534,-22.8313631,130.0651679\
 PG=C01 [X(Cl2O5Ti3)]\NImag=0\\0.17637341,0.04717584,0.26396813,-0.0777
 2472,-0.07791213,0.13609719,-0.02240083,0.00639375,0.01005836,0.058147
 10,0.00221042,-0.18336609,0.02779832,-0.01680323,0.22115313,0.00559437
 ,0.00461857,-0.02454330,-0.06588537,0.00681156,0.13922535,0.00602065,-
 0.03436056,0.01181758,-0.04450854,0.02025382,0.04260143,0.14155710,-0.
 01997172,-0.00887507,0.02543216,0.01080328,-0.02628637,-0.00162079,-0.
 05252235,0.17393644,0.01538302,0.06037304,-0.02064696,0.04625742,-0.02
 020448,-0.10910471,-0.01159048,-0.11271803,0.28305765,-0.00287057,0.01
 019481,-0.00494654,-0.00776321,-0.00963980,0.01705584,-0.06119948,0.01
 022649,-0.01483320,0.12498880,-0.00387958,-0.01308671,-0.00400108,0.00
 989138,0.01118549,-0.00838883,-0.01250139,-0.01671621,0.00318675,0.061
 86778,0.27070486,-0.00216859,-0.00097475,-0.00013034,0.00291581,-0.002
 32012,0.00582275,-0.00405151,0.00665339,-0.01844328,-0.00363986,-0.037
 02137,0.02665373,-0.02049520,0.00961722,0.03685247,-0.00306059,-0.0111
 5747,0.00055743,0.00842405,0.04384137,-0.01005231,-0.05029387,-0.02041
 858,0.00954827,0.30437776,0.01557791,0.01789589,-0.00367659,-0.0102898
 9,-0.00833391,0.00575292,0.04425723,-0.02754504,0.01032588,-0.04810647
 ,-0.25948868,0.03497651,-0.07704973,0.39961899,0.01209474,-0.00515669,
 0.00688654,0.00251745,0.00283862,-0.00605787,0.00601392,0.00362862,0.0
 0927130,-0.00240955,0.01719195,-0.02980516,-0.02913514,0.02773053,0.17
 312197,-0.01671311,-0.00192416,-0.00271542,0.00960278,0.01918949,0.002
 43727,-0.03052036,-0.01706972,0.00631130,-0.00706396,-0.03793275,0.002
 45956,-0.16478922,0.02226032,-0.03768969,0.20626403,0.00194834,-0.0283
 2433,0.00157111,0.00873670,-0.00488324,-0.02497095,-0.00033767,-0.0339
 8793,-0.00526837,-0.02582216,0.01647010,-0.00764550,0.00447600,-0.0437
 5294,0.00128927,0.00718575,0.09222955,0.01454854,-0.00125904,-0.058978
 40,-0.00091074,-0.02881363,0.00935621,0.00510813,0.00054191,-0.0291391
 3,0.00241689,0.00159569,0.01027141,-0.04847240,-0.00421765,-0.03677609
 ,0.03601055,0.01973093,0.11808403,-0.04645280,0.00180827,-0.00802305,0
 .00362385,0.01195776,-0.00616662,-0.00111280,0.00010027,0.00440004,0.0
 0040543,-0.01000421,0.00056786,-0.02482427,0.01179822,0.01350956,0.009
 59909,-0.00153986,-0.01453071,0.06221414,0.00516898,-0.00843703,0.0037
 3657,0.00155835,-0.00335715,0.00209546,0.00206639,0.00067243,-0.001793
 87,-0.00250216,-0.00239852,0.00518764,0.00597317,-0.00937794,-0.005364
 02,0.00095878,0.00301838,0.00452589,-0.01186397,0.01588609,-0.00462344
 ,0.00087374,-0.01531891,-0.00181588,0.00352482,-0.00042929,-0.01038150
 ,0.00107504,0.00165273,0.01445278,0.03394899,0.00227956,0.00720149,-0.
 03234786,-0.08033296,-0.01555306,0.00607706,-0.01498785,0.00640826,-0.
 00576854,0.10705495,-0.07439191,-0.03936938,0.03715287,0.00119115,-0.0
 1553711,0.00553579,0.00210078,0.00213469,-0.00630647,-0.00115591,0.000
 21045,0.00016986,0.00390791,-0.00197960,-0.00031490,-0.00294844,0.0010
 4372,0.00423213,-0.00302654,0.00003257,-0.00078044,0.07472695,-0.04770
 062,-0.04056800,0.02671939,-0.00276178,-0.00684480,0.00479214,0.002675
 65,0.00120679,-0.00452597,-0.00129868,0.00025615,0.00003676,0.00282240
 ,-0.00240470,-0.00014491,-0.00306741,0.00224164,0.00333590,-0.00377472
 ,0.00201957,-0.00064994,0.05359608,0.04378717,0.04011709,0.02354910,-0
 .02760121,-0.00003495,0.00847661,-0.00183115,-0.00170457,-0.00149192,0
 .00319573,0.00087381,0.00023182,-0.00006263,-0.00319740,0.00107376,0.0
 0013327,0.00282805,0.00045121,-0.00130899,0.00265265,-0.00119997,0.002
 12412,-0.04198016,-0.03109289,0.02656205,0.00180053,0.00115430,-0.0024
 1127,-0.00084972,0.00014427,0.00133057,0.00204815,-0.00228266,0.001011
 13,0.00483627,0.01074897,-0.00476765,-0.05354963,0.04497787,0.03551882
 ,-0.00440053,0.00255360,0.00158751,-0.00051612,-0.00141555,0.00503610,
 -0.00090344,-0.00068616,0.00060546,0.05180342,-0.00263587,-0.00245001,
 0.00261911,0.00114968,0.00004418,-0.00139211,-0.00198509,0.00247205,-0
 .00123700,0.00057430,-0.00879444,0.00027187,0.04622077,-0.06833783,-0.
 04105434,0.00978625,0.00112640,0.00250364,0.00145759,0.00198417,-0.006
 89661,0.00117390,0.00114347,-0.00074018,-0.05608348,0.07378247,-0.0011
 0955,-0.00018729,0.00119036,0.00038130,-0.00024661,-0.00047910,-0.0014
 7552,0.00153329,-0.00169940,-0.00284806,-0.00782968,0.00352550,0.03310
 968,-0.03730251,-0.03752302,0.00638411,0.00118173,0.00318411,0.0013627
 0,-0.00149416,-0.00146440,0.00069016,0.00044920,-0.00035008,-0.0366423
 1,0.04447425,0.03246597,-0.00087017,-0.00069008,-0.00006028,0.00601800
 ,-0.00061815,-0.00306071,-0.02280956,0.02474035,-0.03058045,0.00011649
 ,0.00201793,-0.00103376,0.00030306,-0.00144585,-0.00010520,0.00096972,
 0.00175557,0.00001009,0.00009001,0.00002342,0.00005569,0.00049944,0.00
 019524,-0.00015998,-0.00026893,0.00034194,0.00014748,0.01595196,0.0021
 0630,0.00324323,-0.00228686,-0.00867823,0.00068876,0.01230204,0.032453
 98,-0.06487709,0.07186205,0.00450589,0.00186797,0.00083556,-0.00432516
 ,0.00172617,-0.00095902,0.00061343,-0.00413763,0.00205637,0.00006064,-
 0.00001001,0.00016330,-0.00130532,-0.00083729,0.00074245,0.00088884,-0
 .00097046,-0.00057822,-0.02632038,0.06330633,-0.00211146,-0.00392456,0
 .00304504,0.00651659,0.00213492,-0.01195889,-0.03633748,0.07696633,-0.
 11814394,-0.00612211,0.00108576,-0.00011154,0.00358791,-0.00231499,0.0
 0108204,-0.00047268,0.00758351,0.00029470,-0.00018069,0.00007501,-0.00
 057794,0.00160115,0.00108033,-0.00086110,-0.00126837,0.00145137,0.0011
 5007,0.03478714,-0.08413767,0.12608156\\0.00000115,0.00000339,-0.00000
 136,-0.00000623,-0.00000182,-0.00000567,-0.00000323,-0.00000346,-0.000
 00861,-0.00000118,0.00000455,-0.00000236,0.00000332,0.00000012,0.00000
 445,0.00000151,-0.00000506,0.00000413,-0.00000010,0.00001035,0.0000041
 5,0.00000242,0.00000080,0.00000432,0.00000801,0.00000324,0.00001374,-0
 .00000567,-0.00001211,-0.00001279\\\@


 ERROR IS THE FORCE THAT WELDS MEN TOGETHER....
 TRUTH IS COMMUNICATED TO MEN ONLY BY DEEDS OF TRUTH.
           TOLSTOI,MY RELIGION
 Job cpu time:       0 days  4 hours 26 minutes 20.9 seconds.
 File lengths (MBytes):  RWF=    302 Int=      0 D2E=      0 Chk=     12 Scr=      1
 Normal termination of Gaussian 09 at Tue Mar 29 00:07:11 2016.
