 Entering Gaussian System, Link 0=g09
 Input=0_0freq-ClO4_2let.gau
 Output=0_0freq-ClO4_2let.log
 Initial command:
 /opt/g09/l1.exe "/scratch/pb556/g09_run/ti_runs//Gau-16084.inp" -scrdir="/scratch/pb556/g09_run/ti_runs//"
 Entering Link 1 = /opt/g09/l1.exe PID=     16085.
  
 Copyright (c) 1988,1990,1992,1993,1995,1998,2003,2009,2013,
            Gaussian, Inc.  All Rights Reserved.
  
 This is part of the Gaussian(R) 09 program.  It is based on
 the Gaussian(R) 03 system (copyright 2003, Gaussian, Inc.),
 the Gaussian(R) 98 system (copyright 1998, Gaussian, Inc.),
 the Gaussian(R) 94 system (copyright 1995, Gaussian, Inc.),
 the Gaussian 92(TM) system (copyright 1992, Gaussian, Inc.),
 the Gaussian 90(TM) system (copyright 1990, Gaussian, Inc.),
 the Gaussian 88(TM) system (copyright 1988, Gaussian, Inc.),
 the Gaussian 86(TM) system (copyright 1986, Carnegie Mellon
 University), and the Gaussian 82(TM) system (copyright 1983,
 Carnegie Mellon University). Gaussian is a federally registered
 trademark of Gaussian, Inc.
  
 This software contains proprietary and confidential information,
 including trade secrets, belonging to Gaussian, Inc.
  
 This software is provided under written license and may be
 used, copied, transmitted, or stored only in accord with that
 written license.
  
 The following legend is applicable only to US Government
 contracts under FAR:
  
                    RESTRICTED RIGHTS LEGEND
  
 Use, reproduction and disclosure by the US Government is
 subject to restrictions as set forth in subparagraphs (a)
 and (c) of the Commercial Computer Software - Restricted
 Rights clause in FAR 52.227-19.
  
 Gaussian, Inc.
 340 Quinnipiac St., Bldg. 40, Wallingford CT 06492
  
  
 ---------------------------------------------------------------
 Warning -- This program may not be used in any manner that
 competes with the business of Gaussian, Inc. or will provide
 assistance to any competitor of Gaussian, Inc.  The licensee
 of this program is prohibited from giving any competitor of
 Gaussian, Inc. access to this program.  By using this program,
 the user acknowledges that Gaussian, Inc. is engaged in the
 business of creating and licensing software in the field of
 computational chemistry and represents and warrants to the
 licensee that it is not a competitor of Gaussian, Inc. and that
 it will not use this program in any manner prohibited above.
 ---------------------------------------------------------------
  

 Cite this work as:
 Gaussian 09, Revision D.01,
 M. J. Frisch, G. W. Trucks, H. B. Schlegel, G. E. Scuseria, 
 M. A. Robb, J. R. Cheeseman, G. Scalmani, V. Barone, B. Mennucci, 
 G. A. Petersson, H. Nakatsuji, M. Caricato, X. Li, H. P. Hratchian, 
 A. F. Izmaylov, J. Bloino, G. Zheng, J. L. Sonnenberg, M. Hada, 
 M. Ehara, K. Toyota, R. Fukuda, J. Hasegawa, M. Ishida, T. Nakajima, 
 Y. Honda, O. Kitao, H. Nakai, T. Vreven, J. A. Montgomery, Jr., 
 J. E. Peralta, F. Ogliaro, M. Bearpark, J. J. Heyd, E. Brothers, 
 K. N. Kudin, V. N. Staroverov, T. Keith, R. Kobayashi, J. Normand, 
 K. Raghavachari, A. Rendell, J. C. Burant, S. S. Iyengar, J. Tomasi, 
 M. Cossi, N. Rega, J. M. Millam, M. Klene, J. E. Knox, J. B. Cross, 
 V. Bakken, C. Adamo, J. Jaramillo, R. Gomperts, R. E. Stratmann, 
 O. Yazyev, A. J. Austin, R. Cammi, C. Pomelli, J. W. Ochterski, 
 R. L. Martin, K. Morokuma, V. G. Zakrzewski, G. A. Voth, 
 P. Salvador, J. J. Dannenberg, S. Dapprich, A. D. Daniels, 
 O. Farkas, J. B. Foresman, J. V. Ortiz, J. Cioslowski, 
 and D. J. Fox, Gaussian, Inc., Wallingford CT, 2013.
 
 ******************************************
 Gaussian 09:  ES64L-G09RevD.01 24-Apr-2013
                21-Oct-2015 
 ******************************************
 %NProcShared=8
 Will use up to    8 processors via shared memory.
 %Mem=500MW
 ----------------------------------------------------------------------
 #p uB971/6-311+G(d,p) Opt=(Tight, CalcAll, MaxCycles=512, MaxStep=256)
  Freq GFInput Population=None Integral(Grid=UltraFine) SCF=XQC Guess=M
 IX NoSymmetry
 ----------------------------------------------------------------------
 1/6=512,7=10,8=256,10=4,14=-1,18=20,19=15,26=4,38=1/1,3;
 2/9=110,12=2,15=1,17=6,18=5,40=1/2;
 3/5=4,6=6,7=111,11=2,16=1,24=10,25=1,30=1,71=2,74=-20,75=-5,116=2,140=1/1,2,3;
 4/13=-1/1;
 5/5=2,8=3,13=1,38=5/2,8;
 8/6=4,10=90,11=11/1;
 11/6=1,8=1,9=11,15=111,16=1,31=1/1,2,10;
 10/6=1,31=1/2;
 7/10=1,25=1,30=1/1,2,3,16;
 1/6=512,7=10,8=256,10=4,14=-1,18=20,19=15,26=4/3(3);
 2/9=110,15=1/2;
 7/8=1,9=1,25=1,30=1,44=-1/16;
 99//99;
 2/9=110,15=1/2;
 3/5=4,6=6,7=111,11=2,16=1,25=1,30=1,71=2,74=-20,75=-5,116=2,140=1/1,2,3;
 4/5=5,16=3,69=1/1;
 5/5=2,8=3,13=1,38=5/2,8;
 8/6=4,10=90,11=11/1;
 11/6=1,8=1,9=11,15=111,16=1,31=1/1,2,10;
 10/6=1,31=1/2;
 7/10=1,25=1,30=1/1,2,3,16;
 1/6=512,7=10,8=256,10=4,14=-1,18=20,19=15,26=4/3(-8);
 2/9=110,15=1/2;
 7/8=1,9=1,25=1,30=1,44=-1/16;
 99//99;
 Leave Link    1 at Wed Oct 21 18:36:35 2015, MaxMem=   524288000 cpu:         0.6
 (Enter /opt/g09/l101.exe)
 ----------------------------------------------------------------------
 C:\Users\pb556\workspace\ticl_thermo\data\dHf_reference_species\esc\0_
 0fine-ClO4_2let.g09
 ----------------------------------------------------------------------
 Symbolic Z-matrix:
 Charge =  0 Multiplicity = 2
 Cl                   -0.10292   0.70338   0.08481 
 O                    -0.55334  -0.63834   0.39083 
 O                    -0.41351   1.09501  -1.36497 
 O                    -0.5528    1.70882   1.02472 
 O                     1.41369   0.76223  -0.13449 
 
 NAtoms=      5 NQM=        5 NQMF=       0 NMMI=      0 NMMIF=      0
                NMic=       0 NMicF=      0.
                    Isotopes and Nuclear Properties:
 (Nuclear quadrupole moments (NQMom) in fm**2, nuclear magnetic moments (NMagM)
  in nuclear magnetons)

  Atom         1           2           3           4           5
 IAtWgt=          35          16          16          16          16
 AtmWgt=  34.9688527  15.9949146  15.9949146  15.9949146  15.9949146
 NucSpn=           3           0           0           0           0
 AtZEff=   0.0000000   0.0000000   0.0000000   0.0000000   0.0000000
 NQMom=   -8.1650000   0.0000000   0.0000000   0.0000000   0.0000000
 NMagM=    0.8218740   0.0000000   0.0000000   0.0000000   0.0000000
 AtZNuc=  17.0000000   8.0000000   8.0000000   8.0000000   8.0000000
 Leave Link  101 at Wed Oct 21 18:36:35 2015, MaxMem=   524288000 cpu:         1.3
 (Enter /opt/g09/l103.exe)

 GradGradGradGradGradGradGradGradGradGradGradGradGradGradGradGradGradGrad
 Berny optimization.
 Initialization pass.
                           ----------------------------
                           !    Initial Parameters    !
                           ! (Angstroms and Degrees)  !
 --------------------------                            --------------------------
 ! Name  Definition              Value          Derivative Info.                !
 --------------------------------------------------------------------------------
 ! R1    R(1,2)                  1.448          calculate D2E/DX2 analytically  !
 ! R2    R(1,3)                  1.5335         calculate D2E/DX2 analytically  !
 ! R3    R(1,4)                  1.448          calculate D2E/DX2 analytically  !
 ! R4    R(1,5)                  1.5335         calculate D2E/DX2 analytically  !
 ! A1    A(2,1,3)              111.9273         calculate D2E/DX2 analytically  !
 ! A2    A(2,1,4)              114.1776         calculate D2E/DX2 analytically  !
 ! A3    A(2,1,5)              111.9263         calculate D2E/DX2 analytically  !
 ! A4    A(3,1,4)              111.9259         calculate D2E/DX2 analytically  !
 ! A5    A(3,1,5)               93.1704         calculate D2E/DX2 analytically  !
 ! A6    A(4,1,5)              111.9281         calculate D2E/DX2 analytically  !
 ! D1    D(2,1,4,3)           -128.4598         calculate D2E/DX2 analytically  !
 ! D2    D(2,1,5,3)            115.1798         calculate D2E/DX2 analytically  !
 ! D3    D(2,1,5,4)           -129.6414         calculate D2E/DX2 analytically  !
 ! D4    D(3,1,5,4)            115.1788         calculate D2E/DX2 analytically  !
 --------------------------------------------------------------------------------
 Trust Radius=2.56D+00 FncErr=1.00D-07 GrdErr=1.00D-06
 Number of steps in this run=    100 maximum allowed number of steps=    100.
 GradGradGradGradGradGradGradGradGradGradGradGradGradGradGradGradGradGrad

 Leave Link  103 at Wed Oct 21 18:36:36 2015, MaxMem=   524288000 cpu:         0.1
 (Enter /opt/g09/l202.exe)
                          Input orientation:                          
 ---------------------------------------------------------------------
 Center     Atomic      Atomic             Coordinates (Angstroms)
 Number     Number       Type             X           Y           Z
 ---------------------------------------------------------------------
      1         17           0       -0.102920    0.703380    0.084810
      2          8           0       -0.553340   -0.638340    0.390830
      3          8           0       -0.413510    1.095010   -1.364970
      4          8           0       -0.552800    1.708820    1.024720
      5          8           0        1.413690    0.762230   -0.134490
 ---------------------------------------------------------------------
                    Distance matrix (angstroms):
                    1          2          3          4          5
     1  Cl   0.000000
     2  O    1.448012   0.000000
     3  O    1.533526   2.471212   0.000000
     4  O    1.448010   2.431250   2.471191   0.000000
     5  O    1.533513   2.471187   2.227888   2.471211   0.000000
 Symmetry turned off by external request.
 Stoichiometry    ClO4(2)
 Framework group  C1[X(ClO4)]
 Deg. of freedom     9
 Full point group                 C1      NOp   1
 Rotational constants (GHZ):      5.8110894      5.3596663      4.9609928
 Leave Link  202 at Wed Oct 21 18:36:36 2015, MaxMem=   524288000 cpu:         0.1
 (Enter /opt/g09/l301.exe)
 Standard basis: 6-311+G(d,p) (5D, 7F)
 Ernie: Thresh=  0.10000D-02 Tol=  0.10000D-05 Strict=F.
 AO basis set in the form of general basis input (Overlap normalization):
      1 0
 S   6 1.00       0.000000000000
      0.1058190000D+06  0.7380002465D-03
      0.1587200000D+05  0.5718001910D-02
      0.3619650000D+04  0.2949500985D-01
      0.1030800000D+04  0.1172860392D+00
      0.3399080000D+03  0.3629491212D+00
      0.1245380000D+03  0.5841491951D+00
 S   3 1.00       0.000000000000
      0.1245380000D+03  0.1341769734D+00
      0.4951350000D+02  0.6242498762D+00
      0.2080560000D+02  0.2917559421D+00
 S   1 1.00       0.000000000000
      0.6583460000D+01  0.1000000000D+01
 S   1 1.00       0.000000000000
      0.2564680000D+01  0.1000000000D+01
 S   1 1.00       0.000000000000
      0.5597630000D+00  0.1000000000D+01
 S   1 1.00       0.000000000000
      0.1832730000D+00  0.1000000000D+01
 SP   1 1.00       0.000000000000
      0.4830000000D-01  0.1000000000D+01  0.1000000000D+01
 P   5 1.00       0.000000000000
      0.5897760000D+03  0.3665569355D-02
      0.1398490000D+03  0.2836791942D-01
      0.4514130000D+02  0.1247566028D+00
      0.1687330000D+02  0.3396546305D+00
      0.2771520000D+01  0.7475859630D+00
 P   2 1.00       0.000000000000
      0.6741100000D+01 -0.1572243813D+01
      0.2771520000D+01  0.9923888817D+00
 P   1 1.00       0.000000000000
      0.1023870000D+01  0.1000000000D+01
 P   1 1.00       0.000000000000
      0.3813680000D+00  0.1000000000D+01
 P   1 1.00       0.000000000000
      0.1094370000D+00  0.1000000000D+01
 D   1 1.00       0.000000000000
      0.7500000000D+00  0.1000000000D+01
 ****
      2 0
 S   6 1.00       0.000000000000
      0.8588500000D+04  0.1895150083D-02
      0.1297230000D+04  0.1438590063D-01
      0.2992960000D+03  0.7073200310D-01
      0.8737710000D+02  0.2400010105D+00
      0.2567890000D+02  0.5947970261D+00
      0.3740040000D+01  0.2808020123D+00
 SP   3 1.00       0.000000000000
      0.4211750000D+02  0.1138890124D+00  0.3651139738D-01
      0.9628370000D+01  0.9208111006D+00  0.2371529830D+00
      0.2853320000D+01 -0.3274470358D-02  0.8197019412D+00
 SP   1 1.00       0.000000000000
      0.9056610000D+00  0.1000000000D+01  0.1000000000D+01
 SP   1 1.00       0.000000000000
      0.2556110000D+00  0.1000000000D+01  0.1000000000D+01
 SP   1 1.00       0.000000000000
      0.8450000000D-01  0.1000000000D+01  0.1000000000D+01
 D   1 1.00       0.000000000000
      0.1292000000D+01  0.1000000000D+01
 ****
      3 0
 S   6 1.00       0.000000000000
      0.8588500000D+04  0.1895150083D-02
      0.1297230000D+04  0.1438590063D-01
      0.2992960000D+03  0.7073200310D-01
      0.8737710000D+02  0.2400010105D+00
      0.2567890000D+02  0.5947970261D+00
      0.3740040000D+01  0.2808020123D+00
 SP   3 1.00       0.000000000000
      0.4211750000D+02  0.1138890124D+00  0.3651139738D-01
      0.9628370000D+01  0.9208111006D+00  0.2371529830D+00
      0.2853320000D+01 -0.3274470358D-02  0.8197019412D+00
 SP   1 1.00       0.000000000000
      0.9056610000D+00  0.1000000000D+01  0.1000000000D+01
 SP   1 1.00       0.000000000000
      0.2556110000D+00  0.1000000000D+01  0.1000000000D+01
 SP   1 1.00       0.000000000000
      0.8450000000D-01  0.1000000000D+01  0.1000000000D+01
 D   1 1.00       0.000000000000
      0.1292000000D+01  0.1000000000D+01
 ****
      4 0
 S   6 1.00       0.000000000000
      0.8588500000D+04  0.1895150083D-02
      0.1297230000D+04  0.1438590063D-01
      0.2992960000D+03  0.7073200310D-01
      0.8737710000D+02  0.2400010105D+00
      0.2567890000D+02  0.5947970261D+00
      0.3740040000D+01  0.2808020123D+00
 SP   3 1.00       0.000000000000
      0.4211750000D+02  0.1138890124D+00  0.3651139738D-01
      0.9628370000D+01  0.9208111006D+00  0.2371529830D+00
      0.2853320000D+01 -0.3274470358D-02  0.8197019412D+00
 SP   1 1.00       0.000000000000
      0.9056610000D+00  0.1000000000D+01  0.1000000000D+01
 SP   1 1.00       0.000000000000
      0.2556110000D+00  0.1000000000D+01  0.1000000000D+01
 SP   1 1.00       0.000000000000
      0.8450000000D-01  0.1000000000D+01  0.1000000000D+01
 D   1 1.00       0.000000000000
      0.1292000000D+01  0.1000000000D+01
 ****
      5 0
 S   6 1.00       0.000000000000
      0.8588500000D+04  0.1895150083D-02
      0.1297230000D+04  0.1438590063D-01
      0.2992960000D+03  0.7073200310D-01
      0.8737710000D+02  0.2400010105D+00
      0.2567890000D+02  0.5947970261D+00
      0.3740040000D+01  0.2808020123D+00
 SP   3 1.00       0.000000000000
      0.4211750000D+02  0.1138890124D+00  0.3651139738D-01
      0.9628370000D+01  0.9208111006D+00  0.2371529830D+00
      0.2853320000D+01 -0.3274470358D-02  0.8197019412D+00
 SP   1 1.00       0.000000000000
      0.9056610000D+00  0.1000000000D+01  0.1000000000D+01
 SP   1 1.00       0.000000000000
      0.2556110000D+00  0.1000000000D+01  0.1000000000D+01
 SP   1 1.00       0.000000000000
      0.8450000000D-01  0.1000000000D+01  0.1000000000D+01
 D   1 1.00       0.000000000000
      0.1292000000D+01  0.1000000000D+01
 ****

   118 basis functions,   197 primitive gaussians,   123 cartesian basis functions
    25 alpha electrons       24 beta electrons
       nuclear repulsion energy       277.2135656803 Hartrees.
 IExCor= 1614 DFT=T Ex+Corr=B971 ExCW=0 ScaHFX=  0.210000
 ScaDFX=  1.000000  1.000000  1.000000  1.000000 ScalE2=  1.000000  1.000000
 IRadAn=      5 IRanWt=     -1 IRanGd=            0 ICorTp=0 IEmpDi=  4
 NAtoms=    5 NActive=    5 NUniq=    5 SFac= 1.00D+00 NAtFMM=   60 NAOKFM=F Big=F
 Integral buffers will be    131072 words long.
 Raffenetti 2 integral format.
 Two-electron integral symmetry is turned off.
 Leave Link  301 at Wed Oct 21 18:36:36 2015, MaxMem=   524288000 cpu:         0.4
 (Enter /opt/g09/l302.exe)
 NPDir=0 NMtPBC=     1 NCelOv=     1 NCel=       1 NClECP=     1 NCelD=      1
         NCelK=      1 NCelE2=     1 NClLst=     1 CellRange=     0.0.
 One-electron integrals computed using PRISM.
 NBasis=   118 RedAO= T EigKep=  2.28D-03  NBF=   118
 NBsUse=   118 1.00D-06 EigRej= -1.00D+00 NBFU=   118
 Precomputing XC quadrature grid using
 IXCGrd= 4 IRadAn=           5 IRanWt=          -1 IRanGd=           0 AccXCQ= 0.00D+00.
 Generated NRdTot=       0 NPtTot=           0 NUsed=           0 NTot=          32
 NSgBfM=   123   123   123   123   123 MxSgAt=     5 MxSgA2=     5.
 Leave Link  302 at Wed Oct 21 18:36:36 2015, MaxMem=   524288000 cpu:         1.3
 (Enter /opt/g09/l303.exe)
 DipDrv:  MaxL=1.
 Leave Link  303 at Wed Oct 21 18:36:36 2015, MaxMem=   524288000 cpu:         0.2
 (Enter /opt/g09/l401.exe)
 ExpMin= 4.83D-02 ExpMax= 1.06D+05 ExpMxC= 3.62D+03 IAcc=3 IRadAn=         5 AccDes= 0.00D+00
 Harris functional with IExCor= 1614 and IRadAn=       5 diagonalized for initial guess.
 HarFok:  IExCor= 1614 AccDes= 0.00D+00 IRadAn=         5 IDoV= 1 UseB2=F ITyADJ=14
 ICtDFT=  3500011 ScaDFX=  1.000000  1.000000  1.000000  1.000000
 FoFCou: FMM=F IPFlag=           0 FMFlag=      100000 FMFlg1=           0
         NFxFlg=           0 DoJE=T BraDBF=F KetDBF=T FulRan=T
         wScrn=  0.000000 ICntrl=     500 IOpCl=  0 I1Cent=   200000004 NGrid=           0
         NMat0=    1 NMatS0=      1 NMatT0=    0 NMatD0=    1 NMtDS0=    0 NMtDT0=    0
 Symmetry not used in FoFCou.
 Harris En= -748.249001556334    
 JPrj=0 DoOrth=F DoCkMO=T.
 Mixing orbitals, IMix= 1 IMixAn=  0 NRI=1 NE=   25 Coef=  7.07106781D-01  7.07106781D-01
 Mixing orbitals, IMix= 1 IMixAn=  0 NRI=1 NE=   24 Coef= -7.07106781D-01  7.07106781D-01
 Initial guess <Sx>= 0.0000 <Sy>= 0.0000 <Sz>= 0.5000 <S**2>= 1.0000 S= 0.6180
 Leave Link  401 at Wed Oct 21 18:36:36 2015, MaxMem=   524288000 cpu:         3.0
 (Enter /opt/g09/l502.exe)
 UHF open shell SCF:
 Using DIIS extrapolation, IDIIS=  1040.
 Two-electron integral symmetry not used.
 Keep R1 and R2 ints in memory in canonical form, NReq=50307773.
 IVT=       53061 IEndB=       53061 NGot=   524288000 MDV=   474933478
 LenX=   474933478 LenY=   474917908
 Requested convergence on RMS density matrix=1.00D-08 within  64 cycles.
 Requested convergence on MAX density matrix=1.00D-06.
 Requested convergence on             energy=1.00D-06.
 No special actions if energy rises.
 FoFCou: FMM=F IPFlag=           0 FMFlag=           0 FMFlg1=           0
         NFxFlg=           0 DoJE=F BraDBF=F KetDBF=F FulRan=T
         wScrn=  0.000000 ICntrl=     600 IOpCl=  0 I1Cent=           0 NGrid=           0
         NMat0=    1 NMatS0=   7021 NMatT0=    0 NMatD0=    1 NMtDS0=    0 NMtDT0=    0
 Symmetry not used in FoFCou.

 Cycle   1  Pass 1  IDiag  1:
 E= -759.700659521964    
 DIIS: error= 1.79D-01 at cycle   1 NSaved=   1.
 NSaved= 1 IEnMin= 1 EnMin= -759.700659521964     IErMin= 1 ErrMin= 1.79D-01
 ErrMax= 1.79D-01  0.00D+00 EMaxC= 1.00D-01 BMatC= 8.68D+00 BMatP= 8.68D+00
 IDIUse=3 WtCom= 0.00D+00 WtEn= 1.00D+00
 Coeff-Com:  0.100D+01
 Coeff-En:   0.100D+01
 Coeff:      0.100D+01
 Gap=     0.038 Goal=   None    Shift=    0.000
 Gap=     0.063 Goal=   None    Shift=    0.000
 GapD=    0.038 DampG=0.250 DampE=0.250 DampFc=0.2500 IDamp=-1.
 Damping current iteration by 2.50D-01
 RMSDP=7.10D-02 MaxDP=8.68D+00              OVMax= 5.84D-01

 Cycle   2  Pass 1  IDiag  1:
 E= -759.971438157353     Delta-E=       -0.270778635389 Rises=F Damp=T
 DIIS: error= 1.32D-01 at cycle   2 NSaved=   2.
 NSaved= 2 IEnMin= 2 EnMin= -759.971438157353     IErMin= 2 ErrMin= 1.32D-01
 ErrMax= 1.32D-01  0.00D+00 EMaxC= 1.00D-01 BMatC= 3.43D+00 BMatP= 8.68D+00
 IDIUse=3 WtCom= 0.00D+00 WtEn= 1.00D+00
 Coeff-Com: -0.103D+01 0.203D+01
 Coeff-En:   0.000D+00 0.100D+01
 Coeff:      0.000D+00 0.100D+01
 Gap=     0.337 Goal=   None    Shift=    0.000
 Gap=     0.076 Goal=   None    Shift=    0.000
 RMSDP=5.24D-02 MaxDP=6.51D+00 DE=-2.71D-01 OVMax= 4.23D-01

 Cycle   3  Pass 1  IDiag  1:
 E= -760.366378383351     Delta-E=       -0.394940225998 Rises=F Damp=F
 DIIS: error= 4.99D-02 at cycle   3 NSaved=   3.
 NSaved= 3 IEnMin= 3 EnMin= -760.366378383351     IErMin= 3 ErrMin= 4.99D-02
 ErrMax= 4.99D-02  0.00D+00 EMaxC= 1.00D-01 BMatC= 1.19D+00 BMatP= 3.43D+00
 IDIUse=3 WtCom= 5.01D-01 WtEn= 4.99D-01
 Coeff-Com: -0.213D+00 0.622D+00 0.591D+00
 Coeff-En:   0.373D-01 0.000D+00 0.963D+00
 Coeff:     -0.880D-01 0.311D+00 0.776D+00
 Gap=     0.453 Goal=   None    Shift=    0.000
 Gap=     0.090 Goal=   None    Shift=    0.000
 RMSDP=8.38D-03 MaxDP=1.85D-01 DE=-3.95D-01 OVMax= 6.81D-01

 Cycle   4  Pass 1  IDiag  1:
 E= -759.985564718044     Delta-E=        0.380813665307 Rises=F Damp=F
 DIIS: error= 8.58D-02 at cycle   4 NSaved=   4.
 NSaved= 4 IEnMin= 3 EnMin= -760.366378383351     IErMin= 3 ErrMin= 4.99D-02
 ErrMax= 8.58D-02  0.00D+00 EMaxC= 1.00D-01 BMatC= 2.69D+00 BMatP= 1.19D+00
 IDIUse=2 WtCom= 0.00D+00 WtEn= 1.00D+00
 Coeff-En:   0.000D+00 0.000D+00 0.695D+00 0.305D+00
 Coeff:      0.000D+00 0.000D+00 0.695D+00 0.305D+00
 Gap=     0.372 Goal=   None    Shift=    0.000
 Gap=     0.029 Goal=   None    Shift=    0.000
 RMSDP=5.96D-03 MaxDP=7.88D-02 DE= 3.81D-01 OVMax= 6.93D-01

 Cycle   5  Pass 1  IDiag  1:
 E= -760.542923211044     Delta-E=       -0.557358493000 Rises=F Damp=F
 DIIS: error= 2.14D-02 at cycle   5 NSaved=   5.
 NSaved= 5 IEnMin= 5 EnMin= -760.542923211044     IErMin= 5 ErrMin= 2.14D-02
 ErrMax= 2.14D-02  0.00D+00 EMaxC= 1.00D-01 BMatC= 2.22D-01 BMatP= 1.19D+00
 IDIUse=3 WtCom= 7.86D-01 WtEn= 2.14D-01
 Coeff-Com: -0.206D+00 0.286D+00 0.190D+00 0.987D-01 0.631D+00
 Coeff-En:   0.000D+00 0.000D+00 0.000D+00 0.000D+00 0.100D+01
 Coeff:     -0.162D+00 0.225D+00 0.149D+00 0.775D-01 0.710D+00
 Gap=     0.335 Goal=   None    Shift=    0.000
 Gap=     0.077 Goal=   None    Shift=    0.000
 RMSDP=2.03D-03 MaxDP=5.94D-02 DE=-5.57D-01 OVMax= 6.31D-02

 Cycle   6  Pass 1  IDiag  1:
 E= -760.584441736086     Delta-E=       -0.041518525043 Rises=F Damp=F
 DIIS: error= 5.25D-03 at cycle   6 NSaved=   6.
 NSaved= 6 IEnMin= 6 EnMin= -760.584441736086     IErMin= 6 ErrMin= 5.25D-03
 ErrMax= 5.25D-03  0.00D+00 EMaxC= 1.00D-01 BMatC= 1.64D-02 BMatP= 2.22D-01
 IDIUse=3 WtCom= 9.47D-01 WtEn= 5.25D-02
 Coeff-Com: -0.812D-01 0.110D+00 0.553D-01 0.308D-01 0.338D+00 0.547D+00
 Coeff-En:   0.000D+00 0.000D+00 0.000D+00 0.000D+00 0.000D+00 0.100D+01
 Coeff:     -0.769D-01 0.104D+00 0.524D-01 0.292D-01 0.320D+00 0.570D+00
 Gap=     0.325 Goal=   None    Shift=    0.000
 Gap=     0.094 Goal=   None    Shift=    0.000
 RMSDP=7.65D-04 MaxDP=1.16D-02 DE=-4.15D-02 OVMax= 4.39D-02

 Cycle   7  Pass 1  IDiag  1:
 E= -760.586621757046     Delta-E=       -0.002180020959 Rises=F Damp=F
 DIIS: error= 4.92D-03 at cycle   7 NSaved=   7.
 NSaved= 7 IEnMin= 7 EnMin= -760.586621757046     IErMin= 7 ErrMin= 4.92D-03
 ErrMax= 4.92D-03  0.00D+00 EMaxC= 1.00D-01 BMatC= 1.07D-02 BMatP= 1.64D-02
 IDIUse=3 WtCom= 9.51D-01 WtEn= 4.92D-02
 Coeff-Com: -0.259D-01 0.344D-01-0.116D-01 0.155D-02 0.108D+00 0.480D+00
 Coeff-Com:  0.414D+00
 Coeff-En:   0.000D+00 0.000D+00 0.000D+00 0.000D+00 0.000D+00 0.298D+00
 Coeff-En:   0.702D+00
 Coeff:     -0.246D-01 0.327D-01-0.110D-01 0.147D-02 0.102D+00 0.471D+00
 Coeff:      0.428D+00
 Gap=     0.321 Goal=   None    Shift=    0.000
 Gap=     0.097 Goal=   None    Shift=    0.000
 RMSDP=4.97D-04 MaxDP=1.10D-02 DE=-2.18D-03 OVMax= 4.81D-02

 Cycle   8  Pass 1  IDiag  1:
 E= -760.589458757077     Delta-E=       -0.002837000031 Rises=F Damp=F
 DIIS: error= 2.89D-03 at cycle   8 NSaved=   8.
 NSaved= 8 IEnMin= 8 EnMin= -760.589458757077     IErMin= 8 ErrMin= 2.89D-03
 ErrMax= 2.89D-03  0.00D+00 EMaxC= 1.00D-01 BMatC= 1.48D-03 BMatP= 1.07D-02
 IDIUse=3 WtCom= 9.71D-01 WtEn= 2.89D-02
 Coeff-Com: -0.516D-02 0.722D-02-0.142D-01-0.114D-02-0.290D-02 0.143D+00
 Coeff-Com:  0.300D+00 0.574D+00
 Coeff-En:   0.000D+00 0.000D+00 0.000D+00 0.000D+00 0.000D+00 0.000D+00
 Coeff-En:   0.000D+00 0.100D+01
 Coeff:     -0.501D-02 0.701D-02-0.138D-01-0.111D-02-0.281D-02 0.138D+00
 Coeff:      0.291D+00 0.586D+00
 Gap=     0.320 Goal=   None    Shift=    0.000
 Gap=     0.101 Goal=   None    Shift=    0.000
 RMSDP=3.30D-04 MaxDP=8.19D-03 DE=-2.84D-03 OVMax= 5.56D-02

 Cycle   9  Pass 1  IDiag  1:
 E= -760.590411165940     Delta-E=       -0.000952408863 Rises=F Damp=F
 DIIS: error= 2.27D-03 at cycle   9 NSaved=   9.
 NSaved= 9 IEnMin= 9 EnMin= -760.590411165940     IErMin= 9 ErrMin= 2.27D-03
 ErrMax= 2.27D-03  0.00D+00 EMaxC= 1.00D-01 BMatC= 1.47D-03 BMatP= 1.48D-03
 IDIUse=3 WtCom= 9.77D-01 WtEn= 2.27D-02
 Coeff-Com:  0.613D-02-0.753D-02-0.544D-02 0.176D-02-0.589D-01-0.129D+00
 Coeff-Com:  0.115D+00 0.648D+00 0.430D+00
 Coeff-En:   0.000D+00 0.000D+00 0.000D+00 0.000D+00 0.000D+00 0.000D+00
 Coeff-En:   0.000D+00 0.000D+00 0.100D+01
 Coeff:      0.599D-02-0.736D-02-0.532D-02 0.172D-02-0.576D-01-0.126D+00
 Coeff:      0.112D+00 0.633D+00 0.443D+00
 Gap=     0.319 Goal=   None    Shift=    0.000
 Gap=     0.105 Goal=   None    Shift=    0.000
 RMSDP=3.05D-04 MaxDP=6.35D-03 DE=-9.52D-04 OVMax= 4.70D-02

 Cycle  10  Pass 1  IDiag  1:
 E= -760.591470267151     Delta-E=       -0.001059101211 Rises=F Damp=F
 DIIS: error= 2.27D-03 at cycle  10 NSaved=  10.
 NSaved=10 IEnMin=10 EnMin= -760.591470267151     IErMin= 9 ErrMin= 2.27D-03
 ErrMax= 2.27D-03  0.00D+00 EMaxC= 1.00D-01 BMatC= 2.39D-04 BMatP= 1.47D-03
 IDIUse=3 WtCom= 9.77D-01 WtEn= 2.27D-02
 Coeff-Com: -0.413D-02 0.547D-02 0.118D-02 0.491D-03 0.213D-01 0.222D-01
 Coeff-Com: -0.466D-01-0.521D+00-0.271D+00 0.179D+01
 Coeff-En:   0.000D+00 0.000D+00 0.000D+00 0.000D+00 0.000D+00 0.000D+00
 Coeff-En:   0.000D+00 0.000D+00 0.000D+00 0.100D+01
 Coeff:     -0.404D-02 0.534D-02 0.115D-02 0.480D-03 0.208D-01 0.217D-01
 Coeff:     -0.455D-01-0.510D+00-0.265D+00 0.177D+01
 Gap=     0.317 Goal=   None    Shift=    0.000
 Gap=     0.107 Goal=   None    Shift=    0.000
 RMSDP=5.54D-04 MaxDP=1.09D-02 DE=-1.06D-03 OVMax= 1.03D-01

 Cycle  11  Pass 1  IDiag  1:
 E= -760.592739967083     Delta-E=       -0.001269699932 Rises=F Damp=F
 DIIS: error= 1.42D-03 at cycle  11 NSaved=  11.
 NSaved=11 IEnMin=11 EnMin= -760.592739967083     IErMin=11 ErrMin= 1.42D-03
 ErrMax= 1.42D-03  0.00D+00 EMaxC= 1.00D-01 BMatC= 1.23D-04 BMatP= 2.39D-04
 IDIUse=3 WtCom= 9.86D-01 WtEn= 1.42D-02
 Coeff-Com: -0.128D-01 0.175D-01 0.356D-02-0.224D-02 0.542D-01 0.124D+00
 Coeff-Com:  0.614D-01-0.170D+00-0.335D+00-0.649D+00 0.191D+01
 Coeff-En:   0.000D+00 0.000D+00 0.000D+00 0.000D+00 0.000D+00 0.000D+00
 Coeff-En:   0.000D+00 0.000D+00 0.000D+00 0.000D+00 0.100D+01
 Coeff:     -0.126D-01 0.172D-01 0.351D-02-0.221D-02 0.534D-01 0.122D+00
 Coeff:      0.605D-01-0.168D+00-0.330D+00-0.640D+00 0.190D+01
 Gap=     0.316 Goal=   None    Shift=    0.000
 Gap=     0.108 Goal=   None    Shift=    0.000
 RMSDP=5.35D-04 MaxDP=1.17D-02 DE=-1.27D-03 OVMax= 9.64D-02

 Cycle  12  Pass 1  IDiag  1:
 E= -760.593473480942     Delta-E=       -0.000733513859 Rises=F Damp=F
 DIIS: error= 6.96D-04 at cycle  12 NSaved=  12.
 NSaved=12 IEnMin=12 EnMin= -760.593473480942     IErMin=12 ErrMin= 6.96D-04
 ErrMax= 6.96D-04  0.00D+00 EMaxC= 1.00D-01 BMatC= 2.99D-05 BMatP= 1.23D-04
 IDIUse=3 WtCom= 9.93D-01 WtEn= 6.96D-03
 Coeff-Com: -0.793D-03 0.129D-02-0.712D-03-0.762D-03-0.720D-02-0.499D-02
 Coeff-Com:  0.525D-01 0.236D+00 0.748D-01-0.737D+00-0.759D-01 0.146D+01
 Coeff-En:   0.000D+00 0.000D+00 0.000D+00 0.000D+00 0.000D+00 0.000D+00
 Coeff-En:   0.000D+00 0.000D+00 0.000D+00 0.000D+00 0.000D+00 0.100D+01
 Coeff:     -0.788D-03 0.128D-02-0.707D-03-0.757D-03-0.715D-02-0.496D-02
 Coeff:      0.521D-01 0.234D+00 0.743D-01-0.732D+00-0.754D-01 0.146D+01
 Gap=     0.316 Goal=   None    Shift=    0.000
 Gap=     0.109 Goal=   None    Shift=    0.000
 RMSDP=3.28D-04 MaxDP=7.28D-03 DE=-7.34D-04 OVMax= 5.93D-02

 Cycle  13  Pass 1  IDiag  1:
 E= -760.593666113483     Delta-E=       -0.000192632541 Rises=F Damp=F
 DIIS: error= 2.36D-04 at cycle  13 NSaved=  13.
 NSaved=13 IEnMin=13 EnMin= -760.593666113483     IErMin=13 ErrMin= 2.36D-04
 ErrMax= 2.36D-04  0.00D+00 EMaxC= 1.00D-01 BMatC= 3.64D-06 BMatP= 2.99D-05
 IDIUse=3 WtCom= 9.98D-01 WtEn= 2.36D-03
 Coeff-Com:  0.177D-02-0.253D-02-0.620D-03 0.549D-03-0.592D-02-0.986D-02
 Coeff-Com: -0.335D-02 0.145D-01 0.342D-01 0.140D+00-0.363D+00-0.465D-01
 Coeff-Com:  0.124D+01
 Coeff-En:   0.000D+00 0.000D+00 0.000D+00 0.000D+00 0.000D+00 0.000D+00
 Coeff-En:   0.000D+00 0.000D+00 0.000D+00 0.000D+00 0.000D+00 0.000D+00
 Coeff-En:   0.100D+01
 Coeff:      0.176D-02-0.252D-02-0.619D-03 0.548D-03-0.591D-02-0.984D-02
 Coeff:     -0.334D-02 0.144D-01 0.341D-01 0.140D+00-0.362D+00-0.463D-01
 Coeff:      0.124D+01
 Gap=     0.316 Goal=   None    Shift=    0.000
 Gap=     0.109 Goal=   None    Shift=    0.000
 RMSDP=1.09D-04 MaxDP=2.27D-03 DE=-1.93D-04 OVMax= 1.98D-02

 Cycle  14  Pass 1  IDiag  1:
 E= -760.593686670466     Delta-E=       -0.000020556983 Rises=F Damp=F
 DIIS: error= 6.23D-05 at cycle  14 NSaved=  14.
 NSaved=14 IEnMin=14 EnMin= -760.593686670466     IErMin=14 ErrMin= 6.23D-05
 ErrMax= 6.23D-05  0.00D+00 EMaxC= 1.00D-01 BMatC= 6.39D-07 BMatP= 3.64D-06
 IDIUse=1 WtCom= 1.00D+00 WtEn= 0.00D+00
 Coeff-Com:  0.120D-04-0.306D-05 0.351D-03 0.155D-04 0.182D-02 0.839D-03
 Coeff-Com: -0.517D-02-0.290D-01-0.246D-01 0.818D-01 0.150D-01-0.158D+00
 Coeff-Com: -0.676D-01 0.119D+01
 Coeff:      0.120D-04-0.306D-05 0.351D-03 0.155D-04 0.182D-02 0.839D-03
 Coeff:     -0.517D-02-0.290D-01-0.246D-01 0.818D-01 0.150D-01-0.158D+00
 Coeff:     -0.676D-01 0.119D+01
 Gap=     0.316 Goal=   None    Shift=    0.000
 Gap=     0.109 Goal=   None    Shift=    0.000
 RMSDP=4.30D-05 MaxDP=8.28D-04 DE=-2.06D-05 OVMax= 7.98D-03

 Cycle  15  Pass 1  IDiag  1:
 E= -760.593688704416     Delta-E=       -0.000002033951 Rises=F Damp=F
 DIIS: error= 2.70D-05 at cycle  15 NSaved=  15.
 NSaved=15 IEnMin=15 EnMin= -760.593688704416     IErMin=15 ErrMin= 2.70D-05
 ErrMax= 2.70D-05  0.00D+00 EMaxC= 1.00D-01 BMatC= 1.71D-07 BMatP= 6.39D-07
 IDIUse=1 WtCom= 1.00D+00 WtEn= 0.00D+00
 Coeff-Com: -0.510D-04 0.717D-04 0.203D-03-0.352D-04 0.732D-03 0.430D-03
 Coeff-Com:  0.264D-03 0.486D-03 0.498D-02-0.111D-02 0.209D-01-0.158D-01
 Coeff-Com: -0.102D+00-0.879D-01 0.118D+01
 Coeff:     -0.510D-04 0.717D-04 0.203D-03-0.352D-04 0.732D-03 0.430D-03
 Coeff:      0.264D-03 0.486D-03 0.498D-02-0.111D-02 0.209D-01-0.158D-01
 Coeff:     -0.102D+00-0.879D-01 0.118D+01
 Gap=     0.316 Goal=   None    Shift=    0.000
 Gap=     0.109 Goal=   None    Shift=    0.000
 RMSDP=8.10D-06 MaxDP=1.74D-04 DE=-2.03D-06 OVMax= 7.42D-04

 Cycle  16  Pass 1  IDiag  1:
 E= -760.593688779364     Delta-E=       -0.000000074947 Rises=F Damp=F
 DIIS: error= 2.12D-05 at cycle  16 NSaved=  16.
 NSaved=16 IEnMin=16 EnMin= -760.593688779364     IErMin=16 ErrMin= 2.12D-05
 ErrMax= 2.12D-05  0.00D+00 EMaxC= 1.00D-01 BMatC= 1.27D-07 BMatP= 1.71D-07
 IDIUse=1 WtCom= 1.00D+00 WtEn= 0.00D+00
 Coeff-Com: -0.556D-04 0.720D-04-0.477D-08 0.111D-05-0.220D-04 0.136D-03
 Coeff-Com:  0.791D-03 0.244D-02-0.787D-05-0.153D-01 0.527D-02 0.289D-01
 Coeff-Com:  0.822D-03-0.203D+00 0.465D+00 0.715D+00
 Coeff:     -0.556D-04 0.720D-04-0.477D-08 0.111D-05-0.220D-04 0.136D-03
 Coeff:      0.791D-03 0.244D-02-0.787D-05-0.153D-01 0.527D-02 0.289D-01
 Coeff:      0.822D-03-0.203D+00 0.465D+00 0.715D+00
 Gap=     0.316 Goal=   None    Shift=    0.000
 Gap=     0.109 Goal=   None    Shift=    0.000
 RMSDP=7.14D-06 MaxDP=1.39D-04 DE=-7.49D-08 OVMax= 1.17D-03

 Cycle  17  Pass 1  IDiag  1:
 E= -760.593688840081     Delta-E=       -0.000000060717 Rises=F Damp=F
 DIIS: error= 7.96D-06 at cycle  17 NSaved=  17.
 NSaved=17 IEnMin=17 EnMin= -760.593688840081     IErMin=17 ErrMin= 7.96D-06
 ErrMax= 7.96D-06  0.00D+00 EMaxC= 1.00D-01 BMatC= 6.37D-09 BMatP= 1.27D-07
 IDIUse=1 WtCom= 1.00D+00 WtEn= 0.00D+00
 Coeff-Com:  0.166D-04-0.217D-04-0.468D-04 0.403D-05-0.186D-03-0.338D-04
 Coeff-Com: -0.216D-04 0.153D-02 0.240D-02 0.730D-04-0.147D-02 0.256D-03
 Coeff-Com:  0.252D-02-0.645D-01-0.105D+00-0.342D-01 0.120D+01
 Coeff:      0.166D-04-0.217D-04-0.468D-04 0.403D-05-0.186D-03-0.338D-04
 Coeff:     -0.216D-04 0.153D-02 0.240D-02 0.730D-04-0.147D-02 0.256D-03
 Coeff:      0.252D-02-0.645D-01-0.105D+00-0.342D-01 0.120D+01
 Gap=     0.316 Goal=   None    Shift=    0.000
 Gap=     0.109 Goal=   None    Shift=    0.000
 RMSDP=2.96D-06 MaxDP=7.50D-05 DE=-6.07D-08 OVMax= 3.46D-04

 Cycle  18  Pass 1  IDiag  1:
 E= -760.593688853132     Delta-E=       -0.000000013050 Rises=F Damp=F
 DIIS: error= 5.02D-06 at cycle  18 NSaved=  18.
 NSaved=18 IEnMin=18 EnMin= -760.593688853132     IErMin=18 ErrMin= 5.02D-06
 ErrMax= 5.02D-06  0.00D+00 EMaxC= 1.00D-01 BMatC= 6.95D-09 BMatP= 6.37D-09
 IDIUse=1 WtCom= 1.00D+00 WtEn= 0.00D+00
 Coeff-Com:  0.167D-04-0.213D-04 0.221D-05 0.184D-05-0.212D-04-0.515D-04
 Coeff-Com: -0.180D-03 0.572D-04 0.376D-04 0.199D-02-0.492D-03-0.390D-02
 Coeff-Com: -0.888D-03 0.349D-01-0.696D-01-0.317D+00 0.269D+00 0.109D+01
 Coeff:      0.167D-04-0.213D-04 0.221D-05 0.184D-05-0.212D-04-0.515D-04
 Coeff:     -0.180D-03 0.572D-04 0.376D-04 0.199D-02-0.492D-03-0.390D-02
 Coeff:     -0.888D-03 0.349D-01-0.696D-01-0.317D+00 0.269D+00 0.109D+01
 Gap=     0.316 Goal=   None    Shift=    0.000
 Gap=     0.109 Goal=   None    Shift=    0.000
 RMSDP=9.84D-07 MaxDP=2.21D-05 DE=-1.31D-08 OVMax= 1.21D-04

 Cycle  19  Pass 1  IDiag  1:
 E= -760.593688856952     Delta-E=       -0.000000003820 Rises=F Damp=F
 DIIS: error= 1.00D-06 at cycle  19 NSaved=  19.
 NSaved=19 IEnMin=19 EnMin= -760.593688856952     IErMin=19 ErrMin= 1.00D-06
 ErrMax= 1.00D-06  0.00D+00 EMaxC= 1.00D-01 BMatC= 3.04D-10 BMatP= 6.37D-09
 IDIUse=1 WtCom= 1.00D+00 WtEn= 0.00D+00
 Coeff-Com:  0.256D-05-0.382D-05 0.747D-05 0.114D-05 0.156D-04-0.448D-04
 Coeff-Com: -0.143D-04-0.160D-03 0.668D-04 0.458D-03-0.248D-03-0.871D-03
 Coeff-Com: -0.403D-03 0.764D-02 0.923D-02-0.395D-01-0.573D-01-0.115D+00
 Coeff-Com:  0.120D+01
 Coeff:      0.256D-05-0.382D-05 0.747D-05 0.114D-05 0.156D-04-0.448D-04
 Coeff:     -0.143D-04-0.160D-03 0.668D-04 0.458D-03-0.248D-03-0.871D-03
 Coeff:     -0.403D-03 0.764D-02 0.923D-02-0.395D-01-0.573D-01-0.115D+00
 Coeff:      0.120D+01
 Gap=     0.316 Goal=   None    Shift=    0.000
 Gap=     0.109 Goal=   None    Shift=    0.000
 RMSDP=3.38D-07 MaxDP=6.11D-06 DE=-3.82D-09 OVMax= 4.66D-05

 Cycle  20  Pass 1  IDiag  1:
 E= -760.593688857300     Delta-E=       -0.000000000348 Rises=F Damp=F
 DIIS: error= 2.94D-07 at cycle  20 NSaved=  20.
 NSaved=20 IEnMin=20 EnMin= -760.593688857300     IErMin=20 ErrMin= 2.94D-07
 ErrMax= 2.94D-07  0.00D+00 EMaxC= 1.00D-01 BMatC= 2.22D-11 BMatP= 3.04D-10
 IDIUse=1 WtCom= 1.00D+00 WtEn= 0.00D+00
 Coeff-Com: -0.236D-05 0.318D-05-0.146D-05 0.156D-06-0.426D-06-0.122D-04
 Coeff-Com:  0.106D-04-0.708D-04 0.193D-04 0.773D-04 0.146D-04-0.198D-03
 Coeff-Com: -0.626D-03-0.154D-02 0.884D-02 0.440D-01-0.364D-01-0.190D+00
 Coeff-Com:  0.813D-02 0.117D+01
 Coeff:     -0.236D-05 0.318D-05-0.146D-05 0.156D-06-0.426D-06-0.122D-04
 Coeff:      0.106D-04-0.708D-04 0.193D-04 0.773D-04 0.146D-04-0.198D-03
 Coeff:     -0.626D-03-0.154D-02 0.884D-02 0.440D-01-0.364D-01-0.190D+00
 Coeff:      0.813D-02 0.117D+01
 Gap=     0.316 Goal=   None    Shift=    0.000
 Gap=     0.109 Goal=   None    Shift=    0.000
 RMSDP=1.27D-07 MaxDP=2.57D-06 DE=-3.48D-10 OVMax= 1.71D-05

 Cycle  21  Pass 1  IDiag  1:
 E= -760.593688857339     Delta-E=       -0.000000000039 Rises=F Damp=F
 DIIS: error= 6.44D-08 at cycle  21 NSaved=  20.
 NSaved=20 IEnMin=20 EnMin= -760.593688857339     IErMin=20 ErrMin= 6.44D-08
 ErrMax= 6.44D-08  0.00D+00 EMaxC= 1.00D-01 BMatC= 2.04D-12 BMatP= 2.22D-11
 IDIUse=1 WtCom= 1.00D+00 WtEn= 0.00D+00
 Coeff-Com:  0.433D-07-0.423D-06 0.790D-07-0.140D-05 0.215D-05 0.269D-05
 Coeff-Com:  0.412D-05-0.209D-04-0.660D-04 0.101D-03 0.422D-04-0.321D-03
 Coeff-Com:  0.228D-03 0.169D-02 0.630D-02-0.982D-02 0.206D-02-0.739D-01
 Coeff-Com:  0.697D-01 0.100D+01
 Coeff:      0.433D-07-0.423D-06 0.790D-07-0.140D-05 0.215D-05 0.269D-05
 Coeff:      0.412D-05-0.209D-04-0.660D-04 0.101D-03 0.422D-04-0.321D-03
 Coeff:      0.228D-03 0.169D-02 0.630D-02-0.982D-02 0.206D-02-0.739D-01
 Coeff:      0.697D-01 0.100D+01
 Gap=     0.316 Goal=   None    Shift=    0.000
 Gap=     0.109 Goal=   None    Shift=    0.000
 RMSDP=1.89D-08 MaxDP=2.53D-07 DE=-3.91D-11 OVMax= 2.15D-06

 Cycle  22  Pass 1  IDiag  1:
 E= -760.593688857345     Delta-E=       -0.000000000006 Rises=F Damp=F
 DIIS: error= 4.28D-08 at cycle  22 NSaved=  20.
 NSaved=20 IEnMin=20 EnMin= -760.593688857345     IErMin=20 ErrMin= 4.28D-08
 ErrMax= 4.28D-08  0.00D+00 EMaxC= 1.00D-01 BMatC= 7.10D-13 BMatP= 2.04D-12
 IDIUse=1 WtCom= 1.00D+00 WtEn= 0.00D+00
 Coeff-Com:  0.135D-06 0.815D-08 0.390D-06 0.239D-05 0.231D-05 0.529D-05
 Coeff-Com: -0.311D-05-0.557D-04 0.389D-04 0.778D-04-0.166D-05-0.120D-04
 Coeff-Com: -0.546D-03-0.912D-03-0.738D-03 0.152D-01-0.665D-02-0.784D-01
 Coeff-Com:  0.540D-01 0.102D+01
 Coeff:      0.135D-06 0.815D-08 0.390D-06 0.239D-05 0.231D-05 0.529D-05
 Coeff:     -0.311D-05-0.557D-04 0.389D-04 0.778D-04-0.166D-05-0.120D-04
 Coeff:     -0.546D-03-0.912D-03-0.738D-03 0.152D-01-0.665D-02-0.784D-01
 Coeff:      0.540D-01 0.102D+01
 Gap=     0.316 Goal=   None    Shift=    0.000
 Gap=     0.109 Goal=   None    Shift=    0.000
 RMSDP=1.03D-08 MaxDP=2.23D-07 DE=-5.91D-12 OVMax= 1.56D-06

 Cycle  23  Pass 1  IDiag  1:
 E= -760.593688857337     Delta-E=        0.000000000008 Rises=F Damp=F
 DIIS: error= 2.14D-08 at cycle  23 NSaved=  20.
 NSaved=20 IEnMin=19 EnMin= -760.593688857345     IErMin=20 ErrMin= 2.14D-08
 ErrMax= 2.14D-08  0.00D+00 EMaxC= 1.00D-01 BMatC= 1.45D-13 BMatP= 7.10D-13
 IDIUse=1 WtCom= 1.00D+00 WtEn= 0.00D+00
 Coeff-Com:  0.621D-09-0.229D-06-0.127D-05-0.757D-06-0.239D-05 0.254D-05
 Coeff-Com:  0.890D-05-0.211D-04-0.232D-05 0.805D-04 0.167D-03-0.794D-03
 Coeff-Com: -0.130D-02 0.854D-03 0.713D-02 0.328D-02-0.302D-01-0.967D-01
 Coeff-Com:  0.135D+00 0.982D+00
 Coeff:      0.621D-09-0.229D-06-0.127D-05-0.757D-06-0.239D-05 0.254D-05
 Coeff:      0.890D-05-0.211D-04-0.232D-05 0.805D-04 0.167D-03-0.794D-03
 Coeff:     -0.130D-02 0.854D-03 0.713D-02 0.328D-02-0.302D-01-0.967D-01
 Coeff:      0.135D+00 0.982D+00
 Gap=     0.316 Goal=   None    Shift=    0.000
 Gap=     0.109 Goal=   None    Shift=    0.000
 RMSDP=2.46D-09 MaxDP=3.70D-08 DE= 7.96D-12 OVMax= 1.97D-07

 SCF Done:  E(UB971) =  -760.593688857     A.U. after   23 cycles
            NFock= 23  Conv=0.25D-08     -V/T= 2.0021
 <Sx>= 0.0000 <Sy>= 0.0000 <Sz>= 0.5000 <S**2>= 0.7606 S= 0.5053
 <L.S>= 0.000000000000E+00
 KE= 7.590160849351D+02 PE=-2.353839954426D+03 EE= 5.570166149529D+02
 Annihilation of the first spin contaminant:
 S**2 before annihilation     0.7606,   after     0.7500
 Leave Link  502 at Wed Oct 21 18:36:54 2015, MaxMem=   524288000 cpu:       109.3
 (Enter /opt/g09/l508.exe)
 QCSCF skips out because SCF is already converged.
 Leave Link  508 at Wed Oct 21 18:36:55 2015, MaxMem=   524288000 cpu:         0.0
 (Enter /opt/g09/l801.exe)
 DoSCS=F DFT=T ScalE2(SS,OS)=  1.000000  1.000000
 Range of M.O.s used for correlation:     1   118
 NBasis=   118 NAE=    25 NBE=    24 NFC=     0 NFV=     0
 NROrb=    118 NOA=    25 NOB=    24 NVA=    93 NVB=    94
 Leave Link  801 at Wed Oct 21 18:36:55 2015, MaxMem=   524288000 cpu:         0.2
 (Enter /opt/g09/l1101.exe)
 Using compressed storage, NAtomX=     5.
 Will process      6 centers per pass.
 Leave Link 1101 at Wed Oct 21 18:36:55 2015, MaxMem=   524288000 cpu:         1.3
 (Enter /opt/g09/l1102.exe)
 Symmetrizing basis deriv contribution to polar:
 IMax=3 JMax=2 DiffMx= 0.00D+00
 Leave Link 1102 at Wed Oct 21 18:36:55 2015, MaxMem=   524288000 cpu:         0.2
 (Enter /opt/g09/l1110.exe)
 Forming Gx(P) for the SCF density, NAtomX=     5.
 Integral derivatives from FoFJK, PRISM(SPDF).
 Do as many integral derivatives as possible in FoFJK.
 G2DrvN: MDV=     524287856.
 G2DrvN: will do     6 centers at a time, making    1 passes.
 Calling FoFCou, ICntrl=  3107 FMM=F I1Cent=   0 AccDes= 0.00D+00.
 FoFJK:  IHMeth= 1 ICntrl=    3107 DoSepK=F KAlg= 0 I1Cent=   0 FoldK=F
 IRaf=         0 NMat=   1 IRICut=       1 DoRegI=T DoRafI=F ISym2E= 0.
 FoFCou: FMM=F IPFlag=           0 FMFlag=      100000 FMFlg1=           0
         NFxFlg=           0 DoJE=F BraDBF=F KetDBF=F FulRan=T
         wScrn=  0.000000 ICntrl=    3107 IOpCl=  1 I1Cent=           0 NGrid=           0
         NMat0=    1 NMatS0=      1 NMatT0=    0 NMatD0=    1 NMtDS0=    0 NMtDT0=    0
 Symmetry not used in FoFCou.
 End of G2Drv F.D. properties file   721 does not exist.
 End of G2Drv F.D. properties file   722 does not exist.
 End of G2Drv F.D. properties file   788 does not exist.
 Leave Link 1110 at Wed Oct 21 18:37:04 2015, MaxMem=   524288000 cpu:        73.9
 (Enter /opt/g09/l1002.exe)
 Minotr:  UHF open shell wavefunction.
          IDoAtm=11111
          Direct CPHF calculation.
          Differentiating once with respect to electric field.
                with respect to dipole field.
          Differentiating once with respect to nuclear coordinates.
          Requested convergence is 1.0D-08 RMS, and 1.0D-07 maximum.
          Secondary convergence is 1.0D-12 RMS, and 1.0D-12 maximum.
          NewPWx=T KeepS1=F KeepF1=F KeepIn=T MapXYZ=F SortEE=F KeepMc=T.
          MDV=     524287710 using IRadAn=       1.
 Generate precomputed XC quadrature information.
 Keep R1 and R2 ints in memory in canonical form, NReq=50257559.
 FoFCou: FMM=F IPFlag=           0 FMFlag=           0 FMFlg1=           0
         NFxFlg=           0 DoJE=F BraDBF=F KetDBF=F FulRan=T
         wScrn=  0.000000 ICntrl=     600 IOpCl=  0 I1Cent=           0 NGrid=           0
         NMat0=    1 NMatS0=   7021 NMatT0=    0 NMatD0=    1 NMtDS0=    0 NMtDT0=    0
 Symmetry not used in FoFCou.
          Solving linear equations simultaneously, MaxMat=       0.
          There are    18 degrees of freedom in the 1st order CPHF.  IDoFFX=6 NUNeed=     3.
     15 vectors produced by pass  0 Test12= 2.55D-14 5.56D-09 XBig12= 1.30D+02 8.63D+00.
 AX will form    15 AO Fock derivatives at one time.
     15 vectors produced by pass  1 Test12= 2.55D-14 5.56D-09 XBig12= 9.01D+01 2.25D+00.
     15 vectors produced by pass  2 Test12= 2.55D-14 5.56D-09 XBig12= 1.07D+01 1.22D+00.
     15 vectors produced by pass  3 Test12= 2.55D-14 5.56D-09 XBig12= 2.82D-01 1.64D-01.
     15 vectors produced by pass  4 Test12= 2.55D-14 5.56D-09 XBig12= 4.66D-03 1.72D-02.
     15 vectors produced by pass  5 Test12= 2.55D-14 5.56D-09 XBig12= 1.12D-04 2.41D-03.
     15 vectors produced by pass  6 Test12= 2.55D-14 5.56D-09 XBig12= 1.27D-06 1.88D-04.
     14 vectors produced by pass  7 Test12= 2.55D-14 5.56D-09 XBig12= 9.22D-09 1.77D-05.
      5 vectors produced by pass  8 Test12= 2.55D-14 5.56D-09 XBig12= 4.75D-11 1.07D-06.
      3 vectors produced by pass  9 Test12= 2.55D-14 5.56D-09 XBig12= 1.81D-13 8.27D-08.
 InvSVY:  IOpt=1 It=  1 EMax= 9.99D-16
 Solved reduced A of dimension   127 with    15 vectors.
 FullF1:  Do perturbations    1 to     3.
 Isotropic polarizability for W=    0.000000       35.74 Bohr**3.
 End of Minotr F.D. properties file   721 does not exist.
 End of Minotr F.D. properties file   722 does not exist.
 End of Minotr F.D. properties file   788 does not exist.
 Leave Link 1002 at Wed Oct 21 18:37:23 2015, MaxMem=   524288000 cpu:       147.2
 (Enter /opt/g09/l701.exe)
 Compute integral second derivatives.
 ... and contract with generalized density number  0.
 Leave Link  701 at Wed Oct 21 18:37:23 2015, MaxMem=   524288000 cpu:         2.0
 (Enter /opt/g09/l702.exe)
 L702 exits ... SP integral derivatives will be done elsewhere.
 Leave Link  702 at Wed Oct 21 18:37:23 2015, MaxMem=   524288000 cpu:         0.2
 (Enter /opt/g09/l703.exe)
 Compute integral second derivatives, UseDBF=F ICtDFT=           0.
 Integral derivatives from FoFJK, PRISM(SPDF).
 Calling FoFJK, ICntrl=    100127 FMM=F ISym2X=0 I1Cent= 0 IOpClX= 1 NMat=1 NMatS=1 NMatT=0.
 FoFJK:  IHMeth= 1 ICntrl=  100127 DoSepK=F KAlg= 0 I1Cent=   0 FoldK=F
 IRaf=         0 NMat=   1 IRICut=       1 DoRegI=T DoRafI=F ISym2E= 0.
 FoFCou: FMM=F IPFlag=           0 FMFlag=      100000 FMFlg1=         800
         NFxFlg=           0 DoJE=F BraDBF=F KetDBF=F FulRan=T
         wScrn=  0.000000 ICntrl=  100127 IOpCl=  1 I1Cent=           0 NGrid=           0
         NMat0=    1 NMatS0=      1 NMatT0=    0 NMatD0=    1 NMtDS0=    0 NMtDT0=    0
 Symmetry not used in FoFCou.
 Leave Link  703 at Wed Oct 21 18:37:45 2015, MaxMem=   524288000 cpu:       174.0
 (Enter /opt/g09/l716.exe)
 Dipole        = 8.70432180D-03 3.26118228D-03-1.20578569D-02
 Polarizability= 3.81334389D+01-8.91005472D-01 3.36246804D+01
                 3.29292781D+00-5.40895973D-01 3.54767899D+01
 -------------------------------------------------------------------
 Center     Atomic                   Forces (Hartrees/Bohr)
 Number     Number              X              Y              Z
 -------------------------------------------------------------------
      1       17           0.000003403    0.000007267   -0.000003631
      2        8          -0.000002689   -0.000005907    0.000000859
      3        8          -0.000000547   -0.000000960    0.000002984
      4        8          -0.000001451   -0.000000738   -0.000000287
      5        8           0.000001285    0.000000338    0.000000075
 -------------------------------------------------------------------
 Cartesian Forces:  Max     0.000007267 RMS     0.000003001
 Force constants in Cartesian coordinates: 
                1             2             3             4             5 
      1  0.276668D+00
      2  0.694837D-01  0.800422D+00
      3 -0.256250D+00  0.887402D-01  0.496438D+00
      4 -0.818739D-01 -0.111606D+00  0.518754D-01  0.926685D-01
      5 -0.111822D+00 -0.398830D+00  0.654011D-01  0.124587D+00  0.432640D+00
      6  0.518146D-01  0.650837D-01 -0.859883D-01 -0.411409D-01 -0.794525D-01
      7 -0.377626D-02  0.594745D-02 -0.220745D-01  0.581946D-02 -0.500482D-02
      8 -0.237811D-01 -0.730576D-01  0.204261D-01  0.553204D-02 -0.629925D-02
      9  0.879918D-01  0.203999D-01 -0.143399D+00 -0.214250D-01  0.553353D-02
     10 -0.816902D-01  0.700531D-01  0.100841D+00  0.128760D-01 -0.117176D-01
     11  0.702717D-01 -0.262648D+00 -0.168423D+00  0.126813D-01 -0.274383D-01
     12  0.100903D+00 -0.168105D+00 -0.222142D+00  0.148192D-02  0.685630D-02
     13 -0.109327D+00 -0.338784D-01  0.125608D+00 -0.294900D-01  0.395713D-02
     14 -0.415222D-02 -0.658870D-01 -0.614424D-02 -0.311949D-01 -0.728978D-04
     15  0.155408D-01 -0.611910D-02 -0.449074D-01  0.920863D-02  0.166160D-02
                6             7             8             9            10 
      6  0.819048D-01
      7  0.283198D-02  0.524955D-01
      8  0.353803D-01 -0.109070D-01  0.606027D-01
      9 -0.181092D-01  0.403578D-01 -0.435066D-01  0.210141D+00
     10 -0.511515D-02  0.582032D-02  0.600734D-02 -0.212966D-01  0.924702D-01
     11 -0.293779D-01  0.290071D-02  0.849971D-02  0.998361D-02 -0.866758D-01
     12  0.112182D-01  0.495246D-02 -0.198768D-01 -0.329094D-01 -0.980924D-01
     13 -0.839058D-02 -0.603590D-01  0.231488D-01 -0.856279D-01 -0.294763D-01
     14  0.836651D-02  0.706370D-02  0.102544D-01  0.758963D-02  0.223330D-01
     15  0.109746D-01 -0.260677D-01  0.757710D-02 -0.157231D-01  0.236634D-01
               11            12            13            14            15 
     11  0.274506D+00
     12  0.191751D+00  0.240022D+00
     13  0.822031D-03 -0.924488D-02  0.228653D+00
     14  0.708031D-02 -0.106257D-01  0.595042D-02  0.486252D-01
     15 -0.393338D-02  0.381127D-02 -0.223451D-01  0.813784D-03  0.458447D-01
 FormGI is forming the generalized inverse of G from B-inverse, IUseBI=4.
 Force constants in internal coordinates: 
                1             2             3             4             5 
      1  0.492425D+00
      2  0.443273D-02  0.231518D+00
      3  0.592525D-02  0.443030D-02  0.492218D+00
      4  0.443352D-02  0.946061D-01  0.442996D-02  0.231413D+00
      5  0.402978D-02  0.435933D-02 -0.627803D-02 -0.128518D-01  0.313408D-01
      6  0.868164D-02  0.806345D-02  0.967304D-02 -0.201726D-01 -0.237986D-01
      7  0.125227D-01 -0.285912D-01 -0.174825D-01  0.164616D-01  0.775308D-02
      8 -0.571961D-02  0.949574D-02  0.683293D-02 -0.268859D-01 -0.100354D-01
      9 -0.561679D-02  0.406934D-01 -0.706778D-02  0.331172D-01 -0.221828D-01
     10 -0.168529D-01 -0.299201D-01  0.109091D-01  0.201892D-01  0.194215D-01
     11 -0.809177D-02 -0.216030D-01 -0.573567D-02  0.595644D-01 -0.141901D-01
     12  0.495141D-02  0.168237D-01 -0.146541D-01  0.549262D-02  0.261817D-01
     13 -0.824421D-02  0.390003D-01 -0.768782D-02 -0.361158D-02  0.949451D-02
     14 -0.131956D-01  0.221766D-01  0.696625D-02 -0.910420D-02 -0.166872D-01
                6             7             8             9            10 
      6  0.960794D-01
      7 -0.545489D-01  0.155421D+00
      8 -0.966801D-02  0.105345D-01  0.490992D-01
      9  0.315140D-01 -0.453702D-01 -0.371573D-01  0.125555D+00
     10 -0.583165D-01 -0.672485D-01 -0.595438D-02 -0.413272D-01  0.161490D+00
     11 -0.417024D-01  0.272316D-01 -0.213829D-01  0.367986D-01  0.289034D-01
     12 -0.251614D-01  0.261433D-01 -0.259627D-01  0.232036D-01 -0.148073D-01
     13 -0.356276D-01 -0.404571D-03  0.938778D-02  0.308512D-01 -0.410626D-03
     14 -0.104663D-01 -0.265479D-01  0.353505D-01  0.764763D-02  0.143966D-01
               11            12            13            14 
     11  0.752680D-01
     12  0.844231D-02  0.464477D-01
     13  0.934428D-02  0.249320D-01  0.497457D-01
     14  0.901966D-03 -0.215156D-01  0.248136D-01  0.463292D-01
 Leave Link  716 at Wed Oct 21 18:37:45 2015, MaxMem=   524288000 cpu:         0.3
 (Enter /opt/g09/l103.exe)

 GradGradGradGradGradGradGradGradGradGradGradGradGradGradGradGradGradGrad
 Berny optimization.
 Red2BG is reusing G-inverse.
 Internal  Forces:  Max     0.000006465 RMS     0.000002071
 Search for a local minimum.
 Step number   1 out of a maximum of  100
 All quantities printed in internal units (Hartrees-Bohrs-Radians)
 RMS Force = .20713D-05 SwitMx=.10000D-02 MixMth= 2
 Mixed Optimization -- En-DIIS/RFO-DIIS
 Second derivative matrix not updated -- analytic derivatives used.
 The second derivative matrix:
                          R1        R2        R3        R4        A1
           R1           0.49243
           R2           0.00443   0.23152
           R3           0.00593   0.00443   0.49222
           R4           0.00443   0.09461   0.00443   0.23141
           A1           0.00403   0.00436  -0.00628  -0.01285   0.03134
           A2           0.00868   0.00806   0.00967  -0.02017  -0.02380
           A3           0.01252  -0.02859  -0.01748   0.01646   0.00775
           A4          -0.00572   0.00950   0.00683  -0.02689  -0.01004
           A5          -0.00562   0.04069  -0.00707   0.03312  -0.02218
           A6          -0.01685  -0.02992   0.01091   0.02019   0.01942
           D1          -0.00809  -0.02160  -0.00574   0.05956  -0.01419
           D2           0.00495   0.01682  -0.01465   0.00549   0.02618
           D3          -0.00824   0.03900  -0.00769  -0.00361   0.00949
           D4          -0.01320   0.02218   0.00697  -0.00910  -0.01669
                          A2        A3        A4        A5        A6
           A2           0.09608
           A3          -0.05455   0.15542
           A4          -0.00967   0.01053   0.04910
           A5           0.03151  -0.04537  -0.03716   0.12555
           A6          -0.05832  -0.06725  -0.00595  -0.04133   0.16149
           D1          -0.04170   0.02723  -0.02138   0.03680   0.02890
           D2          -0.02516   0.02614  -0.02596   0.02320  -0.01481
           D3          -0.03563  -0.00040   0.00939   0.03085  -0.00041
           D4          -0.01047  -0.02655   0.03535   0.00765   0.01440
                          D1        D2        D3        D4
           D1           0.07527
           D2           0.00844   0.04645
           D3           0.00934   0.02493   0.04975
           D4           0.00090  -0.02152   0.02481   0.04633
 ITU=  0
     Eigenvalues ---    0.02867   0.10103   0.14003   0.17892   0.23155
     Eigenvalues ---    0.25855   0.35400   0.49137   0.50022
 RFO step:  Lambda= 0.00000000D+00 EMin= 2.86695946D-02
 Linear search not attempted -- first point.
 Iteration  1 RMS(Cart)=  0.00000652 RMS(Int)=  0.00000000
 Iteration  2 RMS(Cart)=  0.00000000 RMS(Int)=  0.00000000
 ITry= 1 IFail=0 DXMaxC= 1.37D-05 DCOld= 1.00D+10 DXMaxT= 2.56D+00 DXLimC= 3.00D+00 Rises=F
 Variable       Old X    -DE/DX   Delta X   Delta X   Delta X     New X
                                 (Linear)    (Quad)   (Total)
    R1        2.73635   0.00001   0.00000   0.00001   0.00001   2.73636
    R2        2.89794   0.00000   0.00000  -0.00002  -0.00002   2.89792
    R3        2.73634   0.00000   0.00000   0.00000   0.00000   2.73634
    R4        2.89792   0.00000   0.00000   0.00001   0.00001   2.89793
    A1        1.95350   0.00000   0.00000   0.00000   0.00000   1.95350
    A2        1.99278   0.00000   0.00000   0.00000   0.00000   1.99277
    A3        1.95348   0.00000   0.00000   0.00000   0.00000   1.95348
    A4        1.95348   0.00000   0.00000   0.00000   0.00000   1.95348
    A5        1.62613   0.00000   0.00000   0.00001   0.00001   1.62614
    A6        1.95351   0.00000   0.00000   0.00000   0.00000   1.95351
    D1       -2.24205   0.00000   0.00000   0.00001   0.00001  -2.24204
    D2        2.01027   0.00000   0.00000   0.00000   0.00000   2.01027
    D3       -2.26267   0.00000   0.00000   0.00001   0.00001  -2.26266
    D4        2.01025   0.00000   0.00000   0.00001   0.00001   2.01025
         Item               Value     Threshold  Converged?
 Maximum Force            0.000006     0.000015     YES
 RMS     Force            0.000002     0.000010     YES
 Maximum Displacement     0.000014     0.000060     YES
 RMS     Displacement     0.000007     0.000040     YES
 Predicted change in Energy=-9.446151D-11
 Optimization completed.
    -- Stationary point found.
                           ----------------------------
                           !   Optimized Parameters   !
                           ! (Angstroms and Degrees)  !
 --------------------------                            --------------------------
 ! Name  Definition              Value          Derivative Info.                !
 --------------------------------------------------------------------------------
 ! R1    R(1,2)                  1.448          -DE/DX =    0.0                 !
 ! R2    R(1,3)                  1.5335         -DE/DX =    0.0                 !
 ! R3    R(1,4)                  1.448          -DE/DX =    0.0                 !
 ! R4    R(1,5)                  1.5335         -DE/DX =    0.0                 !
 ! A1    A(2,1,3)              111.9273         -DE/DX =    0.0                 !
 ! A2    A(2,1,4)              114.1776         -DE/DX =    0.0                 !
 ! A3    A(2,1,5)              111.9263         -DE/DX =    0.0                 !
 ! A4    A(3,1,4)              111.9259         -DE/DX =    0.0                 !
 ! A5    A(3,1,5)               93.1704         -DE/DX =    0.0                 !
 ! A6    A(4,1,5)              111.9281         -DE/DX =    0.0                 !
 ! D1    D(2,1,4,3)           -128.4598         -DE/DX =    0.0                 !
 ! D2    D(2,1,5,3)            115.1798         -DE/DX =    0.0                 !
 ! D3    D(2,1,5,4)           -129.6414         -DE/DX =    0.0                 !
 ! D4    D(3,1,5,4)            115.1788         -DE/DX =    0.0                 !
 --------------------------------------------------------------------------------
 Lowest energy point so far.  Saving SCF results.
 GradGradGradGradGradGradGradGradGradGradGradGradGradGradGradGradGradGrad

 Largest change from initial coordinates is atom    0       0.000 Angstoms.
 Leave Link  103 at Wed Oct 21 18:37:45 2015, MaxMem=   524288000 cpu:         0.1
 (Enter /opt/g09/l202.exe)
                          Input orientation:                          
 ---------------------------------------------------------------------
 Center     Atomic      Atomic             Coordinates (Angstroms)
 Number     Number       Type             X           Y           Z
 ---------------------------------------------------------------------
      1         17           0       -0.102920    0.703380    0.084810
      2          8           0       -0.553340   -0.638340    0.390830
      3          8           0       -0.413510    1.095010   -1.364970
      4          8           0       -0.552800    1.708820    1.024720
      5          8           0        1.413690    0.762230   -0.134490
 ---------------------------------------------------------------------
                    Distance matrix (angstroms):
                    1          2          3          4          5
     1  Cl   0.000000
     2  O    1.448012   0.000000
     3  O    1.533526   2.471212   0.000000
     4  O    1.448010   2.431250   2.471191   0.000000
     5  O    1.533513   2.471187   2.227888   2.471211   0.000000
 Symmetry turned off by external request.
 Stoichiometry    ClO4(2)
 Framework group  C1[X(ClO4)]
 Deg. of freedom     9
 Full point group                 C1      NOp   1
 Rotational constants (GHZ):      5.8110894      5.3596663      4.9609928
 Leave Link  202 at Wed Oct 21 18:37:45 2015, MaxMem=   524288000 cpu:         0.0
 (Enter /opt/g09/l716.exe)
 Dipole        = 8.70432180D-03 3.26118228D-03-1.20578569D-02
 Polarizability= 3.81334389D+01-8.91005472D-01 3.36246804D+01
                 3.29292781D+00-5.40895973D-01 3.54767899D+01
 Full mass-weighted force constant matrix:
 Low frequencies ---   -4.4113    0.0020    0.0042    0.0045    2.4432    4.9766
 Low frequencies ---  327.3434  333.3398  355.8103
 Diagonal vibrational polarizability:
        6.1079121       6.4716585       7.2930395
 Harmonic frequencies (cm**-1), IR intensities (KM/Mole), Raman scattering
 activities (A**4/AMU), depolarization ratios for plane and unpolarized
 incident light, reduced masses (AMU), force constants (mDyne/A),
 and normal coordinates:
                      1                      2                      3
                      A                      A                      A
 Frequencies --    327.3433               333.3398               355.8103
 Red. masses --     24.5581                15.9960                16.3027
 Frc consts  --      1.5504                 1.0472                 1.2160
 IR Inten    --      8.9502                 0.0017                 3.0512
  Atom  AN      X      Y      Z        X      Y      Z        X      Y      Z
     1  17     0.55  -0.10   0.37    -0.01   0.00   0.00    -0.07  -0.03   0.10
     2   8    -0.31   0.06  -0.21     0.40  -0.07   0.27    -0.17   0.04   0.27
     3   8    -0.25   0.08  -0.24     0.00   0.50   0.14     0.61   0.03  -0.11
     4   8    -0.32   0.06  -0.21    -0.39   0.07  -0.26    -0.17  -0.17   0.21
     5   8    -0.33   0.03  -0.15     0.00  -0.50  -0.14    -0.10   0.16  -0.59
                      4                      5                      6
                      A                      A                      A
 Frequencies --    510.0246               525.3196               548.1735
 Red. masses --     18.1039                17.8173                16.0041
 Frc consts  --      2.7746                 2.8969                 2.8335
 IR Inten    --     21.9654                32.7197                29.9035
  Atom  AN      X      Y      Z        X      Y      Z        X      Y      Z
     1  17     0.00   0.32   0.09     0.18   0.07  -0.25     0.02   0.00   0.01
     2   8     0.27   0.20  -0.34    -0.21   0.38   0.41    -0.28   0.05  -0.19
     3   8     0.00  -0.45  -0.12    -0.24   0.05  -0.19    -0.05  -0.16   0.60
     4   8    -0.27   0.00   0.40    -0.21  -0.54   0.16    -0.28   0.05  -0.19
     5   8     0.00  -0.45  -0.12     0.26  -0.04   0.15     0.56   0.07  -0.25
                      7                      8                      9
                      A                      A                      A
 Frequencies --    800.6023              1058.0362              1149.3357
 Red. masses --     16.6249                19.7904                20.8526
 Frc consts  --      6.2783                13.0528                16.2295
 IR Inten    --     19.3062               161.7710               202.9744
  Atom  AN      X      Y      Z        X      Y      Z        X      Y      Z
     1  17     0.10   0.04  -0.14    -0.26  -0.10   0.35     0.00   0.49   0.13
     2   8     0.10   0.34  -0.05     0.20   0.54  -0.15    -0.18  -0.57   0.11
     3   8     0.18  -0.15   0.55    -0.05   0.05  -0.19     0.00  -0.03  -0.01
     4   8     0.10  -0.27  -0.21     0.20  -0.39  -0.41     0.18  -0.44  -0.38
     5   8    -0.60  -0.01   0.03     0.20   0.01  -0.02     0.00  -0.03  -0.01

 -------------------
 - Thermochemistry -
 -------------------
 Temperature   298.150 Kelvin.  Pressure   1.00000 Atm.
 Atom     1 has atomic number 17 and mass  34.96885
 Atom     2 has atomic number  8 and mass  15.99491
 Atom     3 has atomic number  8 and mass  15.99491
 Atom     4 has atomic number  8 and mass  15.99491
 Atom     5 has atomic number  8 and mass  15.99491
 Molecular mass:    98.94851 amu.
 Principal axes and moments of inertia in atomic units:
                           1         2         3
     Eigenvalues --   310.56848 336.72641 363.78629
           X           -0.57214   0.00014   0.82015
           Y           -0.21371   0.96543  -0.14924
           Z            0.79182   0.26066   0.55234
 This molecule is an asymmetric top.
 Rotational symmetry number  1.
 Rotational temperatures (Kelvin)      0.27889     0.25722     0.23809
 Rotational constants (GHZ):           5.81109     5.35967     4.96099
 Zero-point vibrational energy      33543.2 (Joules/Mol)
                                    8.01702 (Kcal/Mol)
 Warning -- explicit consideration of   6 degrees of freedom as
           vibrations may cause significant error
 Vibrational temperatures:    470.97   479.60   511.93   733.81   755.82
          (Kelvin)            788.70  1151.89  1522.28  1653.64
 
 Zero-point correction=                           0.012776 (Hartree/Particle)
 Thermal correction to Energy=                    0.017472
 Thermal correction to Enthalpy=                  0.018417
 Thermal correction to Gibbs Free Energy=        -0.015782
 Sum of electronic and zero-point Energies=           -760.580913
 Sum of electronic and thermal Energies=              -760.576216
 Sum of electronic and thermal Enthalpies=            -760.575272
 Sum of electronic and thermal Free Energies=         -760.609471
 
                     E (Thermal)             CV                S
                      KCal/Mol        Cal/Mol-Kelvin    Cal/Mol-Kelvin
 Total                   10.964             15.528             71.978
 Electronic               0.000              0.000              1.377
 Translational            0.889              2.981             39.687
 Rotational               0.889              2.981             25.146
 Vibrational              9.187              9.567              5.768
 Vibration     1          0.711              1.621              1.273
 Vibration     2          0.715              1.609              1.244
 Vibration     3          0.731              1.563              1.140
 Vibration     4          0.865              1.228              0.634
 Vibration     5          0.880              1.194              0.598
 Vibration     6          0.903              1.144              0.548
                       Q            Log10(Q)             Ln(Q)
 Total Bot       0.181714D+08          7.259389         16.715362
 Total V=0       0.136740D+14         13.135897         30.246520
 Vib (Bot)       0.336359D-05         -5.473197        -12.602501
 Vib (Bot)    1  0.571726D+00         -0.242812         -0.559096
 Vib (Bot)    2  0.559373D+00         -0.252299         -0.580939
 Vib (Bot)    3  0.516567D+00         -0.286873         -0.660550
 Vib (Bot)    4  0.319367D+00         -0.495709         -1.141413
 Vib (Bot)    5  0.305767D+00         -0.514610         -1.184934
 Vib (Bot)    6  0.286784D+00         -0.542445         -1.249025
 Vib (V=0)       0.253111D+01          0.403311          0.928658
 Vib (V=0)    1  0.125952D+01          0.100205          0.230731
 Vib (V=0)    2  0.125027D+01          0.097002          0.223356
 Vib (V=0)    3  0.121892D+01          0.085974          0.197963
 Vib (V=0)    4  0.109329D+01          0.038736          0.089193
 Vib (V=0)    5  0.108608D+01          0.035863          0.082578
 Vib (V=0)    6  0.107641D+01          0.031977          0.073629
 Electronic      0.200000D+01          0.301030          0.693147
 Translational   0.386874D+08          7.587569         17.471024
 Rotational      0.698211D+05          4.843987         11.153692
 
                      C:\Users\pb556\workspace\ticl_thermo\data\dHf_reference_spe
 cies\esc\0_0fine-ClO4_2let.g09
                                                             IR Spectrum
 
      1         1                                                                                                                    
      1         0                           8                           5 5 5                3 33                                    
      4         5                           0                           4 2 1                5 32                                    
      9         8                           1                           8 5 0                6 37                                    
 
      X         X                           X                           X X X                X  X                                    
      X         X                           X                           X X X                                                        
      X         X                                                       X X                                                          
      X         X                                                                                                                    
      X         X                                                                                                                    
      X         X                                                                                                                    
      X         X                                                                                                                    
      X         X                                                                                                                    
      X         X                                                                                                                    
      X         X                                                                                                                    
      X         X                                                                                                                    
      X         X                                                                                                                    
      X         X                                                                                                                    
      X         X                                                                                                                    
      X         X                                                                                                                    
      X         X                                                                                                                    
      X                                                                                                                              
      X                                                                                                                              
      X                                                                                                                              
      X                                                                                                                              
 
 -------------------------------------------------------------------
 Center     Atomic                   Forces (Hartrees/Bohr)
 Number     Number              X              Y              Z
 -------------------------------------------------------------------
      1       17           0.000003403    0.000007267   -0.000003631
      2        8          -0.000002689   -0.000005907    0.000000859
      3        8          -0.000000547   -0.000000960    0.000002984
      4        8          -0.000001451   -0.000000738   -0.000000287
      5        8           0.000001285    0.000000338    0.000000075
 -------------------------------------------------------------------
 Cartesian Forces:  Max     0.000007267 RMS     0.000003001
 Force constants in Cartesian coordinates: 
                1             2             3             4             5 
      1  0.276668D+00
      2  0.694837D-01  0.800422D+00
      3 -0.256250D+00  0.887402D-01  0.496438D+00
      4 -0.818739D-01 -0.111606D+00  0.518754D-01  0.926685D-01
      5 -0.111822D+00 -0.398830D+00  0.654011D-01  0.124587D+00  0.432640D+00
      6  0.518146D-01  0.650837D-01 -0.859883D-01 -0.411409D-01 -0.794525D-01
      7 -0.377626D-02  0.594745D-02 -0.220745D-01  0.581946D-02 -0.500482D-02
      8 -0.237811D-01 -0.730576D-01  0.204261D-01  0.553204D-02 -0.629925D-02
      9  0.879918D-01  0.203999D-01 -0.143399D+00 -0.214250D-01  0.553353D-02
     10 -0.816902D-01  0.700531D-01  0.100841D+00  0.128760D-01 -0.117176D-01
     11  0.702717D-01 -0.262648D+00 -0.168423D+00  0.126813D-01 -0.274383D-01
     12  0.100903D+00 -0.168105D+00 -0.222142D+00  0.148192D-02  0.685630D-02
     13 -0.109327D+00 -0.338784D-01  0.125608D+00 -0.294900D-01  0.395713D-02
     14 -0.415222D-02 -0.658870D-01 -0.614424D-02 -0.311949D-01 -0.728978D-04
     15  0.155408D-01 -0.611910D-02 -0.449074D-01  0.920863D-02  0.166160D-02
                6             7             8             9            10 
      6  0.819048D-01
      7  0.283198D-02  0.524955D-01
      8  0.353803D-01 -0.109070D-01  0.606027D-01
      9 -0.181092D-01  0.403578D-01 -0.435066D-01  0.210141D+00
     10 -0.511515D-02  0.582032D-02  0.600734D-02 -0.212966D-01  0.924702D-01
     11 -0.293779D-01  0.290071D-02  0.849971D-02  0.998361D-02 -0.866758D-01
     12  0.112182D-01  0.495246D-02 -0.198768D-01 -0.329094D-01 -0.980924D-01
     13 -0.839058D-02 -0.603590D-01  0.231488D-01 -0.856279D-01 -0.294763D-01
     14  0.836651D-02  0.706370D-02  0.102544D-01  0.758963D-02  0.223330D-01
     15  0.109746D-01 -0.260677D-01  0.757710D-02 -0.157231D-01  0.236634D-01
               11            12            13            14            15 
     11  0.274506D+00
     12  0.191751D+00  0.240022D+00
     13  0.822031D-03 -0.924488D-02  0.228653D+00
     14  0.708031D-02 -0.106257D-01  0.595042D-02  0.486252D-01
     15 -0.393338D-02  0.381127D-02 -0.223451D-01  0.813784D-03  0.458447D-01
 Red2BG is reusing G-inverse.
 Force constants in internal coordinates: 
                1             2             3             4             5 
      1  0.492425D+00
      2  0.443273D-02  0.231518D+00
      3  0.592525D-02  0.443030D-02  0.492218D+00
      4  0.443352D-02  0.946061D-01  0.442996D-02  0.231413D+00
      5  0.402978D-02  0.435933D-02 -0.627803D-02 -0.128518D-01  0.313408D-01
      6  0.868164D-02  0.806345D-02  0.967304D-02 -0.201726D-01 -0.237986D-01
      7  0.125227D-01 -0.285912D-01 -0.174825D-01  0.164616D-01  0.775308D-02
      8 -0.571961D-02  0.949574D-02  0.683293D-02 -0.268859D-01 -0.100354D-01
      9 -0.561679D-02  0.406934D-01 -0.706778D-02  0.331172D-01 -0.221828D-01
     10 -0.168529D-01 -0.299201D-01  0.109091D-01  0.201892D-01  0.194215D-01
     11 -0.809177D-02 -0.216030D-01 -0.573567D-02  0.595644D-01 -0.141901D-01
     12  0.495141D-02  0.168237D-01 -0.146541D-01  0.549262D-02  0.261817D-01
     13 -0.824421D-02  0.390003D-01 -0.768782D-02 -0.361158D-02  0.949451D-02
     14 -0.131956D-01  0.221766D-01  0.696625D-02 -0.910420D-02 -0.166872D-01
                6             7             8             9            10 
      6  0.960794D-01
      7 -0.545489D-01  0.155421D+00
      8 -0.966801D-02  0.105345D-01  0.490992D-01
      9  0.315140D-01 -0.453702D-01 -0.371573D-01  0.125555D+00
     10 -0.583165D-01 -0.672485D-01 -0.595438D-02 -0.413272D-01  0.161490D+00
     11 -0.417024D-01  0.272316D-01 -0.213829D-01  0.367986D-01  0.289034D-01
     12 -0.251614D-01  0.261433D-01 -0.259627D-01  0.232036D-01 -0.148073D-01
     13 -0.356276D-01 -0.404571D-03  0.938778D-02  0.308512D-01 -0.410626D-03
     14 -0.104663D-01 -0.265479D-01  0.353505D-01  0.764763D-02  0.143966D-01
               11            12            13            14 
     11  0.752680D-01
     12  0.844231D-02  0.464477D-01
     13  0.934428D-02  0.249320D-01  0.497457D-01
     14  0.901966D-03 -0.215156D-01  0.248136D-01  0.463292D-01
 Leave Link  716 at Wed Oct 21 18:37:45 2015, MaxMem=   524288000 cpu:         0.2
 (Enter /opt/g09/l9999.exe)
 1\1\GINC-RODIN\Freq\UB971\6-311+G(d,p)\Cl1O4(2)\PB556\21-Oct-2015\0\\#
 p uB971/6-311+G(d,p) Opt=(Tight, CalcAll, MaxCycles=512, MaxStep=256) 
 Freq GFInput Population=None Integral(Grid=UltraFine) SCF=XQC Guess=MI
 X NoSymmetry\\C:\Users\pb556\workspace\ticl_thermo\data\dHf_reference_
 species\esc\0_0fine-ClO4_2let.g09\\0,2\Cl,-0.10292,0.70338,0.08481\O,-
 0.55334,-0.63834,0.39083\O,-0.41351,1.09501,-1.36497\O,-0.5528,1.70882
 ,1.02472\O,1.41369,0.76223,-0.13449\\Version=ES64L-G09RevD.01\HF=-760.
 5936889\S2=0.760638\S2-1=0.\S2A=0.75004\RMSD=2.463e-09\RMSF=3.001e-06\
 ZeroPoint=0.0127759\Thermal=0.0174724\Dipole=0.0087043,0.0032612,-0.01
 20579\DipoleDeriv=0.4318962,0.3191451,-1.17995,0.319119,2.1212888,0.21
 36262,-1.1799727,0.2135948,1.3891698,-0.280673,-0.1894199,0.1876405,-0
 .1844614,-0.8526874,0.0757452,0.1889591,0.0830615,-0.3779764,-0.035273
 3,-0.0340808,0.1259339,-0.1837486,-0.2958287,-0.0487471,0.6800857,-0.0
 488545,-0.1287255,-0.280555,0.0689831,0.2573302,0.0640439,-0.6633366,-
 0.2420866,0.2560121,-0.2494076,-0.5674159,0.1646051,-0.1646276,0.60904
 54,-0.0149528,-0.3094361,0.0014623,0.0549159,0.0016058,-0.315052\Polar
 =38.1334389,-0.8910055,33.6246804,3.2929278,-0.540896,35.4767899\PG=C0
 1 [X(Cl1O4)]\NImag=0\\0.27666763,0.06948371,0.80042204,-0.25625002,0.0
 8874025,0.49643754,-0.08187392,-0.11160588,0.05187535,0.09266847,-0.11
 182212,-0.39882969,0.06540112,0.12458737,0.43264012,0.05181462,0.06508
 369,-0.08598834,-0.04114088,-0.07945255,0.08190479,-0.00377626,0.00594
 745,-0.02207451,0.00581946,-0.00500482,0.00283198,0.05249545,-0.023781
 11,-0.07305757,0.02042605,0.00553204,-0.00629925,0.03538028,-0.0109070
 4,0.06060274,0.08799176,0.02039986,-0.14339942,-0.02142502,0.00553353,
 -0.01810920,0.04035775,-0.04350663,0.21014109,-0.08169021,0.07005308,0
 .10084068,0.01287596,-0.01171757,-0.00511515,0.00582032,0.00600734,-0.
 02129655,0.09247025,0.07027174,-0.26264783,-0.16842318,0.01268135,-0.0
 2743828,-0.02937793,0.00290071,0.00849971,0.00998361,-0.08667583,0.274
 50609,0.10090286,-0.16810470,-0.22214237,0.00148192,0.00685630,0.01121
 818,0.00495246,-0.01987680,-0.03290936,-0.09809236,0.19175087,0.240022
 28,-0.10932724,-0.03387836,0.12560849,-0.02948997,0.00395713,-0.008390
 58,-0.06035897,0.02314878,-0.08562794,-0.02947632,0.00082203,-0.009244
 88,0.22865250,-0.00415222,-0.06588696,-0.00614424,-0.03119489,-0.00007
 290,0.00836651,0.00706370,0.01025438,0.00758963,0.02233299,0.00708031,
 -0.01062568,0.00595042,0.04862517,0.01554078,-0.00611910,-0.04490741,0
 .00920863,0.00166160,0.01097457,-0.02606769,0.00757710,-0.01572311,0.0
 2366338,-0.00393338,0.00381127,-0.02234509,0.00081378,0.04584468\\-0.0
 0000340,-0.00000727,0.00000363,0.00000269,0.00000591,-0.00000086,0.000
 00055,0.00000096,-0.00000298,0.00000145,0.00000074,0.00000029,-0.00000
 128,-0.00000034,-0.00000007\\\@


 O WAD SOME POWER THE GIFTIE GIE US       
 TO SEE OURSELS AS OTHERS SEE US.....     
 IT WOULD FRAE MONIE A BLUNDER FREE US,   
                     AND FOOLISH NOTION...
 WHAT AIRS IN DRESS AND GAIT WAD LEA'E US,
                     AND EV'N DEVOTION....
                                          
              (ROBERT BURNS 'TO A LOUSE') 
 Leave Link 9999 at Wed Oct 21 18:37:45 2015, MaxMem=   524288000 cpu:         0.2
 Job cpu time:       0 days  0 hours  8 minutes 36.7 seconds.
 File lengths (MBytes):  RWF=     23 Int=      0 D2E=      0 Chk=      2 Scr=      1
 Normal termination of Gaussian 09 at Wed Oct 21 18:37:45 2015.
 (Enter /opt/g09/l1.exe)
 Link1:  Proceeding to internal job step number  2.
 ----------------------------------------------------------------------
 #P Geom=AllCheck Guess=TCheck SCRF=Check GenChk UB971/6-311+G(d,p) Fre
 q
 ----------------------------------------------------------------------
 1/6=512,7=10,8=256,10=4,29=7,30=1,38=1,40=1/1,3;
 2/12=2,15=1,40=1/2;
 3/5=4,6=6,7=111,11=2,14=-4,16=1,24=10,25=1,30=1,70=2,71=2,74=-20,75=-5,116=2,140=1/1,2,3;
 4/5=101/1;
 5/5=2,8=3,13=1,98=1/2,8;
 8/6=4,10=90,11=11/1;
 11/6=1,8=1,9=11,15=111,16=1,31=1/1,2,10;
 10/6=1,31=1/2;
 7/8=1,10=1,25=1,30=1/1,2,3,16;
 1/6=512,7=10,8=256,10=4,30=1/3;
 99//99;
 Leave Link    1 at Wed Oct 21 18:37:45 2015, MaxMem=   524288000 cpu:         0.3
 (Enter /opt/g09/l101.exe)
 Structure from the checkpoint file:  "/scratch/pb556/g09_run/ti_runs//Gau-16085.chk"
 ----------------------------------------------------------------------
 C:\Users\pb556\workspace\ticl_thermo\data\dHf_reference_species\esc\0_
 0fine-ClO4_2let.g09
 ----------------------------------------------------------------------
 Charge =  0 Multiplicity = 2
 Redundant internal coordinates found in file.
 Cl,0,-0.10292,0.70338,0.08481
 O,0,-0.55334,-0.63834,0.39083
 O,0,-0.41351,1.09501,-1.36497
 O,0,-0.5528,1.70882,1.02472
 O,0,1.41369,0.76223,-0.13449
 Recover connectivity data from disk.
 NAtoms=      5 NQM=        5 NQMF=       0 NMMI=      0 NMMIF=      0
                NMic=       0 NMicF=      0.
                    Isotopes and Nuclear Properties:
 (Nuclear quadrupole moments (NQMom) in fm**2, nuclear magnetic moments (NMagM)
  in nuclear magnetons)

  Atom         1           2           3           4           5
 IAtWgt=          35          16          16          16          16
 AtmWgt=  34.9688527  15.9949146  15.9949146  15.9949146  15.9949146
 NucSpn=           3           0           0           0           0
 AtZEff= -14.2400000  -5.6000000  -5.6000000  -5.6000000  -5.6000000
 NQMom=   -8.1650000   0.0000000   0.0000000   0.0000000   0.0000000
 NMagM=    0.8218740   0.0000000   0.0000000   0.0000000   0.0000000
 AtZNuc=  17.0000000   8.0000000   8.0000000   8.0000000   8.0000000
 Leave Link  101 at Wed Oct 21 18:37:45 2015, MaxMem=   524288000 cpu:         1.3
 (Enter /opt/g09/l103.exe)

 GradGradGradGradGradGradGradGradGradGradGradGradGradGradGradGradGradGrad
 Berny optimization.
 Initialization pass.
                           ----------------------------
                           !    Initial Parameters    !
                           ! (Angstroms and Degrees)  !
 --------------------------                            --------------------------
 ! Name  Definition              Value          Derivative Info.                !
 --------------------------------------------------------------------------------
 ! R1    R(1,2)                  1.448          calculate D2E/DX2 analytically  !
 ! R2    R(1,3)                  1.5335         calculate D2E/DX2 analytically  !
 ! R3    R(1,4)                  1.448          calculate D2E/DX2 analytically  !
 ! R4    R(1,5)                  1.5335         calculate D2E/DX2 analytically  !
[...]
 Sum of electronic and thermal Energies=              -760.576216
 Sum of electronic and thermal Enthalpies=            -760.575272
 Sum of electronic and thermal Free Energies=         -760.609471
 
                     E (Thermal)             CV                S
                      KCal/Mol        Cal/Mol-Kelvin    Cal/Mol-Kelvin
 Total                   10.964             15.528             71.978
 Electronic               0.000              0.000              1.377
 Translational            0.889              2.981             39.687
 Rotational               0.889              2.981             25.146
 Vibrational              9.187              9.567              5.768
 Vibration     1          0.711              1.621              1.273
 Vibration     2          0.715              1.609              1.244
 Vibration     3          0.731              1.563              1.140
 Vibration     4          0.865              1.228              0.634
 Vibration     5          0.880              1.194              0.598
 Vibration     6          0.903              1.144              0.548
                       Q            Log10(Q)             Ln(Q)
 Total Bot       0.181715D+08          7.259390         16.715364
 Total V=0       0.136740D+14         13.135897         30.246521
 Vib (Bot)       0.336360D-05         -5.473196        -12.602499
 Vib (Bot)    1  0.571727D+00         -0.242812         -0.559094
 Vib (Bot)    2  0.559373D+00         -0.252299         -0.580939
 Vib (Bot)    3  0.516567D+00         -0.286873         -0.660549
 Vib (Bot)    4  0.319367D+00         -0.495709         -1.141413
 Vib (Bot)    5  0.305767D+00         -0.514610         -1.184933
 Vib (Bot)    6  0.286784D+00         -0.542445         -1.249025
 Vib (V=0)       0.253111D+01          0.403311          0.928658
 Vib (V=0)    1  0.125952D+01          0.100205          0.230731
 Vib (V=0)    2  0.125027D+01          0.097002          0.223356
 Vib (V=0)    3  0.121892D+01          0.085974          0.197963
 Vib (V=0)    4  0.109329D+01          0.038736          0.089193
 Vib (V=0)    5  0.108608D+01          0.035863          0.082578
 Vib (V=0)    6  0.107641D+01          0.031977          0.073629
 Electronic      0.200000D+01          0.301030          0.693147
 Translational   0.386874D+08          7.587569         17.471024
 Rotational      0.698211D+05          4.843987         11.153692
 
                      C:\Users\pb556\workspace\ticl_thermo\data\dHf_reference_spe
 cies\esc\0_0fine-ClO4_2let.g09
                                                             IR Spectrum
 
     1          1                                                                                                                    
     1          0                           8                           5 5 5                3 33                                    
     4          5                           0                           4 2 1                5 32                                    
     9          8                           1                           8 5 0                6 37                                    
 
     X          X                           X                           X X X                X  X                                    
     X          X                           X                           X X X                                                        
     X          X                                                       X X                                                          
     X          X                                                                                                                    
     X          X                                                                                                                    
     X          X                                                                                                                    
     X          X                                                                                                                    
     X          X                                                                                                                    
     X          X                                                                                                                    
     X          X                                                                                                                    
     X          X                                                                                                                    
     X          X                                                                                                                    
     X          X                                                                                                                    
     X          X                                                                                                                    
     X          X                                                                                                                    
     X          X                                                                                                                    
     X                                                                                                                               
     X                                                                                                                               
     X                                                                                                                               
     X                                                                                                                               
 
 -------------------------------------------------------------------
 Center     Atomic                   Forces (Hartrees/Bohr)
 Number     Number              X              Y              Z
 -------------------------------------------------------------------
      1       17           0.000003493    0.000007300   -0.000003635
      2        8          -0.000002715   -0.000005920    0.000000858
      3        8          -0.000000562   -0.000000967    0.000002987
      4        8          -0.000001477   -0.000000745   -0.000000287
      5        8           0.000001260    0.000000332    0.000000077
 -------------------------------------------------------------------
 Cartesian Forces:  Max     0.000007300 RMS     0.000003017
 Force constants in Cartesian coordinates: 
                1             2             3             4             5 
      1  0.276667D+00
      2  0.694837D-01  0.800422D+00
      3 -0.256250D+00  0.887403D-01  0.496437D+00
      4 -0.818739D-01 -0.111606D+00  0.518754D-01  0.926685D-01
      5 -0.111822D+00 -0.398830D+00  0.654011D-01  0.124587D+00  0.432640D+00
      6  0.518146D-01  0.650837D-01 -0.859883D-01 -0.411409D-01 -0.794525D-01
      7 -0.377623D-02  0.594745D-02 -0.220745D-01  0.581945D-02 -0.500482D-02
      8 -0.237811D-01 -0.730576D-01  0.204260D-01  0.553205D-02 -0.629926D-02
      9  0.879918D-01  0.203998D-01 -0.143399D+00 -0.214250D-01  0.553353D-02
     10 -0.816902D-01  0.700531D-01  0.100841D+00  0.128760D-01 -0.117176D-01
     11  0.702718D-01 -0.262648D+00 -0.168423D+00  0.126814D-01 -0.274383D-01
     12  0.100903D+00 -0.168105D+00 -0.222142D+00  0.148192D-02  0.685630D-02
     13 -0.109327D+00 -0.338784D-01  0.125609D+00 -0.294900D-01  0.395713D-02
     14 -0.415221D-02 -0.658869D-01 -0.614425D-02 -0.311949D-01 -0.728986D-04
     15  0.155408D-01 -0.611911D-02 -0.449074D-01  0.920863D-02  0.166160D-02
                6             7             8             9            10 
      6  0.819048D-01
      7  0.283199D-02  0.524955D-01
      8  0.353803D-01 -0.109070D-01  0.606027D-01
      9 -0.181092D-01  0.403578D-01 -0.435066D-01  0.210141D+00
     10 -0.511515D-02  0.582032D-02  0.600734D-02 -0.212966D-01  0.924703D-01
     11 -0.293779D-01  0.290071D-02  0.849970D-02  0.998361D-02 -0.866759D-01
     12  0.112182D-01  0.495246D-02 -0.198768D-01 -0.329094D-01 -0.980924D-01
     13 -0.839058D-02 -0.603590D-01  0.231488D-01 -0.856280D-01 -0.294763D-01
     14  0.836651D-02  0.706370D-02  0.102544D-01  0.758963D-02  0.223330D-01
     15  0.109746D-01 -0.260677D-01  0.757710D-02 -0.157231D-01  0.236634D-01
               11            12            13            14            15 
     11  0.274506D+00
     12  0.191751D+00  0.240022D+00
     13  0.822030D-03 -0.924488D-02  0.228652D+00
     14  0.708030D-02 -0.106257D-01  0.595041D-02  0.486251D-01
     15 -0.393338D-02  0.381127D-02 -0.223451D-01  0.813788D-03  0.458446D-01
 FormGI is forming the generalized inverse of G from B-inverse, IUseBI=4.
 Force constants in internal coordinates: 
                1             2             3             4             5 
      1  0.492425D+00
      2  0.443273D-02  0.231518D+00
      3  0.592525D-02  0.443029D-02  0.492218D+00
      4  0.443353D-02  0.946061D-01  0.442997D-02  0.231413D+00
      5  0.402978D-02  0.435933D-02 -0.627803D-02 -0.128519D-01  0.313408D-01
      6  0.868164D-02  0.806346D-02  0.967303D-02 -0.201726D-01 -0.237986D-01
      7  0.125227D-01 -0.285912D-01 -0.174825D-01  0.164616D-01  0.775308D-02
      8 -0.571961D-02  0.949574D-02  0.683293D-02 -0.268859D-01 -0.100354D-01
      9 -0.561679D-02  0.406934D-01 -0.706779D-02  0.331172D-01 -0.221828D-01
     10 -0.168529D-01 -0.299201D-01  0.109091D-01  0.201892D-01  0.194214D-01
     11 -0.809176D-02 -0.216030D-01 -0.573566D-02  0.595644D-01 -0.141901D-01
     12  0.495141D-02  0.168237D-01 -0.146541D-01  0.549262D-02  0.261817D-01
     13 -0.824421D-02  0.390003D-01 -0.768782D-02 -0.361158D-02  0.949451D-02
     14 -0.131956D-01  0.221766D-01  0.696625D-02 -0.910420D-02 -0.166872D-01
                6             7             8             9            10 
      6  0.960794D-01
      7 -0.545489D-01  0.155421D+00
      8 -0.966801D-02  0.105345D-01  0.490992D-01
      9  0.315140D-01 -0.453702D-01 -0.371573D-01  0.125555D+00
     10 -0.583165D-01 -0.672484D-01 -0.595437D-02 -0.413272D-01  0.161490D+00
     11 -0.417024D-01  0.272316D-01 -0.213829D-01  0.367986D-01  0.289034D-01
     12 -0.251614D-01  0.261433D-01 -0.259627D-01  0.232036D-01 -0.148072D-01
     13 -0.356276D-01 -0.404557D-03  0.938778D-02  0.308512D-01 -0.410613D-03
     14 -0.104663D-01 -0.265478D-01  0.353505D-01  0.764762D-02  0.143966D-01
               11            12            13            14 
     11  0.752680D-01
     12  0.844231D-02  0.464476D-01
     13  0.934427D-02  0.249320D-01  0.497456D-01
     14  0.901966D-03 -0.215156D-01  0.248136D-01  0.463292D-01
 Leave Link  716 at Wed Oct 21 18:38:38 2015, MaxMem=   524288000 cpu:         0.3
 (Enter /opt/g09/l103.exe)

 GradGradGradGradGradGradGradGradGradGradGradGradGradGradGradGradGradGrad
 Berny optimization.
 Red2BG is reusing G-inverse.
 Internal  Forces:  Max     0.000006485 RMS     0.000002080
 Search for a local minimum.
 Step number   1 out of a maximum of    2
 All quantities printed in internal units (Hartrees-Bohrs-Radians)
 Second derivative matrix not updated -- analytic derivatives used.
 The second derivative matrix:
                          R1        R2        R3        R4        A1
           R1           0.49243
           R2           0.00443   0.23152
           R3           0.00593   0.00443   0.49222
           R4           0.00443   0.09461   0.00443   0.23141
           A1           0.00403   0.00436  -0.00628  -0.01285   0.03134
           A2           0.00868   0.00806   0.00967  -0.02017  -0.02380
           A3           0.01252  -0.02859  -0.01748   0.01646   0.00775
           A4          -0.00572   0.00950   0.00683  -0.02689  -0.01004
           A5          -0.00562   0.04069  -0.00707   0.03312  -0.02218
           A6          -0.01685  -0.02992   0.01091   0.02019   0.01942
           D1          -0.00809  -0.02160  -0.00574   0.05956  -0.01419
           D2           0.00495   0.01682  -0.01465   0.00549   0.02618
           D3          -0.00824   0.03900  -0.00769  -0.00361   0.00949
           D4          -0.01320   0.02218   0.00697  -0.00910  -0.01669
                          A2        A3        A4        A5        A6
           A2           0.09608
           A3          -0.05455   0.15542
           A4          -0.00967   0.01053   0.04910
           A5           0.03151  -0.04537  -0.03716   0.12555
           A6          -0.05832  -0.06725  -0.00595  -0.04133   0.16149
           D1          -0.04170   0.02723  -0.02138   0.03680   0.02890
           D2          -0.02516   0.02614  -0.02596   0.02320  -0.01481
           D3          -0.03563  -0.00040   0.00939   0.03085  -0.00041
           D4          -0.01047  -0.02655   0.03535   0.00765   0.01440
                          D1        D2        D3        D4
           D1           0.07527
           D2           0.00844   0.04645
           D3           0.00934   0.02493   0.04975
           D4           0.00090  -0.02152   0.02481   0.04633
 ITU=  0
     Eigenvalues ---    0.02867   0.10103   0.14003   0.17892   0.23155
     Eigenvalues ---    0.25855   0.35400   0.49137   0.50022
 Angle between quadratic step and forces=  34.71 degrees.
 Linear search not attempted -- first point.
 Iteration  1 RMS(Cart)=  0.00000651 RMS(Int)=  0.00000000
 Iteration  2 RMS(Cart)=  0.00000000 RMS(Int)=  0.00000000
 ITry= 1 IFail=0 DXMaxC= 1.36D-05 DCOld= 1.00D+10 DXMaxT= 2.56D+00 DXLimC= 3.00D+00 Rises=F
 Variable       Old X    -DE/DX   Delta X   Delta X   Delta X     New X
                                 (Linear)    (Quad)   (Total)
    R1        2.73635   0.00001   0.00000   0.00001   0.00001   2.73636
    R2        2.89794   0.00000   0.00000  -0.00002  -0.00002   2.89793
    R3        2.73634   0.00000   0.00000   0.00000   0.00000   2.73634
    R4        2.89792   0.00000   0.00000   0.00001   0.00001   2.89793
    A1        1.95350   0.00000   0.00000   0.00000   0.00000   1.95350
    A2        1.99278   0.00000   0.00000   0.00000   0.00000   1.99277
    A3        1.95348   0.00000   0.00000   0.00000   0.00000   1.95348
    A4        1.95348   0.00000   0.00000   0.00000   0.00000   1.95348
    A5        1.62613   0.00000   0.00000   0.00001   0.00001   1.62614
    A6        1.95351   0.00000   0.00000   0.00000   0.00000   1.95352
    D1       -2.24205   0.00000   0.00000   0.00001   0.00001  -2.24204
    D2        2.01027   0.00000   0.00000   0.00000   0.00000   2.01027
    D3       -2.26267   0.00000   0.00000   0.00001   0.00001  -2.26266
    D4        2.01025   0.00000   0.00000   0.00001   0.00001   2.01025
         Item               Value     Threshold  Converged?
 Maximum Force            0.000006     0.000015     YES
 RMS     Force            0.000002     0.000010     YES
 Maximum Displacement     0.000014     0.000060     YES
 RMS     Displacement     0.000007     0.000040     YES
 Predicted change in Energy=-9.504471D-11
 Optimization completed.
    -- Stationary point found.
                           ----------------------------
                           !   Optimized Parameters   !
                           ! (Angstroms and Degrees)  !
 --------------------------                            --------------------------
 ! Name  Definition              Value          Derivative Info.                !
 --------------------------------------------------------------------------------
 ! R1    R(1,2)                  1.448          -DE/DX =    0.0                 !
 ! R2    R(1,3)                  1.5335         -DE/DX =    0.0                 !
 ! R3    R(1,4)                  1.448          -DE/DX =    0.0                 !
 ! R4    R(1,5)                  1.5335         -DE/DX =    0.0                 !
 ! A1    A(2,1,3)              111.9273         -DE/DX =    0.0                 !
 ! A2    A(2,1,4)              114.1776         -DE/DX =    0.0                 !
 ! A3    A(2,1,5)              111.9263         -DE/DX =    0.0                 !
 ! A4    A(3,1,4)              111.9259         -DE/DX =    0.0                 !
 ! A5    A(3,1,5)               93.1704         -DE/DX =    0.0                 !
 ! A6    A(4,1,5)              111.9281         -DE/DX =    0.0                 !
 ! D1    D(2,1,4,3)           -128.4598         -DE/DX =    0.0                 !
 ! D2    D(2,1,5,3)            115.1798         -DE/DX =    0.0                 !
 ! D3    D(2,1,5,4)           -129.6414         -DE/DX =    0.0                 !
 ! D4    D(3,1,5,4)            115.1788         -DE/DX =    0.0                 !
 --------------------------------------------------------------------------------
 GradGradGradGradGradGradGradGradGradGradGradGradGradGradGradGradGradGrad

 Leave Link  103 at Wed Oct 21 18:38:38 2015, MaxMem=   524288000 cpu:         0.0
 (Enter /opt/g09/l9999.exe)
 1\1\GINC-RODIN\Freq\UB971\6-311+G(d,p)\Cl1O4(2)\PB556\21-Oct-2015\0\\#
 P Geom=AllCheck Guess=TCheck SCRF=Check GenChk UB971/6-311+G(d,p) Freq
 \\C:\Users\pb556\workspace\ticl_thermo\data\dHf_reference_species\esc\
 0_0fine-ClO4_2let.g09\\0,2\Cl,-0.10292,0.70338,0.08481\O,-0.55334,-0.6
 3834,0.39083\O,-0.41351,1.09501,-1.36497\O,-0.5528,1.70882,1.02472\O,1
 .41369,0.76223,-0.13449\\Version=ES64L-G09RevD.01\HF=-760.5936889\S2=0
 .760638\S2-1=0.\S2A=0.75004\RMSD=2.067e-09\RMSF=3.017e-06\ZeroPoint=0.
 0127759\Thermal=0.0174724\Dipole=0.0087053,0.0032614,-0.0120576\Dipole
 Deriv=0.4318958,0.3191452,-1.1799505,0.319119,2.1212884,0.2136261,-1.1
 799729,0.2135948,1.3891697,-0.2806731,-0.1894199,0.1876406,-0.1844614,
 -0.8526875,0.0757453,0.1889592,0.0830616,-0.3779763,-0.0352733,-0.0340
 807,0.1259341,-0.1837486,-0.2958287,-0.0487471,0.6800858,-0.0488545,-0
 .1287256,-0.2805551,0.0689831,0.2573303,0.0640439,-0.6633364,-0.242086
 6,0.2560121,-0.2494077,-0.5674159,0.1646057,-0.1646276,0.6090455,-0.01
 49528,-0.3094358,0.0014623,0.0549159,0.0016058,-0.3150519\Polar=38.133
 442,-0.891006,33.6246837,3.2929294,-0.5408951,35.4767915\PG=C01 [X(Cl1
 O4)]\NImag=0\\0.27666745,0.06948372,0.80042200,-0.25625007,0.08874025,
 0.49643748,-0.08187391,-0.11160592,0.05187537,0.09266848,-0.11182214,-
 0.39882970,0.06540112,0.12458740,0.43264013,0.05181463,0.06508370,-0.0
 8598834,-0.04114088,-0.07945255,0.08190479,-0.00377623,0.00594745,-0.0
 2207453,0.00581945,-0.00500482,0.00283199,0.05249546,-0.02378112,-0.07
 305757,0.02042604,0.00553205,-0.00629926,0.03538027,-0.01090704,0.0606
 0274,0.08799181,0.02039985,-0.14339940,-0.02142503,0.00553353,-0.01810
 921,0.04035776,-0.04350663,0.21014108,-0.08169020,0.07005311,0.1008407
 2,0.01287596,-0.01171757,-0.00511515,0.00582032,0.00600734,-0.02129657
 ,0.09247026,0.07027176,-0.26264780,-0.16842317,0.01268135,-0.02743828,
 -0.02937793,0.00290071,0.00849970,0.00998361,-0.08667585,0.27450607,0.
 10090287,-0.16810469,-0.22214237,0.00148192,0.00685630,0.01121818,0.00
 495246,-0.01987680,-0.03290936,-0.09809237,0.19175086,0.24002228,-0.10
 932711,-0.03387836,0.12560851,-0.02948999,0.00395713,-0.00839058,-0.06
 035900,0.02314878,-0.08562797,-0.02947633,0.00082203,-0.00924488,0.228
 65243,-0.00415221,-0.06588693,-0.00614425,-0.03119488,-0.00007290,0.00
 836651,0.00706370,0.01025439,0.00758963,0.02233298,0.00708030,-0.01062
 568,0.00595041,0.04862514,0.01554076,-0.00611911,-0.04490737,0.0092086
 3,0.00166160,0.01097457,-0.02606768,0.00757710,-0.01572311,0.02366338,
 -0.00393338,0.00381127,-0.02234509,0.00081379,0.04584464\\-0.00000349,
 -0.00000730,0.00000364,0.00000271,0.00000592,-0.00000086,0.00000056,0.
 00000097,-0.00000299,0.00000148,0.00000075,0.00000029,-0.00000126,-0.0
 0000033,-0.00000008\\\@


 COMMON SENSE IS NOT SO COMMON.   -- VOLTAIRE
 Job cpu time:       0 days  0 hours  6 minutes 55.9 seconds.
 File lengths (MBytes):  RWF=     23 Int=      0 D2E=      0 Chk=      2 Scr=      1
 Normal termination of Gaussian 09 at Wed Oct 21 18:38:38 2015.
