 Entering Gaussian System, Link 0=g09
 Input=freq-fine-ClO.gau
 Output=freq-fine-ClO.log
 Initial command:
 /opt/g09/l1.exe "/scratch/pb556/g09_run/ticl_thermo//Gau-11205.inp" -scrdir="/scratch/pb556/g09_run/ticl_thermo//"
 Entering Link 1 = /opt/g09/l1.exe PID=     11214.
  
 Copyright (c) 1988,1990,1992,1993,1995,1998,2003,2009,2013,
            Gaussian, Inc.  All Rights Reserved.
  
 This is part of the Gaussian(R) 09 program.  It is based on
 the Gaussian(R) 03 system (copyright 2003, Gaussian, Inc.),
 the Gaussian(R) 98 system (copyright 1998, Gaussian, Inc.),
 the Gaussian(R) 94 system (copyright 1995, Gaussian, Inc.),
 the Gaussian 92(TM) system (copyright 1992, Gaussian, Inc.),
 the Gaussian 90(TM) system (copyright 1990, Gaussian, Inc.),
 the Gaussian 88(TM) system (copyright 1988, Gaussian, Inc.),
 the Gaussian 86(TM) system (copyright 1986, Carnegie Mellon
 University), and the Gaussian 82(TM) system (copyright 1983,
 Carnegie Mellon University). Gaussian is a federally registered
 trademark of Gaussian, Inc.
  
 This software contains proprietary and confidential information,
 including trade secrets, belonging to Gaussian, Inc.
  
 This software is provided under written license and may be
 used, copied, transmitted, or stored only in accord with that
 written license.
  
 The following legend is applicable only to US Government
 contracts under FAR:
  
                    RESTRICTED RIGHTS LEGEND
  
 Use, reproduction and disclosure by the US Government is
 subject to restrictions as set forth in subparagraphs (a)
 and (c) of the Commercial Computer Software - Restricted
 Rights clause in FAR 52.227-19.
  
 Gaussian, Inc.
 340 Quinnipiac St., Bldg. 40, Wallingford CT 06492
  
  
 ---------------------------------------------------------------
 Warning -- This program may not be used in any manner that
 competes with the business of Gaussian, Inc. or will provide
 assistance to any competitor of Gaussian, Inc.  The licensee
 of this program is prohibited from giving any competitor of
 Gaussian, Inc. access to this program.  By using this program,
 the user acknowledges that Gaussian, Inc. is engaged in the
 business of creating and licensing software in the field of
 computational chemistry and represents and warrants to the
 licensee that it is not a competitor of Gaussian, Inc. and that
 it will not use this program in any manner prohibited above.
 ---------------------------------------------------------------
  

 Cite this work as:
 Gaussian 09, Revision D.01,
 M. J. Frisch, G. W. Trucks, H. B. Schlegel, G. E. Scuseria, 
 M. A. Robb, J. R. Cheeseman, G. Scalmani, V. Barone, B. Mennucci, 
 G. A. Petersson, H. Nakatsuji, M. Caricato, X. Li, H. P. Hratchian, 
 A. F. Izmaylov, J. Bloino, G. Zheng, J. L. Sonnenberg, M. Hada, 
 M. Ehara, K. Toyota, R. Fukuda, J. Hasegawa, M. Ishida, T. Nakajima, 
 Y. Honda, O. Kitao, H. Nakai, T. Vreven, J. A. Montgomery, Jr., 
 J. E. Peralta, F. Ogliaro, M. Bearpark, J. J. Heyd, E. Brothers, 
 K. N. Kudin, V. N. Staroverov, T. Keith, R. Kobayashi, J. Normand, 
 K. Raghavachari, A. Rendell, J. C. Burant, S. S. Iyengar, J. Tomasi, 
 M. Cossi, N. Rega, J. M. Millam, M. Klene, J. E. Knox, J. B. Cross, 
 V. Bakken, C. Adamo, J. Jaramillo, R. Gomperts, R. E. Stratmann, 
 O. Yazyev, A. J. Austin, R. Cammi, C. Pomelli, J. W. Ochterski, 
 R. L. Martin, K. Morokuma, V. G. Zakrzewski, G. A. Voth, 
 P. Salvador, J. J. Dannenberg, S. Dapprich, A. D. Daniels, 
 O. Farkas, J. B. Foresman, J. V. Ortiz, J. Cioslowski, 
 and D. J. Fox, Gaussian, Inc., Wallingford CT, 2013.
 
 ******************************************
 Gaussian 09:  ES64L-G09RevD.01 24-Apr-2013
                11-Feb-2015 
 ******************************************
 %NProcShared=8
 Will use up to    8 processors via shared memory.
 %Mem=500MW
 ----------------------------------------------------------------------
 #p uB971/6-311+G(d,p) Opt=(Tight, CalcAll) Freq GFInput Population=Non
 e Integral(Grid=UltraFine) Guess=Mix NoSymmetry
 ----------------------------------------------------------------------
 1/7=10,10=4,14=-1,18=20,19=15,26=4,38=1/1,3;
 2/9=110,12=2,15=1,17=6,18=5,40=1/2;
 3/5=4,6=6,7=111,11=2,16=1,24=10,25=1,30=1,71=2,74=-20,75=-5,116=2,140=1/1,2,3;
 4/13=-1/1;
 5/5=2,38=5/2;
 8/6=4,10=90,11=11/1;
 11/6=1,8=1,9=11,15=111,16=1,31=1/1,2,10;
 10/6=1,31=1/2;
 7/10=1,25=1,30=1/1,2,3,16;
 1/7=10,10=4,14=-1,18=20,19=15,26=4/3(3);
 2/9=110,15=1/2;
 7/8=1,9=1,25=1,30=1,44=-1/16;
 99//99;
 2/9=110,15=1/2;
 3/5=4,6=6,7=111,11=2,16=1,25=1,30=1,71=2,74=-20,75=-5,116=2,140=1/1,2,3;
 4/5=5,16=3,69=1/1;
 5/5=2,38=5/2;
 8/6=4,10=90,11=11/1;
 11/6=1,8=1,9=11,15=111,16=1,31=1/1,2,10;
 10/6=1,31=1/2;
 7/10=1,25=1,30=1/1,2,3,16;
 1/7=10,10=4,14=-1,18=20,19=15,26=4/3(-8);
 2/9=110,15=1/2;
 7/8=1,9=1,25=1,30=1,44=-1/16;
 99//99;
 Leave Link    1 at Wed Feb 11 17:41:46 2015, MaxMem=   524288000 cpu:         0.7
 (Enter /opt/g09/l101.exe)
 ---------------------------------------------
 W:\Data\TiCl\esc\B971\gs\Cl\fine\fine-ClO.g09
 ---------------------------------------------
 Symbolic Z-matrix:
 Charge =  0 Multiplicity = 2
 O                     0.0081    0.        0. 
 Cl                    1.6219    0.        0. 
 
 NAtoms=      2 NQM=        2 NQMF=       0 NMMI=      0 NMMIF=      0
                NMic=       0 NMicF=      0.
                    Isotopes and Nuclear Properties:
 (Nuclear quadrupole moments (NQMom) in fm**2, nuclear magnetic moments (NMagM)
  in nuclear magnetons)

  Atom         1           2
 IAtWgt=          16          35
 AtmWgt=  15.9949146  34.9688527
 NucSpn=           0           3
 AtZEff=   0.0000000   0.0000000
 NQMom=    0.0000000  -8.1650000
 NMagM=    0.0000000   0.8218740
 AtZNuc=   8.0000000  17.0000000
 Leave Link  101 at Wed Feb 11 17:41:47 2015, MaxMem=   524288000 cpu:         1.8
 (Enter /opt/g09/l103.exe)

 GradGradGradGradGradGradGradGradGradGradGradGradGradGradGradGradGradGrad
 Berny optimization.
 Initialization pass.
                           ----------------------------
                           !    Initial Parameters    !
                           ! (Angstroms and Degrees)  !
 --------------------------                            --------------------------
 ! Name  Definition              Value          Derivative Info.                !
 --------------------------------------------------------------------------------
 ! R1    R(1,2)                  1.6138         calculate D2E/DX2 analytically  !
 --------------------------------------------------------------------------------
 Trust Radius=3.00D-01 FncErr=1.00D-07 GrdErr=1.00D-06
 Number of steps in this run=     20 maximum allowed number of steps=    100.
 GradGradGradGradGradGradGradGradGradGradGradGradGradGradGradGradGradGrad

 Leave Link  103 at Wed Feb 11 17:41:47 2015, MaxMem=   524288000 cpu:         0.1
 (Enter /opt/g09/l202.exe)
                          Input orientation:                          
 ---------------------------------------------------------------------
 Center     Atomic      Atomic             Coordinates (Angstroms)
 Number     Number       Type             X           Y           Z
 ---------------------------------------------------------------------
      1          8           0        0.008100    0.000000    0.000000
      2         17           0        1.621900    0.000000    0.000000
 ---------------------------------------------------------------------
 Symmetry turned off by external request.
 Stoichiometry    ClO(2)
 Framework group  C*V[C*(OCl)]
 Deg. of freedom     1
 Full point group                 C*V     NOp   4
 Rotational constants (GHZ):      0.0000000     17.6813731     17.6813731
 Leave Link  202 at Wed Feb 11 17:41:47 2015, MaxMem=   524288000 cpu:         0.0
 (Enter /opt/g09/l301.exe)
 Standard basis: 6-311+G(d,p) (5D, 7F)
 Ernie: Thresh=  0.10000D-02 Tol=  0.10000D-05 Strict=F.
 AO basis set in the form of general basis input (Overlap normalization):
      1 0
 S   6 1.00       0.000000000000
      0.8588500000D+04  0.1895150083D-02
      0.1297230000D+04  0.1438590063D-01
      0.2992960000D+03  0.7073200310D-01
      0.8737710000D+02  0.2400010105D+00
      0.2567890000D+02  0.5947970261D+00
      0.3740040000D+01  0.2808020123D+00
 SP   3 1.00       0.000000000000
      0.4211750000D+02  0.1138890124D+00  0.3651139738D-01
      0.9628370000D+01  0.9208111006D+00  0.2371529830D+00
      0.2853320000D+01 -0.3274470358D-02  0.8197019412D+00
 SP   1 1.00       0.000000000000
      0.9056610000D+00  0.1000000000D+01  0.1000000000D+01
 SP   1 1.00       0.000000000000
      0.2556110000D+00  0.1000000000D+01  0.1000000000D+01
 SP   1 1.00       0.000000000000
      0.8450000000D-01  0.1000000000D+01  0.1000000000D+01
 D   1 1.00       0.000000000000
      0.1292000000D+01  0.1000000000D+01
 ****
      2 0
 S   6 1.00       0.000000000000
      0.1058190000D+06  0.7380002465D-03
      0.1587200000D+05  0.5718001910D-02
      0.3619650000D+04  0.2949500985D-01
      0.1030800000D+04  0.1172860392D+00
      0.3399080000D+03  0.3629491212D+00
      0.1245380000D+03  0.5841491951D+00
 S   3 1.00       0.000000000000
      0.1245380000D+03  0.1341769734D+00
      0.4951350000D+02  0.6242498762D+00
      0.2080560000D+02  0.2917559421D+00
 S   1 1.00       0.000000000000
      0.6583460000D+01  0.1000000000D+01
 S   1 1.00       0.000000000000
      0.2564680000D+01  0.1000000000D+01
 S   1 1.00       0.000000000000
      0.5597630000D+00  0.1000000000D+01
 S   1 1.00       0.000000000000
      0.1832730000D+00  0.1000000000D+01
 SP   1 1.00       0.000000000000
      0.4830000000D-01  0.1000000000D+01  0.1000000000D+01
 P   5 1.00       0.000000000000
      0.5897760000D+03  0.3665569355D-02
      0.1398490000D+03  0.2836791942D-01
      0.4514130000D+02  0.1247566028D+00
      0.1687330000D+02  0.3396546305D+00
      0.2771520000D+01  0.7475859630D+00
 P   2 1.00       0.000000000000
      0.6741100000D+01 -0.1572243813D+01
      0.2771520000D+01  0.9923888817D+00
 P   1 1.00       0.000000000000
      0.1023870000D+01  0.1000000000D+01
 P   1 1.00       0.000000000000
      0.3813680000D+00  0.1000000000D+01
 P   1 1.00       0.000000000000
      0.1094370000D+00  0.1000000000D+01
 D   1 1.00       0.000000000000
      0.7500000000D+00  0.1000000000D+01
 ****

    52 basis functions,    89 primitive gaussians,    54 cartesian basis functions
    13 alpha electrons       12 beta electrons
       nuclear repulsion energy        44.5954271708 Hartrees.
 IExCor= 1614 DFT=T Ex+Corr=B971 ExCW=0 ScaHFX=  0.210000
 ScaDFX=  1.000000  1.000000  1.000000  1.000000 ScalE2=  1.000000  1.000000
 IRadAn=      5 IRanWt=     -1 IRanGd=            0 ICorTp=0 IEmpDi=  4
 NAtoms=    2 NActive=    2 NUniq=    2 SFac= 1.00D+00 NAtFMM=   60 NAOKFM=F Big=F
 Integral buffers will be    131072 words long.
 Raffenetti 2 integral format.
 Two-electron integral symmetry is turned off.
 Leave Link  301 at Wed Feb 11 17:41:47 2015, MaxMem=   524288000 cpu:         0.4
 (Enter /opt/g09/l302.exe)
 NPDir=0 NMtPBC=     1 NCelOv=     1 NCel=       1 NClECP=     1 NCelD=      1
         NCelK=      1 NCelE2=     1 NClLst=     1 CellRange=     0.0.
 One-electron integrals computed using PRISM.
 NBasis=    52 RedAO= T EigKep=  8.64D-03  NBF=    52
 NBsUse=    52 1.00D-06 EigRej= -1.00D+00 NBFU=    52
 Precomputing XC quadrature grid using
 IXCGrd= 4 IRadAn=           5 IRanWt=          -1 IRanGd=           0 AccXCQ= 0.00D+00.
 Generated NRdTot=       0 NPtTot=           0 NUsed=           0 NTot=          32
 NSgBfM=    54    54    54    54    54 MxSgAt=     2 MxSgA2=     2.
 Leave Link  302 at Wed Feb 11 17:41:47 2015, MaxMem=   524288000 cpu:         1.3
 (Enter /opt/g09/l303.exe)
 DipDrv:  MaxL=1.
 Leave Link  303 at Wed Feb 11 17:41:47 2015, MaxMem=   524288000 cpu:         0.4
 (Enter /opt/g09/l401.exe)
 ExpMin= 4.83D-02 ExpMax= 1.06D+05 ExpMxC= 3.62D+03 IAcc=3 IRadAn=         5 AccDes= 0.00D+00
 Harris functional with IExCor= 1614 and IRadAn=       5 diagonalized for initial guess.
 HarFok:  IExCor= 1614 AccDes= 0.00D+00 IRadAn=         5 IDoV= 1 UseB2=F ITyADJ=14
 ICtDFT=  3500011 ScaDFX=  1.000000  1.000000  1.000000  1.000000
 FoFCou: FMM=F IPFlag=           0 FMFlag=      100000 FMFlg1=           0
         NFxFlg=           0 DoJE=T BraDBF=F KetDBF=T FulRan=T
         wScrn=  0.000000 ICntrl=     500 IOpCl=  0 I1Cent=   200000004 NGrid=           0
         NMat0=    1 NMatS0=      1 NMatT0=    0 NMatD0=    1 NMtDS0=    0 NMtDT0=    0
 Symmetry not used in FoFCou.
 Harris En= -527.847168723659    
 JPrj=0 DoOrth=F DoCkMO=T.
 Mixing orbitals, IMix= 1 IMixAn=  0 NRI=1 NE=   13 Coef=  7.07106781D-01  7.07106781D-01
 Mixing orbitals, IMix= 1 IMixAn=  0 NRI=1 NE=   12 Coef= -7.07106781D-01  7.07106781D-01
 Initial guess <Sx>= 0.0000 <Sy>= 0.0000 <Sz>= 0.5000 <S**2>= 1.0000 S= 0.6180
 Leave Link  401 at Wed Feb 11 17:41:47 2015, MaxMem=   524288000 cpu:         1.4
 (Enter /opt/g09/l502.exe)
 UHF open shell SCF:
 Using DIIS extrapolation, IDIIS=  1040.
 Two-electron integral symmetry not used.
 Keep R1 and R2 ints in memory in canonical form, NReq=2803876.
 IVT=       28058 IEndB=       28058 NGot=   524288000 MDV=   522359681
 LenX=   522359681 LenY=   522356324
 Requested convergence on RMS density matrix=1.00D-08 within 128 cycles.
 Requested convergence on MAX density matrix=1.00D-06.
 Requested convergence on             energy=1.00D-06.
 No special actions if energy rises.
 FoFCou: FMM=F IPFlag=           0 FMFlag=           0 FMFlg1=           0
         NFxFlg=           0 DoJE=F BraDBF=F KetDBF=F FulRan=T
         wScrn=  0.000000 ICntrl=     600 IOpCl=  0 I1Cent=           0 NGrid=           0
         NMat0=    1 NMatS0=   1378 NMatT0=    0 NMatD0=    1 NMtDS0=    0 NMtDT0=    0
 Symmetry not used in FoFCou.

 Cycle   1  Pass 1  IDiag  1:
 E= -534.854956114616    
 DIIS: error= 2.36D-01 at cycle   1 NSaved=   1.
 NSaved= 1 IEnMin= 1 EnMin= -534.854956114616     IErMin= 1 ErrMin= 2.36D-01
 ErrMax= 2.36D-01  0.00D+00 EMaxC= 1.00D-01 BMatC= 4.92D+00 BMatP= 4.92D+00
 IDIUse=3 WtCom= 0.00D+00 WtEn= 1.00D+00
 Coeff-Com:  0.100D+01
 Coeff-En:   0.100D+01
 Coeff:      0.100D+01
 Gap=     0.053 Goal=   None    Shift=    0.000
 Gap=     0.077 Goal=   None    Shift=    0.000
 GapD=    0.053 DampG=0.500 DampE=0.250 DampFc=0.2500 IDamp=-1.
 Damping current iteration by 2.50D-01
 RMSDP=4.79D-02 MaxDP=1.13D+00              OVMax= 5.24D-01

 Cycle   2  Pass 1  IDiag  1:
 E= -534.986480345249     Delta-E=       -0.131524230632 Rises=F Damp=T
 DIIS: error= 1.67D-01 at cycle   2 NSaved=   2.
 NSaved= 2 IEnMin= 2 EnMin= -534.986480345249     IErMin= 2 ErrMin= 1.67D-01
 ErrMax= 1.67D-01  0.00D+00 EMaxC= 1.00D-01 BMatC= 2.21D+00 BMatP= 4.92D+00
 IDIUse=3 WtCom= 0.00D+00 WtEn= 1.00D+00
 Coeff-Com: -0.176D+01 0.276D+01
 Coeff-En:   0.000D+00 0.100D+01
 Coeff:      0.000D+00 0.100D+01
 Gap=     0.199 Goal=   None    Shift=    0.000
 Gap=     0.097 Goal=   None    Shift=    0.000
 RMSDP=3.51D-02 MaxDP=8.48D-01 DE=-1.32D-01 OVMax= 1.45D-01

 Cycle   3  Pass 1  IDiag  1:
 E= -535.204299517935     Delta-E=       -0.217819172686 Rises=F Damp=F
 DIIS: error= 3.50D-02 at cycle   3 NSaved=   3.
 NSaved= 3 IEnMin= 3 EnMin= -535.204299517935     IErMin= 3 ErrMin= 3.50D-02
 ErrMax= 3.50D-02  0.00D+00 EMaxC= 1.00D-01 BMatC= 3.22D-01 BMatP= 2.21D+00
 IDIUse=3 WtCom= 6.50D-01 WtEn= 3.50D-01
 Coeff-Com:  0.678D+00-0.713D+00 0.103D+01
 Coeff-En:   0.000D+00 0.000D+00 0.100D+01
 Coeff:      0.441D+00-0.463D+00 0.102D+01
 Gap=     0.239 Goal=   None    Shift=    0.000
 Gap=     0.107 Goal=   None    Shift=    0.000
 RMSDP=6.54D-03 MaxDP=1.39D-01 DE=-2.18D-01 OVMax= 1.00D-01

 Cycle   4  Pass 1  IDiag  1:
 E= -535.249986270706     Delta-E=       -0.045686752771 Rises=F Damp=F
 DIIS: error= 1.42D-02 at cycle   4 NSaved=   4.
 NSaved= 4 IEnMin= 4 EnMin= -535.249986270706     IErMin= 4 ErrMin= 1.42D-02
 ErrMax= 1.42D-02  0.00D+00 EMaxC= 1.00D-01 BMatC= 6.87D-02 BMatP= 3.22D-01
 IDIUse=3 WtCom= 8.58D-01 WtEn= 1.42D-01
 Coeff-Com:  0.264D+00-0.346D+00 0.440D+00 0.642D+00
 Coeff-En:   0.000D+00 0.000D+00 0.250D-01 0.975D+00
 Coeff:      0.226D+00-0.297D+00 0.381D+00 0.690D+00
 Gap=     0.240 Goal=   None    Shift=    0.000
 Gap=     0.104 Goal=   None    Shift=    0.000
 RMSDP=2.31D-03 MaxDP=3.97D-02 DE=-4.57D-02 OVMax= 4.20D-02

 Cycle   5  Pass 1  IDiag  1:
 E= -535.261770241675     Delta-E=       -0.011783970969 Rises=F Damp=F
 DIIS: error= 4.61D-03 at cycle   5 NSaved=   5.
 NSaved= 5 IEnMin= 5 EnMin= -535.261770241675     IErMin= 5 ErrMin= 4.61D-03
 ErrMax= 4.61D-03  0.00D+00 EMaxC= 1.00D-01 BMatC= 4.48D-03 BMatP= 6.87D-02
 IDIUse=3 WtCom= 9.54D-01 WtEn= 4.61D-02
 Coeff-Com: -0.546D-01 0.742D-01 0.563D-01 0.278D+00 0.646D+00
 Coeff-En:   0.000D+00 0.000D+00 0.000D+00 0.000D+00 0.100D+01
 Coeff:     -0.521D-01 0.707D-01 0.537D-01 0.265D+00 0.663D+00
 Gap=     0.235 Goal=   None    Shift=    0.000
 Gap=     0.105 Goal=   None    Shift=    0.000
 RMSDP=5.33D-04 MaxDP=6.08D-03 DE=-1.18D-02 OVMax= 2.59D-02

 Cycle   6  Pass 1  IDiag  1:
 E= -535.262780581680     Delta-E=       -0.001010340005 Rises=F Damp=F
 DIIS: error= 1.82D-03 at cycle   6 NSaved=   6.
 NSaved= 6 IEnMin= 6 EnMin= -535.262780581680     IErMin= 6 ErrMin= 1.82D-03
 ErrMax= 1.82D-03  0.00D+00 EMaxC= 1.00D-01 BMatC= 3.81D-04 BMatP= 4.48D-03
 IDIUse=3 WtCom= 9.82D-01 WtEn= 1.82D-02
 Coeff-Com:  0.189D-01-0.274D-01-0.472D-01-0.113D+00 0.812D-01 0.109D+01
 Coeff-En:   0.000D+00 0.000D+00 0.000D+00 0.000D+00 0.000D+00 0.100D+01
 Coeff:      0.186D-01-0.269D-01-0.464D-01-0.111D+00 0.797D-01 0.109D+01
 Gap=     0.236 Goal=   None    Shift=    0.000
 Gap=     0.106 Goal=   None    Shift=    0.000
 RMSDP=3.54D-04 MaxDP=3.65D-03 DE=-1.01D-03 OVMax= 1.24D-02

 Cycle   7  Pass 1  IDiag  1:
 E= -535.262946426028     Delta-E=       -0.000165844348 Rises=F Damp=F
 DIIS: error= 2.20D-04 at cycle   7 NSaved=   7.
 NSaved= 7 IEnMin= 7 EnMin= -535.262946426028     IErMin= 7 ErrMin= 2.20D-04
 ErrMax= 2.20D-04  0.00D+00 EMaxC= 1.00D-01 BMatC= 8.66D-06 BMatP= 3.81D-04
 IDIUse=3 WtCom= 9.98D-01 WtEn= 2.20D-03
 Coeff-Com: -0.165D-02 0.274D-02 0.126D-02-0.898D-02-0.618D-01-0.193D+00
 Coeff-Com:  0.126D+01
 Coeff-En:   0.000D+00 0.000D+00 0.000D+00 0.000D+00 0.000D+00 0.000D+00
 Coeff-En:   0.100D+01
 Coeff:     -0.165D-02 0.273D-02 0.126D-02-0.896D-02-0.617D-01-0.192D+00
 Coeff:      0.126D+01
 Gap=     0.236 Goal=   None    Shift=    0.000
 Gap=     0.106 Goal=   None    Shift=    0.000
 RMSDP=1.43D-04 MaxDP=1.12D-03 DE=-1.66D-04 OVMax= 4.86D-03

 Cycle   8  Pass 1  IDiag  1:
 E= -535.262961214446     Delta-E=       -0.000014788418 Rises=F Damp=F
 DIIS: error= 7.18D-05 at cycle   8 NSaved=   8.
 NSaved= 8 IEnMin= 8 EnMin= -535.262961214446     IErMin= 8 ErrMin= 7.18D-05
 ErrMax= 7.18D-05  0.00D+00 EMaxC= 1.00D-01 BMatC= 1.23D-06 BMatP= 8.66D-06
 IDIUse=1 WtCom= 1.00D+00 WtEn= 0.00D+00
 Coeff-Com: -0.245D-03 0.478D-03 0.540D-02 0.111D-01-0.155D-01-0.116D+00
 Coeff-Com:  0.110D+00 0.100D+01
 Coeff:     -0.245D-03 0.478D-03 0.540D-02 0.111D-01-0.155D-01-0.116D+00
 Coeff:      0.110D+00 0.100D+01
 Gap=     0.236 Goal=   None    Shift=    0.000
 Gap=     0.106 Goal=   None    Shift=    0.000
 RMSDP=4.15D-05 MaxDP=3.38D-04 DE=-1.48D-05 OVMax= 1.64D-03

 Cycle   9  Pass 1  IDiag  1:
 E= -535.262962651358     Delta-E=       -0.000001436912 Rises=F Damp=F
 DIIS: error= 2.81D-05 at cycle   9 NSaved=   9.
 NSaved= 9 IEnMin= 9 EnMin= -535.262962651358     IErMin= 9 ErrMin= 2.81D-05
 ErrMax= 2.81D-05  0.00D+00 EMaxC= 1.00D-01 BMatC= 1.50D-07 BMatP= 1.23D-06
 IDIUse=1 WtCom= 1.00D+00 WtEn= 0.00D+00
 Coeff-Com: -0.426D-03 0.516D-03-0.131D-03 0.216D-02 0.773D-02 0.168D-01
 Coeff-Com: -0.167D+00 0.407D-01 0.110D+01
 Coeff:     -0.426D-03 0.516D-03-0.131D-03 0.216D-02 0.773D-02 0.168D-01
 Coeff:     -0.167D+00 0.407D-01 0.110D+01
 Gap=     0.236 Goal=   None    Shift=    0.000
 Gap=     0.106 Goal=   None    Shift=    0.000
 RMSDP=1.90D-05 MaxDP=1.59D-04 DE=-1.44D-06 OVMax= 7.67D-04

 Cycle  10  Pass 1  IDiag  1:
 E= -535.262962874641     Delta-E=       -0.000000223283 Rises=F Damp=F
 DIIS: error= 1.06D-05 at cycle  10 NSaved=  10.
 NSaved=10 IEnMin=10 EnMin= -535.262962874641     IErMin=10 ErrMin= 1.06D-05
 ErrMax= 1.06D-05  0.00D+00 EMaxC= 1.00D-01 BMatC= 2.37D-08 BMatP= 1.50D-07
 IDIUse=1 WtCom= 1.00D+00 WtEn= 0.00D+00
 Coeff-Com:  0.122D-03-0.165D-03-0.363D-03-0.131D-02 0.117D-03 0.141D-01
 Coeff-Com: -0.154D-01-0.989D-01-0.105D-01 0.111D+01
 Coeff:      0.122D-03-0.165D-03-0.363D-03-0.131D-02 0.117D-03 0.141D-01
 Coeff:     -0.154D-01-0.989D-01-0.105D-01 0.111D+01
 Gap=     0.236 Goal=   None    Shift=    0.000
 Gap=     0.106 Goal=   None    Shift=    0.000
 RMSDP=5.76D-06 MaxDP=4.52D-05 DE=-2.23D-07 OVMax= 2.07D-04

 Cycle  11  Pass 1  IDiag  1:
 E= -535.262962896165     Delta-E=       -0.000000021524 Rises=F Damp=F
 DIIS: error= 2.77D-06 at cycle  11 NSaved=  11.
 NSaved=11 IEnMin=11 EnMin= -535.262962896165     IErMin=11 ErrMin= 2.77D-06
 ErrMax= 2.77D-06  0.00D+00 EMaxC= 1.00D-01 BMatC= 9.17D-10 BMatP= 2.37D-08
 IDIUse=1 WtCom= 1.00D+00 WtEn= 0.00D+00
 Coeff-Com:  0.217D-04-0.267D-04 0.168D-04-0.694D-04-0.486D-03-0.104D-02
 Coeff-Com:  0.836D-02 0.525D-02-0.690D-01-0.672D-01 0.112D+01
 Coeff:      0.217D-04-0.267D-04 0.168D-04-0.694D-04-0.486D-03-0.104D-02
 Coeff:      0.836D-02 0.525D-02-0.690D-01-0.672D-01 0.112D+01
 Gap=     0.236 Goal=   None    Shift=    0.000
 Gap=     0.106 Goal=   None    Shift=    0.000
 RMSDP=1.20D-06 MaxDP=8.86D-06 DE=-2.15D-08 OVMax= 4.56D-05

 Cycle  12  Pass 1  IDiag  1:
 E= -535.262962897268     Delta-E=       -0.000000001104 Rises=F Damp=F
 DIIS: error= 1.22D-06 at cycle  12 NSaved=  12.
 NSaved=12 IEnMin=12 EnMin= -535.262962897268     IErMin=12 ErrMin= 1.22D-06
 ErrMax= 1.22D-06  0.00D+00 EMaxC= 1.00D-01 BMatC= 1.38D-10 BMatP= 9.17D-10
 IDIUse=1 WtCom= 1.00D+00 WtEn= 0.00D+00
 Coeff-Com: -0.457D-05 0.621D-05 0.250D-04 0.839D-04-0.991D-04-0.981D-03
 Coeff-Com:  0.219D-02 0.846D-02-0.104D-01-0.972D-01 0.159D+00 0.939D+00
 Coeff:     -0.457D-05 0.621D-05 0.250D-04 0.839D-04-0.991D-04-0.981D-03
 Coeff:      0.219D-02 0.846D-02-0.104D-01-0.972D-01 0.159D+00 0.939D+00
 Gap=     0.236 Goal=   None    Shift=    0.000
 Gap=     0.106 Goal=   None    Shift=    0.000
 RMSDP=2.65D-07 MaxDP=3.66D-06 DE=-1.10D-09 OVMax= 8.71D-06

 Cycle  13  Pass 1  IDiag  1:
 E= -535.262962897369     Delta-E=       -0.000000000100 Rises=F Damp=F
 DIIS: error= 4.75D-07 at cycle  13 NSaved=  13.
 NSaved=13 IEnMin=13 EnMin= -535.262962897369     IErMin=13 ErrMin= 4.75D-07
 ErrMax= 4.75D-07  0.00D+00 EMaxC= 1.00D-01 BMatC= 1.81D-11 BMatP= 1.38D-10
 IDIUse=1 WtCom= 1.00D+00 WtEn= 0.00D+00
 Coeff-Com:  0.138D-05-0.207D-05 0.197D-05 0.725D-05 0.625D-05 0.806D-04
 Coeff-Com: -0.779D-03 0.320D-03 0.773D-02 0.213D-02-0.144D+00 0.741D-01
 Coeff-Com:  0.106D+01
 Coeff:      0.138D-05-0.207D-05 0.197D-05 0.725D-05 0.625D-05 0.806D-04
 Coeff:     -0.779D-03 0.320D-03 0.773D-02 0.213D-02-0.144D+00 0.741D-01
 Coeff:      0.106D+01
 Gap=     0.236 Goal=   None    Shift=    0.000
 Gap=     0.106 Goal=   None    Shift=    0.000
 RMSDP=1.04D-07 MaxDP=1.89D-06 DE=-1.00D-10 OVMax= 3.93D-06

 Cycle  14  Pass 1  IDiag  1:
 E= -535.262962897382     Delta-E=       -0.000000000014 Rises=F Damp=F
 DIIS: error= 1.15D-07 at cycle  14 NSaved=  14.
 NSaved=14 IEnMin=14 EnMin= -535.262962897382     IErMin=14 ErrMin= 1.15D-07
 ErrMax= 1.15D-07  0.00D+00 EMaxC= 1.00D-01 BMatC= 1.30D-12 BMatP= 1.81D-11
 IDIUse=1 WtCom= 1.00D+00 WtEn= 0.00D+00
 Coeff-Com:  0.232D-07 0.179D-07-0.202D-05-0.700D-05 0.215D-04 0.111D-03
 Coeff-Com: -0.321D-03-0.104D-02 0.191D-02 0.112D-01-0.313D-01-0.836D-01
 Coeff-Com:  0.705D-01 0.103D+01
 Coeff:      0.232D-07 0.179D-07-0.202D-05-0.700D-05 0.215D-04 0.111D-03
 Coeff:     -0.321D-03-0.104D-02 0.191D-02 0.112D-01-0.313D-01-0.836D-01
 Coeff:      0.705D-01 0.103D+01
 Gap=     0.236 Goal=   None    Shift=    0.000
 Gap=     0.106 Goal=   None    Shift=    0.000
 RMSDP=2.93D-08 MaxDP=4.33D-07 DE=-1.36D-11 OVMax= 8.84D-07

 Cycle  15  Pass 1  IDiag  1:
 E= -535.262962897384     Delta-E=       -0.000000000002 Rises=F Damp=F
 DIIS: error= 3.37D-08 at cycle  15 NSaved=  15.
 NSaved=15 IEnMin=15 EnMin= -535.262962897384     IErMin=15 ErrMin= 3.37D-08
 ErrMax= 3.37D-08  0.00D+00 EMaxC= 1.00D-01 BMatC= 1.00D-13 BMatP= 1.30D-12
 IDIUse=1 WtCom= 1.00D+00 WtEn= 0.00D+00
 Coeff-Com: -0.821D-07 0.104D-06-0.119D-06 0.104D-06 0.572D-06-0.191D-04
 Coeff-Com:  0.734D-04 0.728D-05-0.599D-03-0.791D-03 0.125D-01-0.910D-03
 Coeff-Com: -0.808D-01-0.259D-01 0.110D+01
 Coeff:     -0.821D-07 0.104D-06-0.119D-06 0.104D-06 0.572D-06-0.191D-04
 Coeff:      0.734D-04 0.728D-05-0.599D-03-0.791D-03 0.125D-01-0.910D-03
 Coeff:     -0.808D-01-0.259D-01 0.110D+01
 Gap=     0.236 Goal=   None    Shift=    0.000
 Gap=     0.106 Goal=   None    Shift=    0.000
 RMSDP=7.07D-09 MaxDP=1.03D-07 DE=-1.59D-12 OVMax= 2.72D-07

 SCF Done:  E(UB971) =  -535.262962897     A.U. after   15 cycles
            NFock= 15  Conv=0.71D-08     -V/T= 2.0020
 <Sx>= 0.0000 <Sy>= 0.0000 <Sz>= 0.5000 <S**2>= 0.7543 S= 0.5021
 <L.S>= 0.000000000000E+00
 KE= 5.341809014712D+02 PE=-1.360760711133D+03 EE= 2.467214195939D+02
 Annihilation of the first spin contaminant:
 S**2 before annihilation     0.7543,   after     0.7500
 Leave Link  502 at Wed Feb 11 17:41:49 2015, MaxMem=   524288000 cpu:        15.0
 (Enter /opt/g09/l801.exe)
 DoSCS=F DFT=T ScalE2(SS,OS)=  1.000000  1.000000
 Range of M.O.s used for correlation:     1    52
 NBasis=    52 NAE=    13 NBE=    12 NFC=     0 NFV=     0
 NROrb=     52 NOA=    13 NOB=    12 NVA=    39 NVB=    40
 Leave Link  801 at Wed Feb 11 17:41:49 2015, MaxMem=   524288000 cpu:         0.3
 (Enter /opt/g09/l1101.exe)
 Using compressed storage, NAtomX=     2.
 Will process      3 centers per pass.
 Leave Link 1101 at Wed Feb 11 17:41:50 2015, MaxMem=   524288000 cpu:         1.2
 (Enter /opt/g09/l1102.exe)
 Symmetrizing basis deriv contribution to polar:
 IMax=3 JMax=2 DiffMx= 0.00D+00
 Leave Link 1102 at Wed Feb 11 17:41:50 2015, MaxMem=   524288000 cpu:         0.3
 (Enter /opt/g09/l1110.exe)
 Forming Gx(P) for the SCF density, NAtomX=     2.
 Integral derivatives from FoFJK, PRISM(SPDF).
 Do as many integral derivatives as possible in FoFJK.
 G2DrvN: MDV=     524287880.
 G2DrvN: will do     3 centers at a time, making    1 passes.
 Calling FoFCou, ICntrl=  3107 FMM=F I1Cent=   0 AccDes= 0.00D+00.
 FoFJK:  IHMeth= 1 ICntrl=    3107 DoSepK=F KAlg= 0 I1Cent=   0 FoldK=F
 IRaf=         0 NMat=   1 IRICut=       1 DoRegI=T DoRafI=F ISym2E= 0.
 FoFCou: FMM=F IPFlag=           0 FMFlag=      100000 FMFlg1=           0
         NFxFlg=           0 DoJE=F BraDBF=F KetDBF=F FulRan=T
         wScrn=  0.000000 ICntrl=    3107 IOpCl=  1 I1Cent=           0 NGrid=           0
         NMat0=    1 NMatS0=      1 NMatT0=    0 NMatD0=    1 NMtDS0=    0 NMtDT0=    0
 Symmetry not used in FoFCou.
 End of G2Drv F.D. properties file   721 does not exist.
 End of G2Drv F.D. properties file   722 does not exist.
 End of G2Drv F.D. properties file   788 does not exist.
 Leave Link 1110 at Wed Feb 11 17:41:51 2015, MaxMem=   524288000 cpu:         7.1
 (Enter /opt/g09/l1002.exe)
 Minotr:  UHF open shell wavefunction.
          IDoAtm=11
          Direct CPHF calculation.
          Differentiating once with respect to electric field.
                with respect to dipole field.
          Differentiating once with respect to nuclear coordinates.
          Requested convergence is 1.0D-08 RMS, and 1.0D-07 maximum.
          Secondary convergence is 1.0D-12 RMS, and 1.0D-12 maximum.
          NewPWx=T KeepS1=F KeepF1=F KeepIn=T MapXYZ=F SortEE=F KeepMc=T.
          MDV=     524287872 using IRadAn=       1.
 Generate precomputed XC quadrature information.
 Keep R1 and R2 ints in memory in canonical form, NReq=2773744.
 FoFCou: FMM=F IPFlag=           0 FMFlag=           0 FMFlg1=           0
         NFxFlg=           0 DoJE=F BraDBF=F KetDBF=F FulRan=T
         wScrn=  0.000000 ICntrl=     600 IOpCl=  0 I1Cent=           0 NGrid=           0
         NMat0=    1 NMatS0=   1378 NMatT0=    0 NMatD0=    1 NMtDS0=    0 NMtDT0=    0
 Symmetry not used in FoFCou.
          Solving linear equations simultaneously, MaxMat=       0.
          There are     9 degrees of freedom in the 1st order CPHF.  IDoFFX=6 NUNeed=     3.
      6 vectors produced by pass  0 Test12= 1.10D-14 1.11D-08 XBig12= 6.54D+01 5.99D+00.
 AX will form     6 AO Fock derivatives at one time.
      6 vectors produced by pass  1 Test12= 1.10D-14 1.11D-08 XBig12= 3.47D+01 1.47D+00.
      6 vectors produced by pass  2 Test12= 1.10D-14 1.11D-08 XBig12= 3.78D+00 9.24D-01.
      6 vectors produced by pass  3 Test12= 1.10D-14 1.11D-08 XBig12= 4.14D-01 2.21D-01.
      6 vectors produced by pass  4 Test12= 1.10D-14 1.11D-08 XBig12= 9.90D-03 2.34D-02.
      6 vectors produced by pass  5 Test12= 1.10D-14 1.11D-08 XBig12= 1.13D-04 2.64D-03.
      6 vectors produced by pass  6 Test12= 1.10D-14 1.11D-08 XBig12= 2.32D-06 1.06D-03.
      4 vectors produced by pass  7 Test12= 1.10D-14 1.11D-08 XBig12= 3.75D-07 3.30D-04.
      3 vectors produced by pass  8 Test12= 1.10D-14 1.11D-08 XBig12= 6.45D-09 2.35D-05.
      1 vectors produced by pass  9 Test12= 1.10D-14 1.11D-08 XBig12= 8.38D-11 2.47D-06.
      1 vectors produced by pass 10 Test12= 1.10D-14 1.11D-08 XBig12= 3.78D-13 1.42D-07.
      1 vectors produced by pass 11 Test12= 1.10D-14 1.11D-08 XBig12= 2.05D-15 1.30D-08.
 InvSVY:  IOpt=1 It=  1 EMax= 6.66D-16
 Solved reduced A of dimension    52 with     6 vectors.
 FullF1:  Do perturbations    1 to     3.
 Isotropic polarizability for W=    0.000000       15.12 Bohr**3.
 End of Minotr F.D. properties file   721 does not exist.
 End of Minotr F.D. properties file   722 does not exist.
 End of Minotr F.D. properties file   788 does not exist.
 Leave Link 1002 at Wed Feb 11 17:41:52 2015, MaxMem=   524288000 cpu:        11.9
 (Enter /opt/g09/l701.exe)
 Compute integral second derivatives.
 ... and contract with generalized density number  0.
 Leave Link  701 at Wed Feb 11 17:41:53 2015, MaxMem=   524288000 cpu:         2.1
 (Enter /opt/g09/l702.exe)
 L702 exits ... SP integral derivatives will be done elsewhere.
 Leave Link  702 at Wed Feb 11 17:41:53 2015, MaxMem=   524288000 cpu:         0.3
 (Enter /opt/g09/l703.exe)
 Compute integral second derivatives, UseDBF=F ICtDFT=           0.
 Integral derivatives from FoFJK, PRISM(SPDF).
 Calling FoFJK, ICntrl=    100127 FMM=F ISym2X=0 I1Cent= 0 IOpClX= 1 NMat=1 NMatS=1 NMatT=0.
 FoFJK:  IHMeth= 1 ICntrl=  100127 DoSepK=F KAlg= 0 I1Cent=   0 FoldK=F
 IRaf=         0 NMat=   1 IRICut=       1 DoRegI=T DoRafI=F ISym2E= 0.
 FoFCou: FMM=F IPFlag=           0 FMFlag=      100000 FMFlg1=         800
         NFxFlg=           0 DoJE=F BraDBF=F KetDBF=F FulRan=T
         wScrn=  0.000000 ICntrl=  100127 IOpCl=  1 I1Cent=           0 NGrid=           0
         NMat0=    1 NMatS0=      1 NMatT0=    0 NMatD0=    1 NMtDS0=    0 NMtDT0=    0
 Symmetry not used in FoFCou.
 Leave Link  703 at Wed Feb 11 17:41:55 2015, MaxMem=   524288000 cpu:        15.7
 (Enter /opt/g09/l716.exe)
 Dipole        = 5.86150728D-01 1.09488041D-08-1.26406492D-08
 Polarizability= 2.58311946D+01 1.37282119D-05 9.94204710D+00
                -2.88063209D-06-1.46772731D-01 9.60043441D+00
 -------------------------------------------------------------------
 Center     Atomic                   Forces (Hartrees/Bohr)
 Number     Number              X              Y              Z
 -------------------------------------------------------------------
      1        8          -0.000001324   -0.000000001    0.000000000
      2       17           0.000001324    0.000000001    0.000000000
 -------------------------------------------------------------------
 Cartesian Forces:  Max     0.000001324 RMS     0.000000765
 Force constants in Cartesian coordinates: 
                1             2             3             4             5 
      1  0.280666D+00
      2  0.100622D-05  0.451860D-04
      3  0.000000D+00 -0.268983D-05  0.328620D-04
      4 -0.280666D+00 -0.100622D-05  0.000000D+00  0.280666D+00
      5 -0.100622D-05 -0.451860D-04  0.268983D-05  0.100622D-05  0.451860D-04
      6  0.000000D+00  0.268983D-05 -0.328620D-04  0.000000D+00 -0.268983D-05
                6 
      6  0.328620D-04
 FormGI is forming the generalized inverse of G from B-inverse, IUseBI=4.
 Force constants in internal coordinates: 
                1 
      1  0.280666D+00
 Leave Link  716 at Wed Feb 11 17:41:55 2015, MaxMem=   524288000 cpu:         0.3
 (Enter /opt/g09/l103.exe)

 GradGradGradGradGradGradGradGradGradGradGradGradGradGradGradGradGradGrad
 Berny optimization.
 Red2BG is reusing G-inverse.
 Internal  Forces:  Max     0.000001324 RMS     0.000001324
 Search for a local minimum.
 Step number   1 out of a maximum of   20
 All quantities printed in internal units (Hartrees-Bohrs-Radians)
 RMS Force = .13245D-05 SwitMx=.10000D-02 MixMth= 2
 Mixed Optimization -- En-DIIS/RFO-DIIS
 Second derivative matrix not updated -- analytic derivatives used.
 The second derivative matrix:
                          R1
           R1           0.28067
 ITU=  0
     Eigenvalues ---    0.28067
 RFO step:  Lambda=-6.25041685D-12 EMin= 2.80665726D-01
 Linear search not attempted -- first point.
 Iteration  1 RMS(Cart)=  0.00000334 RMS(Int)=  0.00000000
 Iteration  2 RMS(Cart)=  0.00000000 RMS(Int)=  0.00000000
 ITry= 1 IFail=0 DXMaxC= 2.36D-06 DCOld= 1.00D+10 DXMaxT= 3.00D-01 DXLimC= 3.00D+00 Rises=F
 Variable       Old X    -DE/DX   Delta X   Delta X   Delta X     New X
                                 (Linear)    (Quad)   (Total)
    R1        3.04964   0.00000   0.00000   0.00000   0.00000   3.04964
         Item               Value     Threshold  Converged?
 Maximum Force            0.000001     0.000015     YES
 RMS     Force            0.000001     0.000010     YES
 Maximum Displacement     0.000002     0.000060     YES
 RMS     Displacement     0.000003     0.000040     YES
 Predicted change in Energy=-3.125205D-12
 Optimization completed.
    -- Stationary point found.
                           ----------------------------
                           !   Optimized Parameters   !
                           ! (Angstroms and Degrees)  !
 --------------------------                            --------------------------
 ! Name  Definition              Value          Derivative Info.                !
 --------------------------------------------------------------------------------
 ! R1    R(1,2)                  1.6138         -DE/DX =    0.0                 !
 --------------------------------------------------------------------------------
 Lowest energy point so far.  Saving SCF results.
 GradGradGradGradGradGradGradGradGradGradGradGradGradGradGradGradGradGrad

 Largest change from initial coordinates is atom    0       0.000 Angstoms.
 Leave Link  103 at Wed Feb 11 17:41:55 2015, MaxMem=   524288000 cpu:         0.0
 (Enter /opt/g09/l202.exe)
                          Input orientation:                          
 ---------------------------------------------------------------------
 Center     Atomic      Atomic             Coordinates (Angstroms)
 Number     Number       Type             X           Y           Z
 ---------------------------------------------------------------------
      1          8           0        0.008100    0.000000    0.000000
      2         17           0        1.621900    0.000000    0.000000
 ---------------------------------------------------------------------
 Symmetry turned off by external request.
 Stoichiometry    ClO(2)
 Framework group  C*V[C*(OCl)]
 Deg. of freedom     1
 Full point group                 C*V     NOp   4
 Rotational constants (GHZ):      0.0000000     17.6813731     17.6813731
 Leave Link  202 at Wed Feb 11 17:41:55 2015, MaxMem=   524288000 cpu:         0.0
 (Enter /opt/g09/l716.exe)
 Dipole        = 5.86150728D-01 1.09488041D-08-1.26406492D-08
 Polarizability= 2.58311946D+01 1.37282119D-05 9.94204710D+00
                -2.88063209D-06-1.46772731D-01 9.60043441D+00
 Full mass-weighted force constant matrix:
 Low frequencies ---   -0.0050   -0.0012   -0.0009    8.8188   10.4951  822.0497
 Diagonal vibrational polarizability:
        0.4077292       0.0000000       0.0000000
 Harmonic frequencies (cm**-1), IR intensities (KM/Mole), Raman scattering
 activities (A**4/AMU), depolarization ratios for plane and unpolarized
 incident light, reduced masses (AMU), force constants (mDyne/A),
 and normal coordinates:
                      1
                      A
 Frequencies --    822.0497
 Red. masses --     19.2778
 Frc consts  --      7.6754
 IR Inten    --     10.2385
  Atom  AN      X      Y      Z
     1   8     0.91   0.00   0.00
     2  17    -0.42   0.00   0.00

 -------------------
 - Thermochemistry -
 -------------------
 Temperature   298.150 Kelvin.  Pressure   1.00000 Atm.
 Atom     1 has atomic number  8 and mass  15.99491
 Atom     2 has atomic number 17 and mass  34.96885
 Molecular mass:    50.96377 amu.
 Principal axes and moments of inertia in atomic units:
                           1         2         3
     Eigenvalues --     0.00000 102.07020 102.07020
           X            1.00000   0.00000   0.00000
           Y            0.00000   1.00000   0.00000
           Z            0.00000   0.00000   1.00000
 This molecule is a prolate symmetric top.
 Rotational symmetry number  1.
 Rotational temperature (Kelvin)      0.84857
 Rotational constant (GHZ):          17.681373
 Zero-point vibrational energy       4916.9 (Joules/Mol)
                                    1.17518 (Kcal/Mol)
 Vibrational temperatures:   1182.74
          (Kelvin)
 
 Zero-point correction=                           0.001873 (Hartree/Particle)
 Thermal correction to Energy=                    0.004306
 Thermal correction to Enthalpy=                  0.005250
 Thermal correction to Gibbs Free Energy=        -0.019891
 Sum of electronic and zero-point Energies=           -535.261090
 Sum of electronic and thermal Energies=              -535.258657
 Sum of electronic and thermal Enthalpies=            -535.257713
 Sum of electronic and thermal Free Energies=         -535.282853
 
                     E (Thermal)             CV                S
                      KCal/Mol        Cal/Mol-Kelvin    Cal/Mol-Kelvin
 Total                    2.702              5.583             52.912
 Electronic               0.000              0.000              1.377
 Translational            0.889              2.981             37.709
 Rotational               0.592              1.987             13.636
 Vibrational              1.221              0.615              0.190
                       Q            Log10(Q)             Ln(Q)
 Total Bot       0.140933D+10          9.149013         21.066382
 Total V=0       0.102429D+11         10.010425         23.049854
 Vib (Bot)       0.140246D+00         -0.853111         -1.964360
 Vib (V=0)       0.101930D+01          0.008301          0.019113
 Electronic      0.200000D+01          0.301030          0.693147
 Translational   0.143004D+08          7.155347         16.475796
 Rotational      0.351355D+03          2.545747          5.861798
 -------------------------------------------------------------------
 Center     Atomic                   Forces (Hartrees/Bohr)
 Number     Number              X              Y              Z
 -------------------------------------------------------------------
      1        8          -0.000001324   -0.000000001    0.000000000
      2       17           0.000001324    0.000000001    0.000000000
 -------------------------------------------------------------------
 Cartesian Forces:  Max     0.000001324 RMS     0.000000765
 Force constants in Cartesian coordinates: 
                1             2             3             4             5 
      1  0.280666D+00
      2  0.100622D-05  0.451860D-04
      3  0.000000D+00 -0.268983D-05  0.328620D-04
      4 -0.280666D+00 -0.100622D-05  0.000000D+00  0.280666D+00
      5 -0.100622D-05 -0.451860D-04  0.268983D-05  0.100622D-05  0.451860D-04
      6  0.000000D+00  0.268983D-05 -0.328620D-04  0.000000D+00 -0.268983D-05
                6 
      6  0.328620D-04
 Red2BG is reusing G-inverse.
 Force constants in internal coordinates: 
                1 
      1  0.280666D+00
 Leave Link  716 at Wed Feb 11 17:41:55 2015, MaxMem=   524288000 cpu:         0.3
 (Enter /opt/g09/l9999.exe)
 1\1\GINC-RENOIR\Freq\UB971\6-311+G(d,p)\Cl1O1(2)\PB556\11-Feb-2015\0\\
 #p uB971/6-311+G(d,p) Opt=(Tight, CalcAll) Freq GFInput Population=Non
 e Integral(Grid=UltraFine) Guess=Mix NoSymmetry\\W:\Data\TiCl\esc\B971
 \gs\Cl\fine\fine-ClO.g09\\0,2\O,0.0081,0.,0.\Cl,1.6219,0.,0.\\Version=
 ES64L-G09RevD.01\HF=-535.2629629\S2=0.754289\S2-1=0.\S2A=0.750013\RMSD
 =7.069e-09\RMSF=7.647e-07\ZeroPoint=0.0018728\Thermal=0.0043055\Dipole
 =0.5861507,0.,0.\DipoleDeriv=0.3395023,0.0000006,-0.0000001,-0.0000229
 ,-0.192252,0.0000124,0.0000112,0.0000075,-0.1922364,-0.3395023,-0.0000
 006,0.0000001,0.0000229,0.192252,-0.0000124,-0.0000112,-0.0000075,0.19
 22364\Polar=25.8311946,0.0000137,9.9420471,-0.0000029,-0.1467727,9.600
 4344\PG=C*V [C*(O1Cl1)]\NImag=0\\0.28066573,0.00000101,0.00004519,-0.0
 0000049,-0.00000269,0.00003286,-0.28066573,-0.00000101,0.00000049,0.28
 066573,-0.00000101,-0.00004519,0.00000269,0.00000101,0.00004519,0.0000
 0049,0.00000269,-0.00003286,-0.00000049,-0.00000269,0.00003286\\0.0000
 0132,0.,0.,-0.00000132,0.,0.\\\@


 ALMOST ALL THE CHEMICAL PROCESSES WHICH OCCUR IN NATURE,
 WHETHER IN ANIMAL OR VEGETABLE ORGANISMS,
 OR IN THE NON-LIVING SURFACE OF THE EARTH ... 
 TAKE PLACE BETWEEN SUBSTANCES IN SOLUTION

                                    -- W. OSTWALD, 1890
 Leave Link 9999 at Wed Feb 11 17:41:55 2015, MaxMem=   524288000 cpu:         0.3
 Job cpu time:       0 days  0 hours  1 minutes  4.9 seconds.
 File lengths (MBytes):  RWF=      5 Int=      0 D2E=      0 Chk=      1 Scr=      1
 Normal termination of Gaussian 09 at Wed Feb 11 17:41:55 2015.
 (Enter /opt/g09/l1.exe)
 Link1:  Proceeding to internal job step number  2.
 ----------------------------------------------------------------------
 #P Geom=AllCheck Guess=TCheck SCRF=Check GenChk UB971/6-311+G(d,p) Fre
 q
 ----------------------------------------------------------------------
 1/7=10,10=4,29=7,30=1,38=1,40=1/1,3;
 2/12=2,15=1,40=1/2;
 3/5=4,6=6,7=111,11=2,14=-4,16=1,24=10,25=1,30=1,70=2,71=2,74=-20,75=-5,116=2,140=1/1,2,3;
 4/5=101/1;
 5/5=2,98=1/2;
 8/6=4,10=90,11=11/1;
 11/6=1,8=1,9=11,15=111,16=1,31=1/1,2,10;
 10/6=1,31=1/2;
 7/8=1,10=1,25=1,30=1/1,2,3,16;
 1/7=10,10=4,30=1/3;
 99//99;
 Leave Link    1 at Wed Feb 11 17:41:55 2015, MaxMem=   524288000 cpu:         0.5
 (Enter /opt/g09/l101.exe)
 Structure from the checkpoint file:  "/scratch/pb556/g09_run/ticl_thermo//Gau-11214.chk"
 ---------------------------------------------
 W:\Data\TiCl\esc\B971\gs\Cl\fine\fine-ClO.g09
 ---------------------------------------------
 Charge =  0 Multiplicity = 2
 Redundant internal coordinates found in file.
 O,0,0.0081,0.,0.
 Cl,0,1.6219,0.,0.
 Recover connectivity data from disk.
 NAtoms=      2 NQM=        2 NQMF=       0 NMMI=      0 NMMIF=      0
                NMic=       0 NMicF=      0.
                    Isotopes and Nuclear Properties:
 (Nuclear quadrupole moments (NQMom) in fm**2, nuclear magnetic moments (NMagM)
  in nuclear magnetons)

  Atom         1           2
 IAtWgt=          16          35
 AtmWgt=  15.9949146  34.9688527
 NucSpn=           0           3
 AtZEff=  -5.6000000 -14.2400000
 NQMom=    0.0000000  -8.1650000
 NMagM=    0.0000000   0.8218740
 AtZNuc=   8.0000000  17.0000000
 Leave Link  101 at Wed Feb 11 17:41:55 2015, MaxMem=   524288000 cpu:         1.7
 (Enter /opt/g09/l103.exe)

 GradGradGradGradGradGradGradGradGradGradGradGradGradGradGradGradGradGrad
 Berny optimization.
 Initialization pass.
                           ----------------------------
                           !    Initial Parameters    !
                           ! (Angstroms and Degrees)  !
 --------------------------                            --------------------------
 ! Name  Definition              Value          Derivative Info.                !
 --------------------------------------------------------------------------------
 ! R1    R(1,2)                  1.6138         calculate D2E/DX2 analytically  !
 --------------------------------------------------------------------------------
 Trust Radius=3.00D-01 FncErr=1.00D-07 GrdErr=1.00D-07
 Number of steps in this run=      2 maximum allowed number of steps=      2.
 GradGradGradGradGradGradGradGradGradGradGradGradGradGradGradGradGradGrad

 Leave Link  103 at Wed Feb 11 17:41:55 2015, MaxMem=   524288000 cpu:         0.1
 (Enter /opt/g09/l202.exe)
                          Input orientation:                          
 ---------------------------------------------------------------------
 Center     Atomic      Atomic             Coordinates (Angstroms)
 Number     Number       Type             X           Y           Z
 ---------------------------------------------------------------------
      1          8           0        0.008100    0.000000    0.000000
      2         17           0        1.621900    0.000000    0.000000
 ---------------------------------------------------------------------
 Symmetry turned off by external request.
 Stoichiometry    ClO(2)
 Framework group  C*V[C*(OCl)]
 Deg. of freedom     1
 Full point group                 C*V     NOp   4
 Rotational constants (GHZ):      0.0000000     17.6813731     17.6813731
 Leave Link  202 at Wed Feb 11 17:41:56 2015, MaxMem=   524288000 cpu:         0.0
 (Enter /opt/g09/l301.exe)
 Standard basis: 6-311+G(d,p) (5D, 7F)
 Ernie: Thresh=  0.10000D-02 Tol=  0.10000D-05 Strict=F.
 AO basis set in the form of general basis input (Overlap normalization):
      1 0
 S   6 1.00       0.000000000000
      0.8588500000D+04  0.1895150083D-02
      0.1297230000D+04  0.1438590063D-01
      0.2992960000D+03  0.7073200310D-01
      0.8737710000D+02  0.2400010105D+00
      0.2567890000D+02  0.5947970261D+00
      0.3740040000D+01  0.2808020123D+00
 SP   3 1.00       0.000000000000
      0.4211750000D+02  0.1138890124D+00  0.3651139738D-01
      0.9628370000D+01  0.9208111006D+00  0.2371529830D+00
      0.2853320000D+01 -0.3274470358D-02  0.8197019412D+00
 SP   1 1.00       0.000000000000
      0.9056610000D+00  0.1000000000D+01  0.1000000000D+01
 SP   1 1.00       0.000000000000
      0.2556110000D+00  0.1000000000D+01  0.1000000000D+01
 SP   1 1.00       0.000000000000
      0.8450000000D-01  0.1000000000D+01  0.1000000000D+01
 D   1 1.00       0.000000000000
      0.1292000000D+01  0.1000000000D+01
 ****
      2 0
 S   6 1.00       0.000000000000
      0.1058190000D+06  0.7380002465D-03
      0.1587200000D+05  0.5718001910D-02
      0.3619650000D+04  0.2949500985D-01
      0.1030800000D+04  0.1172860392D+00
      0.3399080000D+03  0.3629491212D+00
      0.1245380000D+03  0.5841491951D+00
 S   3 1.00       0.000000000000
      0.1245380000D+03  0.1341769734D+00
      0.4951350000D+02  0.6242498762D+00
      0.2080560000D+02  0.2917559421D+00
 S   1 1.00       0.000000000000
      0.6583460000D+01  0.1000000000D+01
 S   1 1.00       0.000000000000
      0.2564680000D+01  0.1000000000D+01
 S   1 1.00       0.000000000000
      0.5597630000D+00  0.1000000000D+01
 S   1 1.00       0.000000000000
      0.1832730000D+00  0.1000000000D+01
 SP   1 1.00       0.000000000000
      0.4830000000D-01  0.1000000000D+01  0.1000000000D+01
 P   5 1.00       0.000000000000
      0.5897760000D+03  0.3665569355D-02
      0.1398490000D+03  0.2836791942D-01
      0.4514130000D+02  0.1247566028D+00
      0.1687330000D+02  0.3396546305D+00
      0.2771520000D+01  0.7475859630D+00
 P   2 1.00       0.000000000000
      0.6741100000D+01 -0.1572243813D+01
      0.2771520000D+01  0.9923888817D+00
 P   1 1.00       0.000000000000
      0.1023870000D+01  0.1000000000D+01
 P   1 1.00       0.000000000000
      0.3813680000D+00  0.1000000000D+01
 P   1 1.00       0.000000000000
      0.1094370000D+00  0.1000000000D+01
 D   1 1.00       0.000000000000
      0.7500000000D+00  0.1000000000D+01
 ****

    52 basis functions,    89 primitive gaussians,    54 cartesian basis functions
    13 alpha electrons       12 beta electrons
       nuclear repulsion energy        44.5954271708 Hartrees.
 IExCor= 1614 DFT=T Ex+Corr=B971 ExCW=0 ScaHFX=  0.210000
 ScaDFX=  1.000000  1.000000  1.000000  1.000000 ScalE2=  1.000000  1.000000
 IRadAn=      5 IRanWt=     -1 IRanGd=            0 ICorTp=0 IEmpDi=  4
 NAtoms=    2 NActive=    2 NUniq=    2 SFac= 1.00D+00 NAtFMM=   60 NAOKFM=F Big=F
 Integral buffers will be    131072 words long.
 Raffenetti 2 integral format.
 Two-electron integral symmetry is turned off.
 Leave Link  301 at Wed Feb 11 17:41:56 2015, MaxMem=   524288000 cpu:         0.4
 (Enter /opt/g09/l302.exe)
 NPDir=0 NMtPBC=     1 NCelOv=     1 NCel=       1 NClECP=     1 NCelD=      1
         NCelK=      1 NCelE2=     1 NClLst=     1 CellRange=     0.0.
 One-electron integrals computed using PRISM.
 NBasis=    52 RedAO= T EigKep=  8.64D-03  NBF=    52
 NBsUse=    52 1.00D-06 EigRej= -1.00D+00 NBFU=    52
 Precomputing XC quadrature grid using
 IXCGrd= 4 IRadAn=           5 IRanWt=          -1 IRanGd=           0 AccXCQ= 0.00D+00.
 Generated NRdTot=       0 NPtTot=           0 NUsed=           0 NTot=          32
 NSgBfM=    54    54    54    54    54 MxSgAt=     2 MxSgA2=     2.
 Leave Link  302 at Wed Feb 11 17:41:56 2015, MaxMem=   524288000 cpu:         1.3
 (Enter /opt/g09/l303.exe)
 DipDrv:  MaxL=1.
 Leave Link  303 at Wed Feb 11 17:41:56 2015, MaxMem=   524288000 cpu:         0.3
 (Enter /opt/g09/l401.exe)
 Initial guess from the checkpoint file:  "/scratch/pb556/g09_run/ticl_thermo//Gau-11214.chk"
 B after Tr=     0.000000    0.000000    0.000000
         Rot=    1.000000    0.000000    0.000000    0.000000 Ang=   0.00 deg.
 Guess basis will be translated and rotated to current coordinates.
 JPrj=2 DoOrth=T DoCkMO=T.
 Initial guess <Sx>= 0.0000 <Sy>= 0.0000 <Sz>= 0.5000 <S**2>= 0.7543 S= 0.5021
 Leave Link  401 at Wed Feb 11 17:41:56 2015, MaxMem=   524288000 cpu:         0.8
 (Enter /opt/g09/l502.exe)
 UHF open shell SCF:
 Using DIIS extrapolation, IDIIS=  1040.
 Two-electron integral symmetry not used.
 Keep R1 and R2 ints in memory in canonical form, NReq=2803876.
 IVT=       28058 IEndB=       28058 NGot=   524288000 MDV=   522359681
 LenX=   522359681 LenY=   522356324
 Requested convergence on RMS density matrix=1.00D-08 within 128 cycles.
 Requested convergence on MAX density matrix=1.00D-06.
 Requested convergence on             energy=1.00D-06.
 No special actions if energy rises.
 FoFCou: FMM=F IPFlag=           0 FMFlag=           0 FMFlg1=           0
         NFxFlg=           0 DoJE=F BraDBF=F KetDBF=F FulRan=T
         wScrn=  0.000000 ICntrl=     600 IOpCl=  0 I1Cent=           0 NGrid=           0
         NMat0=    1 NMatS0=   1378 NMatT0=    0 NMatD0=    1 NMtDS0=    0 NMtDT0=    0
 Symmetry not used in FoFCou.

 Cycle   1  Pass 1  IDiag  1:
 E= -535.262962897386    
 DIIS: error= 3.89D-09 at cycle   1 NSaved=   1.
 NSaved= 1 IEnMin= 1 EnMin= -535.262962897386     IErMin= 1 ErrMin= 3.89D-09
 ErrMax= 3.89D-09  0.00D+00 EMaxC= 1.00D-01 BMatC= 2.34D-15 BMatP= 2.34D-15
 IDIUse=1 WtCom= 1.00D+00 WtEn= 0.00D+00
 Coeff-Com:  0.100D+01
 Coeff:      0.100D+01
 Gap=     0.236 Goal=   None    Shift=    0.000
 Gap=     0.106 Goal=   None    Shift=    0.000
 RMSDP=1.62D-09 MaxDP=1.82D-08              OVMax= 1.17D-07

 SCF Done:  E(UB971) =  -535.262962897     A.U. after    1 cycles
            NFock=  1  Conv=0.16D-08     -V/T= 2.0020
 <Sx>= 0.0000 <Sy>= 0.0000 <Sz>= 0.5000 <S**2>= 0.7543 S= 0.5021
 <L.S>= 0.000000000000E+00
 KE= 5.341809012859D+02 PE=-1.360760710631D+03 EE= 2.467214192769D+02
 Annihilation of the first spin contaminant:
 S**2 before annihilation     0.7543,   after     0.7500
 Leave Link  502 at Wed Feb 11 17:41:56 2015, MaxMem=   524288000 cpu:         2.1
 (Enter /opt/g09/l801.exe)
 DoSCS=F DFT=T ScalE2(SS,OS)=  1.000000  1.000000
 Range of M.O.s used for correlation:     1    52
 NBasis=    52 NAE=    13 NBE=    12 NFC=     0 NFV=     0
 NROrb=     52 NOA=    13 NOB=    12 NVA=    39 NVB=    40
 Leave Link  801 at Wed Feb 11 17:41:57 2015, MaxMem=   524288000 cpu:         0.4
 (Enter /opt/g09/l1101.exe)
 Using compressed storage, NAtomX=     2.
 Will process      3 centers per pass.
 Leave Link 1101 at Wed Feb 11 17:41:57 2015, MaxMem=   524288000 cpu:         1.2
 (Enter /opt/g09/l1102.exe)
 Symmetrizing basis deriv contribution to polar:
 IMax=3 JMax=2 DiffMx= 0.00D+00
 Leave Link 1102 at Wed Feb 11 17:41:57 2015, MaxMem=   524288000 cpu:         0.3
 (Enter /opt/g09/l1110.exe)
 Forming Gx(P) for the SCF density, NAtomX=     2.
 Integral derivatives from FoFJK, PRISM(SPDF).
 Do as many integral derivatives as possible in FoFJK.
 G2DrvN: MDV=     524287880.
 G2DrvN: will do     3 centers at a time, making    1 passes.
 Calling FoFCou, ICntrl=  3107 FMM=F I1Cent=   0 AccDes= 0.00D+00.
 FoFJK:  IHMeth= 1 ICntrl=    3107 DoSepK=F KAlg= 0 I1Cent=   0 FoldK=F
 IRaf=         0 NMat=   1 IRICut=       1 DoRegI=T DoRafI=F ISym2E= 0.
 FoFCou: FMM=F IPFlag=           0 FMFlag=      100000 FMFlg1=           0
         NFxFlg=           0 DoJE=F BraDBF=F KetDBF=F FulRan=T
         wScrn=  0.000000 ICntrl=    3107 IOpCl=  1 I1Cent=           0 NGrid=           0
         NMat0=    1 NMatS0=      1 NMatT0=    0 NMatD0=    1 NMtDS0=    0 NMtDT0=    0
 Symmetry not used in FoFCou.
 End of G2Drv F.D. properties file   721 does not exist.
 End of G2Drv F.D. properties file   722 does not exist.
 End of G2Drv F.D. properties file   788 does not exist.
 Leave Link 1110 at Wed Feb 11 17:41:58 2015, MaxMem=   524288000 cpu:         7.1
 (Enter /opt/g09/l1002.exe)
 Minotr:  UHF open shell wavefunction.
          IDoAtm=11
          Direct CPHF calculation.
          Differentiating once with respect to electric field.
                with respect to dipole field.
          Differentiating once with respect to nuclear coordinates.
          Requested convergence is 1.0D-08 RMS, and 1.0D-07 maximum.
          Secondary convergence is 1.0D-12 RMS, and 1.0D-12 maximum.
          NewPWx=T KeepS1=F KeepF1=F KeepIn=T MapXYZ=F SortEE=F KeepMc=T.
          MDV=     524287872 using IRadAn=       1.
 Generate precomputed XC quadrature information.
 Keep R1 and R2 ints in memory in canonical form, NReq=2773744.
 FoFCou: FMM=F IPFlag=           0 FMFlag=           0 FMFlg1=           0
         NFxFlg=           0 DoJE=F BraDBF=F KetDBF=F FulRan=T
         wScrn=  0.000000 ICntrl=     600 IOpCl=  0 I1Cent=           0 NGrid=           0
         NMat0=    1 NMatS0=   1378 NMatT0=    0 NMatD0=    1 NMtDS0=    0 NMtDT0=    0
 Symmetry not used in FoFCou.
          Solving linear equations simultaneously, MaxMat=       0.
          There are     9 degrees of freedom in the 1st order CPHF.  IDoFFX=6 NUNeed=     3.
      6 vectors produced by pass  0 Test12= 1.10D-14 1.11D-08 XBig12= 6.54D+01 5.99D+00.
 AX will form     6 AO Fock derivatives at one time.
      6 vectors produced by pass  1 Test12= 1.10D-14 1.11D-08 XBig12= 3.47D+01 1.47D+00.
      6 vectors produced by pass  2 Test12= 1.10D-14 1.11D-08 XBig12= 3.78D+00 9.24D-01.
      6 vectors produced by pass  3 Test12= 1.10D-14 1.11D-08 XBig12= 4.14D-01 2.21D-01.
      6 vectors produced by pass  4 Test12= 1.10D-14 1.11D-08 XBig12= 9.90D-03 2.34D-02.
      6 vectors produced by pass  5 Test12= 1.10D-14 1.11D-08 XBig12= 1.13D-04 2.64D-03.
      6 vectors produced by pass  6 Test12= 1.10D-14 1.11D-08 XBig12= 2.32D-06 1.06D-03.
      4 vectors produced by pass  7 Test12= 1.10D-14 1.11D-08 XBig12= 3.75D-07 3.30D-04.
      3 vectors produced by pass  8 Test12= 1.10D-14 1.11D-08 XBig12= 6.45D-09 2.35D-05.
      1 vectors produced by pass  9 Test12= 1.10D-14 1.11D-08 XBig12= 8.38D-11 2.47D-06.
      1 vectors produced by pass 10 Test12= 1.10D-14 1.11D-08 XBig12= 3.79D-13 1.42D-07.
      1 vectors produced by pass 11 Test12= 1.10D-14 1.11D-08 XBig12= 2.05D-15 1.30D-08.
 InvSVY:  IOpt=1 It=  1 EMax= 7.77D-16
 Solved reduced A of dimension    52 with     6 vectors.
 FullF1:  Do perturbations    1 to     3.
 Isotropic polarizability for W=    0.000000       15.12 Bohr**3.
 End of Minotr F.D. properties file   721 does not exist.
 End of Minotr F.D. properties file   722 does not exist.
 End of Minotr F.D. properties file   788 does not exist.
 Leave Link 1002 at Wed Feb 11 17:41:59 2015, MaxMem=   524288000 cpu:        12.9
 (Enter /opt/g09/l701.exe)
 Compute integral second derivatives.
 ... and contract with generalized density number  0.
 Leave Link  701 at Wed Feb 11 17:42:00 2015, MaxMem=   524288000 cpu:         2.1
 (Enter /opt/g09/l702.exe)
 L702 exits ... SP integral derivatives will be done elsewhere.
 Leave Link  702 at Wed Feb 11 17:42:00 2015, MaxMem=   524288000 cpu:         0.3
 (Enter /opt/g09/l703.exe)
 Compute integral second derivatives, UseDBF=F ICtDFT=           0.
 Integral derivatives from FoFJK, PRISM(SPDF).
 Calling FoFJK, ICntrl=    100127 FMM=F ISym2X=0 I1Cent= 0 IOpClX= 1 NMat=1 NMatS=1 NMatT=0.
 FoFJK:  IHMeth= 1 ICntrl=  100127 DoSepK=F KAlg= 0 I1Cent=   0 FoldK=F
 IRaf=         0 NMat=   1 IRICut=       1 DoRegI=T DoRafI=F ISym2E= 0.
 FoFCou: FMM=F IPFlag=           0 FMFlag=      100000 FMFlg1=         800
         NFxFlg=           0 DoJE=F BraDBF=F KetDBF=F FulRan=T
         wScrn=  0.000000 ICntrl=  100127 IOpCl=  1 I1Cent=           0 NGrid=           0
         NMat0=    1 NMatS0=      1 NMatT0=    0 NMatD0=    1 NMtDS0=    0 NMtDT0=    0
 Symmetry not used in FoFCou.
 Leave Link  703 at Wed Feb 11 17:42:02 2015, MaxMem=   524288000 cpu:        16.4
 (Enter /opt/g09/l716.exe)
 Dipole        = 5.86150685D-01-1.01413777D-08 1.31578870D-09
 Polarizability= 2.58311970D+01 6.62140878D-06 9.94204733D+00
                -5.51346384D-06-1.46772708D-01 9.60043454D+00
 Full mass-weighted force constant matrix:
 Low frequencies ---   -0.0050   -0.0048   -0.0047    8.8184   10.4950  822.0497
 Diagonal vibrational polarizability:
        0.4077296       0.0000000       0.0000000
 Harmonic frequencies (cm**-1), IR intensities (KM/Mole), Raman scattering
 activities (A**4/AMU), depolarization ratios for plane and unpolarized
 incident light, reduced masses (AMU), force constants (mDyne/A),
 and normal coordinates:
                      1
                      A
 Frequencies --    822.0497
 Red. masses --     19.2778
 Frc consts  --      7.6754
 IR Inten    --     10.2385
  Atom  AN      X      Y      Z
     1   8     0.91   0.00   0.00
     2  17    -0.42   0.00   0.00

 -------------------
 - Thermochemistry -
 -------------------
 Temperature   298.150 Kelvin.  Pressure   1.00000 Atm.
 Atom     1 has atomic number  8 and mass  15.99491
 Atom     2 has atomic number 17 and mass  34.96885
 Molecular mass:    50.96377 amu.
 Principal axes and moments of inertia in atomic units:
                           1         2         3
     Eigenvalues --     0.00000 102.07020 102.07020
           X            1.00000   0.00000   0.00000
           Y            0.00000   1.00000   0.00000
           Z            0.00000   0.00000   1.00000
 This molecule is a prolate symmetric top.
 Rotational symmetry number  1.
 Rotational temperature (Kelvin)      0.84857
 Rotational constant (GHZ):          17.681373
 Zero-point vibrational energy       4916.9 (Joules/Mol)
                                    1.17518 (Kcal/Mol)
 Vibrational temperatures:   1182.74
          (Kelvin)
 
 Zero-point correction=                           0.001873 (Hartree/Particle)
 Thermal correction to Energy=                    0.004306
 Thermal correction to Enthalpy=                  0.005250
 Thermal correction to Gibbs Free Energy=        -0.019891
 Sum of electronic and zero-point Energies=           -535.261090
 Sum of electronic and thermal Energies=              -535.258657
 Sum of electronic and thermal Enthalpies=            -535.257713
 Sum of electronic and thermal Free Energies=         -535.282853
 
                     E (Thermal)             CV                S
                      KCal/Mol        Cal/Mol-Kelvin    Cal/Mol-Kelvin
 Total                    2.702              5.583             52.912
 Electronic               0.000              0.000              1.377
 Translational            0.889              2.981             37.709
 Rotational               0.592              1.987             13.636
 Vibrational              1.221              0.615              0.190
                       Q            Log10(Q)             Ln(Q)
 Total Bot       0.140933D+10          9.149013         21.066382
 Total V=0       0.102429D+11         10.010425         23.049854
 Vib (Bot)       0.140246D+00         -0.853111         -1.964360
 Vib (V=0)       0.101930D+01          0.008301          0.019113
 Electronic      0.200000D+01          0.301030          0.693147
 Translational   0.143004D+08          7.155347         16.475796
 Rotational      0.351355D+03          2.545747          5.861798
 -------------------------------------------------------------------
 Center     Atomic                   Forces (Hartrees/Bohr)
 Number     Number              X              Y              Z
 -------------------------------------------------------------------
      1        8          -0.000001325    0.000000000    0.000000000
      2       17           0.000001325    0.000000000    0.000000000
 -------------------------------------------------------------------
 Cartesian Forces:  Max     0.000001325 RMS     0.000000765
 Force constants in Cartesian coordinates: 
                1             2             3             4             5 
      1  0.280666D+00
      2  0.000000D+00  0.451847D-04
      3  0.000000D+00 -0.269010D-05  0.328593D-04
      4 -0.280666D+00  0.000000D+00  0.000000D+00  0.280666D+00
      5  0.000000D+00 -0.451847D-04  0.269010D-05  0.000000D+00  0.451846D-04
      6  0.000000D+00  0.269010D-05 -0.328593D-04  0.000000D+00 -0.269010D-05
                6 
      6  0.328593D-04
 FormGI is forming the generalized inverse of G from B-inverse, IUseBI=4.
 Force constants in internal coordinates: 
                1 
      1  0.280666D+00
 Leave Link  716 at Wed Feb 11 17:42:02 2015, MaxMem=   524288000 cpu:         0.3
 (Enter /opt/g09/l103.exe)

 GradGradGradGradGradGradGradGradGradGradGradGradGradGradGradGradGradGrad
 Berny optimization.
 Red2BG is reusing G-inverse.
 Internal  Forces:  Max     0.000001325 RMS     0.000001325
 Search for a local minimum.
 Step number   1 out of a maximum of    2
 All quantities printed in internal units (Hartrees-Bohrs-Radians)
 Second derivative matrix not updated -- analytic derivatives used.
 The second derivative matrix:
                          R1
           R1           0.28067
 ITU=  0
     Eigenvalues ---    0.28067
 Angle between quadratic step and forces=   0.00 degrees.
 Linear search not attempted -- first point.
 Iteration  1 RMS(Cart)=  0.00000334 RMS(Int)=  0.00000000
 Iteration  2 RMS(Cart)=  0.00000000 RMS(Int)=  0.00000000
 ITry= 1 IFail=0 DXMaxC= 2.36D-06 DCOld= 1.00D+10 DXMaxT= 3.00D-01 DXLimC= 3.00D+00 Rises=F
 Variable       Old X    -DE/DX   Delta X   Delta X   Delta X     New X
                                 (Linear)    (Quad)   (Total)
    R1        3.04964   0.00000   0.00000   0.00000   0.00000   3.04964
         Item               Value     Threshold  Converged?
 Maximum Force            0.000001     0.000015     YES
 RMS     Force            0.000001     0.000010     YES
 Maximum Displacement     0.000002     0.000060     YES
 RMS     Displacement     0.000003     0.000040     YES
 Predicted change in Energy=-3.129574D-12
 Optimization completed.
    -- Stationary point found.
                           ----------------------------
                           !   Optimized Parameters   !
                           ! (Angstroms and Degrees)  !
 --------------------------                            --------------------------
 ! Name  Definition              Value          Derivative Info.                !
 --------------------------------------------------------------------------------
 ! R1    R(1,2)                  1.6138         -DE/DX =    0.0                 !
 --------------------------------------------------------------------------------
 GradGradGradGradGradGradGradGradGradGradGradGradGradGradGradGradGradGrad

 Leave Link  103 at Wed Feb 11 17:42:02 2015, MaxMem=   524288000 cpu:         0.0
 (Enter /opt/g09/l9999.exe)
 1\1\GINC-RENOIR\Freq\UB971\6-311+G(d,p)\Cl1O1(2)\PB556\11-Feb-2015\0\\
 #P Geom=AllCheck Guess=TCheck SCRF=Check GenChk UB971/6-311+G(d,p) Fre
 q\\W:\Data\TiCl\esc\B971\gs\Cl\fine\fine-ClO.g09\\0,2\O,0.0081,0.,0.\C
 l,1.6219,0.,0.\\Version=ES64L-G09RevD.01\HF=-535.2629629\S2=0.754289\S
 2-1=0.\S2A=0.750013\RMSD=1.617e-09\RMSF=7.652e-07\ZeroPoint=0.0018728\
 Thermal=0.0043055\Dipole=0.5861507,0.,0.\DipoleDeriv=0.3395024,0.00000
 03,-0.0000002,-0.0000131,-0.192252,0.0000124,0.0000044,0.0000075,-0.19
 22363,-0.3395024,-0.0000003,0.0000002,0.0000131,0.192252,-0.0000124,-0
 .0000044,-0.0000075,0.1922363\Polar=25.831197,0.0000066,9.9420473,-0.0
 000055,-0.1467727,9.6004345\PG=C*V [C*(O1Cl1)]\NImag=0\\0.28066572,0.0
 0000057,0.00004518,-0.00000019,-0.00000269,0.00003286,-0.28066572,-0.0
 0000057,0.00000019,0.28066572,-0.00000057,-0.00004518,0.00000269,0.000
 00057,0.00004518,0.00000019,0.00000269,-0.00003286,-0.00000019,-0.0000
 0269,0.00003286\\0.00000133,0.,0.,-0.00000133,0.,0.\\\@


 THE MORE PROGRESS PHYSICAL SCIENCES MAKE, THE MORE THEY TEND TO ENTER
 THE DOMAIN OF MATHEMATICS, WHICH IS A KIND OF CENTRE TO WHICH THEY ALL
 CONVERGE.  WE MAY EVEN JUDGE THE DEGREE OF PERFECTION TO WHICH A 
 SCIENCE HAS ARRIVED BY THE FACILITY WITH WHICH IT MAY BE SUBMITTED
 TO CALCULATION.

                               -- ADOLPHE QUETELET, 1796-1874
 Job cpu time:       0 days  0 hours  0 minutes 52.5 seconds.
 File lengths (MBytes):  RWF=      5 Int=      0 D2E=      0 Chk=      1 Scr=      1
 Normal termination of Gaussian 09 at Wed Feb 11 17:42:02 2015.
