 Entering Gaussian System, Link 0=g09
 Input=00_00freq-no-symm-00_00fine-ClOCl.gau
 Output=00_00freq-no-symm-00_00fine-ClOCl.log
 Initial command:
 /opt/g09/l1.exe "/scratch/pb556/g09_run/ti_runs//Gau-16907.inp" -scrdir="/scratch/pb556/g09_run/ti_runs//"
 Entering Link 1 = /opt/g09/l1.exe PID=     16908.
  
 Copyright (c) 1988,1990,1992,1993,1995,1998,2003,2009,2013,
            Gaussian, Inc.  All Rights Reserved.
  
 This is part of the Gaussian(R) 09 program.  It is based on
 the Gaussian(R) 03 system (copyright 2003, Gaussian, Inc.),
 the Gaussian(R) 98 system (copyright 1998, Gaussian, Inc.),
 the Gaussian(R) 94 system (copyright 1995, Gaussian, Inc.),
 the Gaussian 92(TM) system (copyright 1992, Gaussian, Inc.),
 the Gaussian 90(TM) system (copyright 1990, Gaussian, Inc.),
 the Gaussian 88(TM) system (copyright 1988, Gaussian, Inc.),
 the Gaussian 86(TM) system (copyright 1986, Carnegie Mellon
 University), and the Gaussian 82(TM) system (copyright 1983,
 Carnegie Mellon University). Gaussian is a federally registered
 trademark of Gaussian, Inc.
  
 This software contains proprietary and confidential information,
 including trade secrets, belonging to Gaussian, Inc.
  
 This software is provided under written license and may be
 used, copied, transmitted, or stored only in accord with that
 written license.
  
 The following legend is applicable only to US Government
 contracts under FAR:
  
                    RESTRICTED RIGHTS LEGEND
  
 Use, reproduction and disclosure by the US Government is
 subject to restrictions as set forth in subparagraphs (a)
 and (c) of the Commercial Computer Software - Restricted
 Rights clause in FAR 52.227-19.
  
 Gaussian, Inc.
 340 Quinnipiac St., Bldg. 40, Wallingford CT 06492
  
  
 ---------------------------------------------------------------
 Warning -- This program may not be used in any manner that
 competes with the business of Gaussian, Inc. or will provide
 assistance to any competitor of Gaussian, Inc.  The licensee
 of this program is prohibited from giving any competitor of
 Gaussian, Inc. access to this program.  By using this program,
 the user acknowledges that Gaussian, Inc. is engaged in the
 business of creating and licensing software in the field of
 computational chemistry and represents and warrants to the
 licensee that it is not a competitor of Gaussian, Inc. and that
 it will not use this program in any manner prohibited above.
 ---------------------------------------------------------------
  

 Cite this work as:
 Gaussian 09, Revision D.01,
 M. J. Frisch, G. W. Trucks, H. B. Schlegel, G. E. Scuseria, 
 M. A. Robb, J. R. Cheeseman, G. Scalmani, V. Barone, B. Mennucci, 
 G. A. Petersson, H. Nakatsuji, M. Caricato, X. Li, H. P. Hratchian, 
 A. F. Izmaylov, J. Bloino, G. Zheng, J. L. Sonnenberg, M. Hada, 
 M. Ehara, K. Toyota, R. Fukuda, J. Hasegawa, M. Ishida, T. Nakajima, 
 Y. Honda, O. Kitao, H. Nakai, T. Vreven, J. A. Montgomery, Jr., 
 J. E. Peralta, F. Ogliaro, M. Bearpark, J. J. Heyd, E. Brothers, 
 K. N. Kudin, V. N. Staroverov, T. Keith, R. Kobayashi, J. Normand, 
 K. Raghavachari, A. Rendell, J. C. Burant, S. S. Iyengar, J. Tomasi, 
 M. Cossi, N. Rega, J. M. Millam, M. Klene, J. E. Knox, J. B. Cross, 
 V. Bakken, C. Adamo, J. Jaramillo, R. Gomperts, R. E. Stratmann, 
 O. Yazyev, A. J. Austin, R. Cammi, C. Pomelli, J. W. Ochterski, 
 R. L. Martin, K. Morokuma, V. G. Zakrzewski, G. A. Voth, 
 P. Salvador, J. J. Dannenberg, S. Dapprich, A. D. Daniels, 
 O. Farkas, J. B. Foresman, J. V. Ortiz, J. Cioslowski, 
 and D. J. Fox, Gaussian, Inc., Wallingford CT, 2013.
 
 ******************************************
 Gaussian 09:  ES64L-G09RevD.01 24-Apr-2013
                19-Oct-2015 
 ******************************************
 %NProcShared=8
 Will use up to    8 processors via shared memory.
 %Mem=500MW
 ----------------------------------------------------------------------
 #p rB971/6-311+G(d,p) Opt=(Tight, CalcAll, MaxCycles=512, MaxStep=256)
  Freq GFInput Population=None Integral(Grid=UltraFine) SCF=XQC Guess=M
 IX NoSymmetry
 ----------------------------------------------------------------------
 1/6=512,7=10,8=256,10=4,14=-1,18=20,19=15,26=4,38=1/1,3;
 2/9=110,12=2,15=1,17=6,18=5,40=1/2;
 3/5=4,6=6,7=111,11=2,16=1,24=10,25=1,30=1,71=2,74=-20,75=-5,116=1,140=1/1,2,3;
 4/13=-1/1;
 5/5=2,8=3,13=1,38=5/2,8;
 8/6=4,10=90,11=11/1;
 11/6=1,8=1,9=11,15=111,16=1,31=1/1,2,10;
 10/6=1,31=1/2;
 7/10=1,25=1,30=1/1,2,3,16;
 1/6=512,7=10,8=256,10=4,14=-1,18=20,19=15,26=4/3(3);
 2/9=110,15=1/2;
 7/8=1,9=1,25=1,30=1,44=-1/16;
 99//99;
 2/9=110,15=1/2;
 3/5=4,6=6,7=111,11=2,16=1,25=1,30=1,71=2,74=-20,75=-5,116=1,140=1/1,2,3;
 4/5=5,16=3,69=1/1;
 5/5=2,8=3,13=1,38=5/2,8;
 8/6=4,10=90,11=11/1;
 11/6=1,8=1,9=11,15=111,16=1,31=1/1,2,10;
 10/6=1,31=1/2;
 7/10=1,25=1,30=1/1,2,3,16;
 1/6=512,7=10,8=256,10=4,14=-1,18=20,19=15,26=4/3(-8);
 2/9=110,15=1/2;
 7/8=1,9=1,25=1,30=1,44=-1/16;
 99//99;
 Leave Link    1 at Mon Oct 19 21:10:50 2015, MaxMem=   524288000 cpu:         0.5
 (Enter /opt/g09/l101.exe)
 ---------------------
 ./00_00fine-ClOCl.g09
 ---------------------
 Symbolic Z-matrix:
 Charge =  0 Multiplicity = 1
 Cl                    1.44741  -0.18103  -0.00022 
 O                     0.        0.7694    0.00008 
 Cl                   -1.44741  -0.18103   0.00019 
 
 NAtoms=      3 NQM=        3 NQMF=       0 NMMI=      0 NMMIF=      0
                NMic=       0 NMicF=      0.
                    Isotopes and Nuclear Properties:
 (Nuclear quadrupole moments (NQMom) in fm**2, nuclear magnetic moments (NMagM)
  in nuclear magnetons)

  Atom         1           2           3
 IAtWgt=          35          16          35
 AtmWgt=  34.9688527  15.9949146  34.9688527
 NucSpn=           3           0           3
 AtZEff=   0.0000000   0.0000000   0.0000000
 NQMom=   -8.1650000   0.0000000  -8.1650000
 NMagM=    0.8218740   0.0000000   0.8218740
 AtZNuc=  17.0000000   8.0000000  17.0000000
 Leave Link  101 at Mon Oct 19 21:10:51 2015, MaxMem=   524288000 cpu:         1.3
 (Enter /opt/g09/l103.exe)

 GradGradGradGradGradGradGradGradGradGradGradGradGradGradGradGradGradGrad
 Berny optimization.
 Initialization pass.
                           ----------------------------
                           !    Initial Parameters    !
                           ! (Angstroms and Degrees)  !
 --------------------------                            --------------------------
 ! Name  Definition              Value          Derivative Info.                !
 --------------------------------------------------------------------------------
 ! R1    R(1,2)                  1.7316         calculate D2E/DX2 analytically  !
 ! R2    R(2,3)                  1.7316         calculate D2E/DX2 analytically  !
 ! A1    A(1,2,3)              113.4188         calculate D2E/DX2 analytically  !
 --------------------------------------------------------------------------------
 Trust Radius=2.56D+00 FncErr=1.00D-07 GrdErr=1.00D-06
 Number of steps in this run=    100 maximum allowed number of steps=    100.
 GradGradGradGradGradGradGradGradGradGradGradGradGradGradGradGradGradGrad

 Leave Link  103 at Mon Oct 19 21:10:51 2015, MaxMem=   524288000 cpu:         0.1
 (Enter /opt/g09/l202.exe)
                          Input orientation:                          
 ---------------------------------------------------------------------
 Center     Atomic      Atomic             Coordinates (Angstroms)
 Number     Number       Type             X           Y           Z
 ---------------------------------------------------------------------
      1         17           0        1.447410   -0.181030   -0.000220
      2          8           0        0.000000    0.769400    0.000080
      3         17           0       -1.447410   -0.181030    0.000190
 ---------------------------------------------------------------------
                    Distance matrix (angstroms):
                    1          2          3
     1  Cl   0.000000
     2  O    1.731564   0.000000
     3  Cl   2.894820   1.731564   0.000000
 Symmetry turned off by external request.
 Stoichiometry    Cl2O
 Framework group  C1[X(Cl2O)]
 Deg. of freedom     3
 Full point group                 C1      NOp   1
 Rotational constants (GHZ):     42.9775512      3.4492341      3.1929765
 Leave Link  202 at Mon Oct 19 21:10:51 2015, MaxMem=   524288000 cpu:         0.1
 (Enter /opt/g09/l301.exe)
 Standard basis: 6-311+G(d,p) (5D, 7F)
 Ernie: Thresh=  0.10000D-02 Tol=  0.10000D-05 Strict=F.
 AO basis set in the form of general basis input (Overlap normalization):
      1 0
 S   6 1.00       0.000000000000
      0.1058190000D+06  0.7380002465D-03
      0.1587200000D+05  0.5718001910D-02
      0.3619650000D+04  0.2949500985D-01
      0.1030800000D+04  0.1172860392D+00
      0.3399080000D+03  0.3629491212D+00
      0.1245380000D+03  0.5841491951D+00
 S   3 1.00       0.000000000000
      0.1245380000D+03  0.1341769734D+00
      0.4951350000D+02  0.6242498762D+00
      0.2080560000D+02  0.2917559421D+00
 S   1 1.00       0.000000000000
      0.6583460000D+01  0.1000000000D+01
 S   1 1.00       0.000000000000
      0.2564680000D+01  0.1000000000D+01
 S   1 1.00       0.000000000000
      0.5597630000D+00  0.1000000000D+01
 S   1 1.00       0.000000000000
      0.1832730000D+00  0.1000000000D+01
 SP   1 1.00       0.000000000000
      0.4830000000D-01  0.1000000000D+01  0.1000000000D+01
 P   5 1.00       0.000000000000
      0.5897760000D+03  0.3665569355D-02
      0.1398490000D+03  0.2836791942D-01
      0.4514130000D+02  0.1247566028D+00
      0.1687330000D+02  0.3396546305D+00
      0.2771520000D+01  0.7475859630D+00
 P   2 1.00       0.000000000000
      0.6741100000D+01 -0.1572243813D+01
      0.2771520000D+01  0.9923888817D+00
 P   1 1.00       0.000000000000
      0.1023870000D+01  0.1000000000D+01
 P   1 1.00       0.000000000000
      0.3813680000D+00  0.1000000000D+01
 P   1 1.00       0.000000000000
      0.1094370000D+00  0.1000000000D+01
 D   1 1.00       0.000000000000
      0.7500000000D+00  0.1000000000D+01
 ****
      2 0
 S   6 1.00       0.000000000000
      0.8588500000D+04  0.1895150083D-02
      0.1297230000D+04  0.1438590063D-01
      0.2992960000D+03  0.7073200310D-01
      0.8737710000D+02  0.2400010105D+00
      0.2567890000D+02  0.5947970261D+00
      0.3740040000D+01  0.2808020123D+00
 SP   3 1.00       0.000000000000
      0.4211750000D+02  0.1138890124D+00  0.3651139738D-01
      0.9628370000D+01  0.9208111006D+00  0.2371529830D+00
      0.2853320000D+01 -0.3274470358D-02  0.8197019412D+00
 SP   1 1.00       0.000000000000
      0.9056610000D+00  0.1000000000D+01  0.1000000000D+01
 SP   1 1.00       0.000000000000
      0.2556110000D+00  0.1000000000D+01  0.1000000000D+01
 SP   1 1.00       0.000000000000
      0.8450000000D-01  0.1000000000D+01  0.1000000000D+01
 D   1 1.00       0.000000000000
      0.1292000000D+01  0.1000000000D+01
 ****
      3 0
 S   6 1.00       0.000000000000
      0.1058190000D+06  0.7380002465D-03
      0.1587200000D+05  0.5718001910D-02
      0.3619650000D+04  0.2949500985D-01
      0.1030800000D+04  0.1172860392D+00
      0.3399080000D+03  0.3629491212D+00
      0.1245380000D+03  0.5841491951D+00
 S   3 1.00       0.000000000000
      0.1245380000D+03  0.1341769734D+00
      0.4951350000D+02  0.6242498762D+00
      0.2080560000D+02  0.2917559421D+00
 S   1 1.00       0.000000000000
      0.6583460000D+01  0.1000000000D+01
 S   1 1.00       0.000000000000
      0.2564680000D+01  0.1000000000D+01
 S   1 1.00       0.000000000000
      0.5597630000D+00  0.1000000000D+01
 S   1 1.00       0.000000000000
      0.1832730000D+00  0.1000000000D+01
 SP   1 1.00       0.000000000000
      0.4830000000D-01  0.1000000000D+01  0.1000000000D+01
 P   5 1.00       0.000000000000
      0.5897760000D+03  0.3665569355D-02
      0.1398490000D+03  0.2836791942D-01
      0.4514130000D+02  0.1247566028D+00
      0.1687330000D+02  0.3396546305D+00
      0.2771520000D+01  0.7475859630D+00
 P   2 1.00       0.000000000000
      0.6741100000D+01 -0.1572243813D+01
      0.2771520000D+01  0.9923888817D+00
 P   1 1.00       0.000000000000
      0.1023870000D+01  0.1000000000D+01
 P   1 1.00       0.000000000000
      0.3813680000D+00  0.1000000000D+01
 P   1 1.00       0.000000000000
      0.1094370000D+00  0.1000000000D+01
 D   1 1.00       0.000000000000
      0.7500000000D+00  0.1000000000D+01
 ****

    82 basis functions,   142 primitive gaussians,    85 cartesian basis functions
    21 alpha electrons       21 beta electrons
       nuclear repulsion energy       135.9545903213 Hartrees.
 IExCor= 1614 DFT=T Ex+Corr=B971 ExCW=0 ScaHFX=  0.210000
 ScaDFX=  1.000000  1.000000  1.000000  1.000000 ScalE2=  1.000000  1.000000
 IRadAn=      5 IRanWt=     -1 IRanGd=            0 ICorTp=0 IEmpDi=  4
 NAtoms=    3 NActive=    3 NUniq=    3 SFac= 1.00D+00 NAtFMM=   60 NAOKFM=F Big=F
 Integral buffers will be    131072 words long.
 Raffenetti 2 integral format.
 Two-electron integral symmetry is turned off.
 Leave Link  301 at Mon Oct 19 21:10:51 2015, MaxMem=   524288000 cpu:         0.4
 (Enter /opt/g09/l302.exe)
 NPDir=0 NMtPBC=     1 NCelOv=     1 NCel=       1 NClECP=     1 NCelD=      1
         NCelK=      1 NCelE2=     1 NClLst=     1 CellRange=     0.0.
 One-electron integrals computed using PRISM.
 NBasis=    82 RedAO= T EigKep=  5.08D-03  NBF=    82
 NBsUse=    82 1.00D-06 EigRej= -1.00D+00 NBFU=    82
 Precomputing XC quadrature grid using
 IXCGrd= 4 IRadAn=           5 IRanWt=          -1 IRanGd=           0 AccXCQ= 0.00D+00.
 Generated NRdTot=       0 NPtTot=           0 NUsed=           0 NTot=          32
 NSgBfM=    84    85    85    85    85 MxSgAt=     3 MxSgA2=     3.
 Leave Link  302 at Mon Oct 19 21:10:51 2015, MaxMem=   524288000 cpu:         1.2
 (Enter /opt/g09/l303.exe)
 DipDrv:  MaxL=1.
 Leave Link  303 at Mon Oct 19 21:10:51 2015, MaxMem=   524288000 cpu:         0.2
 (Enter /opt/g09/l401.exe)
 ExpMin= 4.83D-02 ExpMax= 1.06D+05 ExpMxC= 3.62D+03 IAcc=3 IRadAn=         5 AccDes= 0.00D+00
 Harris functional with IExCor= 1614 and IRadAn=       5 diagonalized for initial guess.
 HarFok:  IExCor= 1614 AccDes= 0.00D+00 IRadAn=         5 IDoV= 1 UseB2=F ITyADJ=14
 ICtDFT=  3500011 ScaDFX=  1.000000  1.000000  1.000000  1.000000
 FoFCou: FMM=F IPFlag=           0 FMFlag=      100000 FMFlg1=           0
         NFxFlg=           0 DoJE=T BraDBF=F KetDBF=T FulRan=T
         wScrn=  0.000000 ICntrl=     500 IOpCl=  0 I1Cent=   200000004 NGrid=           0
         NMat0=    1 NMatS0=      1 NMatT0=    0 NMatD0=    1 NMtDS0=    0 NMtDT0=    0
 Symmetry not used in FoFCou.
 Harris En= -982.260941323322    
 JPrj=0 DoOrth=F DoCkMO=T.
 Mixing orbitals, IMix= 1 IMixAn=  0 NRI=1 NE=   21 Coef=  7.07106781D-01  7.07106781D-01
 Leave Link  401 at Mon Oct 19 21:10:51 2015, MaxMem=   524288000 cpu:         1.7
 (Enter /opt/g09/l502.exe)
 Closed shell SCF:
 Using DIIS extrapolation, IDIIS=  1040.
 Two-electron integral symmetry not used.
 Keep R1 ints in memory in canonical form, NReq=6729473.
 IVT=       28813 IEndB=       28813 NGot=   524288000 MDV=   518467282
 LenX=   518467282 LenY=   518459616
 Requested convergence on RMS density matrix=1.00D-08 within  64 cycles.
 Requested convergence on MAX density matrix=1.00D-06.
 Requested convergence on             energy=1.00D-06.
 No special actions if energy rises.
 FoFCou: FMM=F IPFlag=           0 FMFlag=           0 FMFlg1=           0
         NFxFlg=           0 DoJE=F BraDBF=F KetDBF=F FulRan=T
         wScrn=  0.000000 ICntrl=     600 IOpCl=  0 I1Cent=           0 NGrid=           0
         NMat0=    1 NMatS0=   3403 NMatT0=    0 NMatD0=    1 NMtDS0=    0 NMtDT0=    0
 Symmetry not used in FoFCou.

 Cycle   1  Pass 1  IDiag  1:
 E= -994.883505146073    
 DIIS: error= 1.67D-01 at cycle   1 NSaved=   1.
 NSaved= 1 IEnMin= 1 EnMin= -994.883505146073     IErMin= 1 ErrMin= 1.67D-01
 ErrMax= 1.67D-01  0.00D+00 EMaxC= 1.00D-01 BMatC= 2.15D+00 BMatP= 2.15D+00
 IDIUse=3 WtCom= 0.00D+00 WtEn= 1.00D+00
 Coeff-Com:  0.100D+01
 Coeff-En:   0.100D+01
 Coeff:      0.100D+01
 Gap=     0.036 Goal=   None    Shift=    0.000
 GapD=    0.036 DampG=0.250 DampE=0.250 DampFc=0.2500 IDamp=-1.
 Damping current iteration by 2.50D-01
 RMSDP=2.37D-02 MaxDP=5.29D-01              OVMax= 5.95D-01

 Cycle   2  Pass 1  IDiag  1:
 E= -995.052444820091     Delta-E=       -0.168939674018 Rises=F Damp=T
 DIIS: error= 1.19D-01 at cycle   2 NSaved=   2.
 NSaved= 2 IEnMin= 2 EnMin= -995.052444820091     IErMin= 2 ErrMin= 1.19D-01
 ErrMax= 1.19D-01  0.00D+00 EMaxC= 1.00D-01 BMatC= 9.93D-01 BMatP= 2.15D+00
 IDIUse=3 WtCom= 0.00D+00 WtEn= 1.00D+00
 Coeff-Com: -0.171D+01 0.271D+01
 Coeff-En:   0.000D+00 0.100D+01
 Coeff:      0.000D+00 0.100D+01
 Gap=     0.122 Goal=   None    Shift=    0.000
 RMSDP=1.68D-02 MaxDP=3.97D-01 DE=-1.69D-01 OVMax= 1.55D-01

 Cycle   3  Pass 1  IDiag  1:
 E= -995.346172880163     Delta-E=       -0.293728060072 Rises=F Damp=F
 DIIS: error= 2.94D-02 at cycle   3 NSaved=   3.
 NSaved= 3 IEnMin= 3 EnMin= -995.346172880163     IErMin= 3 ErrMin= 2.94D-02
 ErrMax= 2.94D-02  0.00D+00 EMaxC= 1.00D-01 BMatC= 1.03D-01 BMatP= 9.93D-01
 IDIUse=3 WtCom= 7.06D-01 WtEn= 2.94D-01
 Coeff-Com:  0.436D+00-0.404D+00 0.968D+00
 Coeff-En:   0.000D+00 0.000D+00 0.100D+01
 Coeff:      0.308D+00-0.285D+00 0.977D+00
 Gap=     0.151 Goal=   None    Shift=    0.000
 RMSDP=4.84D-03 MaxDP=1.14D-01 DE=-2.94D-01 OVMax= 1.08D-01

 Cycle   4  Pass 1  IDiag  1:
 E= -995.401749529331     Delta-E=       -0.055576649168 Rises=F Damp=F
 DIIS: error= 1.23D-02 at cycle   4 NSaved=   4.
 NSaved= 4 IEnMin= 4 EnMin= -995.401749529331     IErMin= 4 ErrMin= 1.23D-02
 ErrMax= 1.23D-02  0.00D+00 EMaxC= 1.00D-01 BMatC= 1.74D-02 BMatP= 1.03D-01
 IDIUse=3 WtCom= 8.77D-01 WtEn= 1.23D-01
 Coeff-Com:  0.791D-01-0.960D-01 0.339D+00 0.678D+00
 Coeff-En:   0.000D+00 0.000D+00 0.000D+00 0.100D+01
 Coeff:      0.694D-01-0.842D-01 0.297D+00 0.718D+00
 Gap=     0.151 Goal=   None    Shift=    0.000
 RMSDP=1.72D-03 MaxDP=3.75D-02 DE=-5.56D-02 OVMax= 4.15D-02

 Cycle   5  Pass 1  IDiag  1:
 E= -995.414557921895     Delta-E=       -0.012808392564 Rises=F Damp=F
 DIIS: error= 2.27D-03 at cycle   5 NSaved=   5.
 NSaved= 5 IEnMin= 5 EnMin= -995.414557921895     IErMin= 5 ErrMin= 2.27D-03
 ErrMax= 2.27D-03  0.00D+00 EMaxC= 1.00D-01 BMatC= 6.04D-04 BMatP= 1.74D-02
 IDIUse=3 WtCom= 9.77D-01 WtEn= 2.27D-02
 Coeff-Com: -0.243D-01 0.333D-01 0.486D-01 0.239D+00 0.703D+00
 Coeff-En:   0.000D+00 0.000D+00 0.000D+00 0.000D+00 0.100D+01
 Coeff:     -0.238D-01 0.326D-01 0.475D-01 0.233D+00 0.710D+00
 Gap=     0.152 Goal=   None    Shift=    0.000
 RMSDP=3.43D-04 MaxDP=4.86D-03 DE=-1.28D-02 OVMax= 1.42D-02

 Cycle   6  Pass 1  IDiag  1:
 E= -995.415162712716     Delta-E=       -0.000604790821 Rises=F Damp=F
 DIIS: error= 3.75D-04 at cycle   6 NSaved=   6.
 NSaved= 6 IEnMin= 6 EnMin= -995.415162712716     IErMin= 6 ErrMin= 3.75D-04
 ErrMax= 3.75D-04  0.00D+00 EMaxC= 1.00D-01 BMatC= 1.92D-05 BMatP= 6.04D-04
 IDIUse=3 WtCom= 9.96D-01 WtEn= 3.75D-03
 Coeff-Com: -0.874D-02 0.108D-01-0.349D-01-0.589D-01 0.766D-01 0.102D+01
 Coeff-En:   0.000D+00 0.000D+00 0.000D+00 0.000D+00 0.000D+00 0.100D+01
 Coeff:     -0.871D-02 0.108D-01-0.347D-01-0.587D-01 0.763D-01 0.102D+01
 Gap=     0.152 Goal=   None    Shift=    0.000
 RMSDP=1.86D-04 MaxDP=1.79D-03 DE=-6.05D-04 OVMax= 1.07D-02

 Cycle   7  Pass 1  IDiag  1:
 E= -995.415210308325     Delta-E=       -0.000047595609 Rises=F Damp=F
 DIIS: error= 2.47D-04 at cycle   7 NSaved=   7.
 NSaved= 7 IEnMin= 7 EnMin= -995.415210308325     IErMin= 7 ErrMin= 2.47D-04
 ErrMax= 2.47D-04  0.00D+00 EMaxC= 1.00D-01 BMatC= 4.73D-06 BMatP= 1.92D-05
 IDIUse=3 WtCom= 9.98D-01 WtEn= 2.47D-03
 Coeff-Com:  0.402D-02-0.593D-02-0.136D-01-0.378D-01-0.957D-02 0.324D+00
 Coeff-Com:  0.739D+00
 Coeff-En:   0.000D+00 0.000D+00 0.000D+00 0.000D+00 0.000D+00 0.000D+00
 Coeff-En:   0.100D+01
 Coeff:      0.401D-02-0.591D-02-0.136D-01-0.377D-01-0.954D-02 0.323D+00
 Coeff:      0.739D+00
 Gap=     0.152 Goal=   None    Shift=    0.000
 RMSDP=4.07D-05 MaxDP=3.41D-04 DE=-4.76D-05 OVMax= 2.11D-03

 Cycle   8  Pass 1  IDiag  1:
 E= -995.415215988738     Delta-E=       -0.000005680413 Rises=F Damp=F
 DIIS: error= 3.43D-05 at cycle   8 NSaved=   8.
 NSaved= 8 IEnMin= 8 EnMin= -995.415215988738     IErMin= 8 ErrMin= 3.43D-05
 ErrMax= 3.43D-05  0.00D+00 EMaxC= 1.00D-01 BMatC= 1.18D-07 BMatP= 4.73D-06
 IDIUse=1 WtCom= 1.00D+00 WtEn= 0.00D+00
 Coeff-Com: -0.158D-03 0.285D-03-0.899D-04-0.252D-02-0.121D-01-0.279D-01
 Coeff-Com:  0.628D-01 0.980D+00
 Coeff:     -0.158D-03 0.285D-03-0.899D-04-0.252D-02-0.121D-01-0.279D-01
 Coeff:      0.628D-01 0.980D+00
 Gap=     0.152 Goal=   None    Shift=    0.000
 RMSDP=1.16D-05 MaxDP=9.74D-05 DE=-5.68D-06 OVMax= 6.65D-04

 Cycle   9  Pass 1  IDiag  1:
 E= -995.415216188170     Delta-E=       -0.000000199432 Rises=F Damp=F
 DIIS: error= 5.15D-06 at cycle   9 NSaved=   9.
 NSaved= 9 IEnMin= 9 EnMin= -995.415216188170     IErMin= 9 ErrMin= 5.15D-06
 ErrMax= 5.15D-06  0.00D+00 EMaxC= 1.00D-01 BMatC= 2.10D-09 BMatP= 1.18D-07
 IDIUse=1 WtCom= 1.00D+00 WtEn= 0.00D+00
 Coeff-Com: -0.230D-05 0.617D-05 0.224D-03 0.646D-03-0.725D-03-0.708D-02
 Coeff-Com: -0.396D-02 0.854D-01 0.926D+00
 Coeff:     -0.230D-05 0.617D-05 0.224D-03 0.646D-03-0.725D-03-0.708D-02
 Coeff:     -0.396D-02 0.854D-01 0.926D+00
 Gap=     0.152 Goal=   None    Shift=    0.000
 RMSDP=6.14D-07 MaxDP=1.16D-05 DE=-1.99D-07 OVMax= 1.56D-05

 Cycle  10  Pass 1  IDiag  1:
 E= -995.415216190264     Delta-E=       -0.000000002094 Rises=F Damp=F
 DIIS: error= 4.70D-07 at cycle  10 NSaved=  10.
 NSaved=10 IEnMin=10 EnMin= -995.415216190264     IErMin=10 ErrMin= 4.70D-07
 ErrMax= 4.70D-07  0.00D+00 EMaxC= 1.00D-01 BMatC= 2.22D-11 BMatP= 2.10D-09
 IDIUse=1 WtCom= 1.00D+00 WtEn= 0.00D+00
 Coeff-Com: -0.828D-07-0.231D-06 0.184D-04 0.685D-04-0.633D-04-0.737D-03
 Coeff-Com: -0.179D-02 0.383D-02 0.115D+00 0.884D+00
 Coeff:     -0.828D-07-0.231D-06 0.184D-04 0.685D-04-0.633D-04-0.737D-03
 Coeff:     -0.179D-02 0.383D-02 0.115D+00 0.884D+00
 Gap=     0.152 Goal=   None    Shift=    0.000
 RMSDP=1.01D-07 MaxDP=8.61D-07 DE=-2.09D-09 OVMax= 3.53D-06

 Cycle  11  Pass 1  IDiag  1:
 E= -995.415216190290     Delta-E=       -0.000000000026 Rises=F Damp=F
 DIIS: error= 2.08D-07 at cycle  11 NSaved=  11.
 NSaved=11 IEnMin=11 EnMin= -995.415216190290     IErMin=11 ErrMin= 2.08D-07
 ErrMax= 2.08D-07  0.00D+00 EMaxC= 1.00D-01 BMatC= 3.09D-12 BMatP= 2.22D-11
 IDIUse=1 WtCom= 1.00D+00 WtEn= 0.00D+00
 Coeff-Com: -0.294D-06 0.289D-06-0.600D-05-0.153D-04 0.432D-04 0.278D-03
 Coeff-Com: -0.256D-03-0.413D-02-0.239D-01 0.261D+00 0.767D+00
 Coeff:     -0.294D-06 0.289D-06-0.600D-05-0.153D-04 0.432D-04 0.278D-03
 Coeff:     -0.256D-03-0.413D-02-0.239D-01 0.261D+00 0.767D+00
 Gap=     0.152 Goal=   None    Shift=    0.000
 RMSDP=2.79D-08 MaxDP=2.18D-07 DE=-2.59D-11 OVMax= 1.07D-06

 Cycle  12  Pass 1  IDiag  1:
 E= -995.415216190292     Delta-E=       -0.000000000002 Rises=F Damp=F
 DIIS: error= 1.53D-08 at cycle  12 NSaved=  12.
 NSaved=12 IEnMin=12 EnMin= -995.415216190292     IErMin=12 ErrMin= 1.53D-08
 ErrMax= 1.53D-08  0.00D+00 EMaxC= 1.00D-01 BMatC= 2.75D-14 BMatP= 3.09D-12
 IDIUse=1 WtCom= 1.00D+00 WtEn= 0.00D+00
 Coeff-Com: -0.261D-07 0.439D-07-0.167D-06-0.288D-06 0.117D-04 0.355D-04
 Coeff-Com: -0.286D-04-0.482D-03-0.329D-02 0.114D-01 0.580D-01 0.934D+00
 Coeff:     -0.261D-07 0.439D-07-0.167D-06-0.288D-06 0.117D-04 0.355D-04
 Coeff:     -0.286D-04-0.482D-03-0.329D-02 0.114D-01 0.580D-01 0.934D+00
 Gap=     0.152 Goal=   None    Shift=    0.000
 RMSDP=5.77D-09 MaxDP=5.06D-08 DE=-2.27D-12 OVMax= 2.74D-07

 SCF Done:  E(RB971) =  -995.415216190     A.U. after   12 cycles
            NFock= 12  Conv=0.58D-08     -V/T= 2.0021
 KE= 9.933497580102D+02 PE=-2.637218069342D+03 EE= 5.124985048206D+02
 Leave Link  502 at Mon Oct 19 21:10:53 2015, MaxMem=   524288000 cpu:        13.1
 (Enter /opt/g09/l508.exe)
 QCSCF skips out because SCF is already converged.
 Leave Link  508 at Mon Oct 19 21:10:53 2015, MaxMem=   524288000 cpu:         0.0
 (Enter /opt/g09/l801.exe)
 DoSCS=F DFT=T ScalE2(SS,OS)=  1.000000  1.000000
 Range of M.O.s used for correlation:     1    82
 NBasis=    82 NAE=    21 NBE=    21 NFC=     0 NFV=     0
 NROrb=     82 NOA=    21 NOB=    21 NVA=    61 NVB=    61
 Leave Link  801 at Mon Oct 19 21:10:53 2015, MaxMem=   524288000 cpu:         0.2
 (Enter /opt/g09/l1101.exe)
 Using compressed storage, NAtomX=     3.
 Will process      4 centers per pass.
 Leave Link 1101 at Mon Oct 19 21:10:53 2015, MaxMem=   524288000 cpu:         1.2
 (Enter /opt/g09/l1102.exe)
 Symmetrizing basis deriv contribution to polar:
 IMax=3 JMax=2 DiffMx= 0.00D+00
 Leave Link 1102 at Mon Oct 19 21:10:53 2015, MaxMem=   524288000 cpu:         0.2
 (Enter /opt/g09/l1110.exe)
 Forming Gx(P) for the SCF density, NAtomX=     3.
 Integral derivatives from FoFJK, PRISM(SPDF).
 Do as many integral derivatives as possible in FoFJK.
 G2DrvN: MDV=     524287872.
 G2DrvN: will do     4 centers at a time, making    1 passes.
 Calling FoFCou, ICntrl=  3107 FMM=F I1Cent=   0 AccDes= 0.00D+00.
 FoFJK:  IHMeth= 1 ICntrl=    3107 DoSepK=F KAlg= 0 I1Cent=   0 FoldK=F
 IRaf=         0 NMat=   1 IRICut=       1 DoRegI=T DoRafI=F ISym2E= 0.
 FoFCou: FMM=F IPFlag=           0 FMFlag=      100000 FMFlg1=           0
         NFxFlg=           0 DoJE=F BraDBF=F KetDBF=F FulRan=T
         wScrn=  0.000000 ICntrl=    3107 IOpCl=  0 I1Cent=           0 NGrid=           0
         NMat0=    1 NMatS0=      1 NMatT0=    0 NMatD0=    1 NMtDS0=    0 NMtDT0=    0
 Symmetry not used in FoFCou.
 End of G2Drv F.D. properties file   721 does not exist.
 End of G2Drv F.D. properties file   722 does not exist.
 End of G2Drv F.D. properties file   788 does not exist.
 Leave Link 1110 at Mon Oct 19 21:10:55 2015, MaxMem=   524288000 cpu:        13.7
 (Enter /opt/g09/l1002.exe)
 Minotr:  Closed shell wavefunction.
          IDoAtm=111
          Direct CPHF calculation.
          Differentiating once with respect to electric field.
                with respect to dipole field.
          Differentiating once with respect to nuclear coordinates.
          Requested convergence is 1.0D-08 RMS, and 1.0D-07 maximum.
          Secondary convergence is 1.0D-12 RMS, and 1.0D-12 maximum.
          NewPWx=T KeepS1=F KeepF1=F KeepIn=T MapXYZ=F SortEE=F KeepMc=T.
          MDV=     524287884 using IRadAn=       1.
 Generate precomputed XC quadrature information.
 Keep R1 ints in memory in canonical form, NReq=6699053.
 FoFCou: FMM=F IPFlag=           0 FMFlag=           0 FMFlg1=           0
         NFxFlg=           0 DoJE=F BraDBF=F KetDBF=F FulRan=T
         wScrn=  0.000000 ICntrl=     600 IOpCl=  0 I1Cent=           0 NGrid=           0
         NMat0=    1 NMatS0=   3403 NMatT0=    0 NMatD0=    1 NMtDS0=    0 NMtDT0=    0
 Symmetry not used in FoFCou.
          Solving linear equations simultaneously, MaxMat=       0.
          There are    12 degrees of freedom in the 1st order CPHF.  IDoFFX=6 NUNeed=     3.
      9 vectors produced by pass  0 Test12= 1.07D-14 8.33D-09 XBig12= 5.40D+01 4.19D+00.
 AX will form     9 AO Fock derivatives at one time.
      9 vectors produced by pass  1 Test12= 1.07D-14 8.33D-09 XBig12= 1.19D+01 1.16D+00.
      9 vectors produced by pass  2 Test12= 1.07D-14 8.33D-09 XBig12= 6.46D-01 3.40D-01.
      9 vectors produced by pass  3 Test12= 1.07D-14 8.33D-09 XBig12= 2.24D-02 4.60D-02.
      9 vectors produced by pass  4 Test12= 1.07D-14 8.33D-09 XBig12= 1.78D-04 3.09D-03.
      9 vectors produced by pass  5 Test12= 1.07D-14 8.33D-09 XBig12= 7.26D-07 2.25D-04.
      8 vectors produced by pass  6 Test12= 1.07D-14 8.33D-09 XBig12= 1.93D-09 1.65D-05.
      3 vectors produced by pass  7 Test12= 1.07D-14 8.33D-09 XBig12= 6.53D-12 6.56D-07.
      2 vectors produced by pass  8 Test12= 1.07D-14 8.33D-09 XBig12= 1.16D-14 3.95D-08.
 InvSVY:  IOpt=1 It=  1 EMax= 1.44D-15
 Solved reduced A of dimension    67 with     9 vectors.
 FullF1:  Do perturbations    1 to     3.
 Isotropic polarizability for W=    0.000000       30.26 Bohr**3.
 End of Minotr F.D. properties file   721 does not exist.
 End of Minotr F.D. properties file   722 does not exist.
 End of Minotr F.D. properties file   788 does not exist.
 Leave Link 1002 at Mon Oct 19 21:10:58 2015, MaxMem=   524288000 cpu:        20.9
 (Enter /opt/g09/l701.exe)
 Compute integral second derivatives.
 ... and contract with generalized density number  0.
 Leave Link  701 at Mon Oct 19 21:10:58 2015, MaxMem=   524288000 cpu:         2.0
 (Enter /opt/g09/l702.exe)
 L702 exits ... SP integral derivatives will be done elsewhere.
 Leave Link  702 at Mon Oct 19 21:10:58 2015, MaxMem=   524288000 cpu:         0.2
 (Enter /opt/g09/l703.exe)
 Compute integral second derivatives, UseDBF=F ICtDFT=           0.
 Integral derivatives from FoFJK, PRISM(SPDF).
 Calling FoFJK, ICntrl=    100127 FMM=F ISym2X=0 I1Cent= 0 IOpClX= 0 NMat=1 NMatS=1 NMatT=0.
 FoFJK:  IHMeth= 1 ICntrl=  100127 DoSepK=F KAlg= 0 I1Cent=   0 FoldK=F
 IRaf=         0 NMat=   1 IRICut=       1 DoRegI=T DoRafI=F ISym2E= 0.
 FoFCou: FMM=F IPFlag=           0 FMFlag=      100000 FMFlg1=         800
         NFxFlg=           0 DoJE=F BraDBF=F KetDBF=F FulRan=T
         wScrn=  0.000000 ICntrl=  100127 IOpCl=  0 I1Cent=           0 NGrid=           0
         NMat0=    1 NMatS0=      1 NMatT0=    0 NMatD0=    1 NMtDS0=    0 NMtDT0=    0
 Symmetry not used in FoFCou.
 Leave Link  703 at Mon Oct 19 21:11:02 2015, MaxMem=   524288000 cpu:        34.1
 (Enter /opt/g09/l716.exe)
 Dipole        =-7.14707336D-09-3.16878889D-01-3.16719944D-05
 Polarizability= 4.95265212D+01-1.18582702D-07 2.25900022D+01
                -4.37177583D-03 3.92662374D-04 1.86576556D+01
 -------------------------------------------------------------------
 Center     Atomic                   Forces (Hartrees/Bohr)
 Number     Number              X              Y              Z
 -------------------------------------------------------------------
      1       17           0.000005113   -0.000003720   -0.000000067
      2        8           0.000000005    0.000007443    0.000000047
      3       17          -0.000005118   -0.000003723    0.000000020
 -------------------------------------------------------------------
 Cartesian Forces:  Max     0.000007443 RMS     0.000003879
 Force constants in Cartesian coordinates: 
                1             2             3             4             5 
      1  0.142295D+00
      2 -0.672105D-01  0.635493D-01
      3 -0.274685D-04  0.159195D-04 -0.926696D-04
      4 -0.933104D-01  0.614132D-01  0.199513D-04  0.186621D+00
      5  0.730078D-01 -0.868063D-01 -0.190647D-04  0.000000D+00  0.173613D+00
      6  0.211102D-04 -0.174241D-04  0.963218D-04 -0.272591D-04  0.173856D-04
      7 -0.489849D-01  0.579729D-02  0.751719D-05 -0.933104D-01 -0.730078D-01
      8 -0.579729D-02  0.232570D-01  0.314517D-05 -0.614132D-01 -0.868063D-01
      9  0.635827D-05  0.150458D-05 -0.365221D-05  0.730784D-05  0.167912D-05
                6             7             8             9 
      6 -0.192650D-03
      7  0.614892D-05  0.142295D+00
      8  0.000000D+00  0.672105D-01  0.635493D-01
      9  0.963283D-04 -0.136661D-04 -0.318370D-05 -0.926761D-04
 FormGI is forming the generalized inverse of G from B-inverse, IUseBI=4.
 Force constants in internal coordinates: 
                1             2             3 
      1  0.180207D+00
      2  0.465916D-01  0.180207D+00
      3  0.309499D-01  0.309499D-01  0.274585D+00
 Leave Link  716 at Mon Oct 19 21:11:02 2015, MaxMem=   524288000 cpu:         0.2
 (Enter /opt/g09/l103.exe)

 GradGradGradGradGradGradGradGradGradGradGradGradGradGradGradGradGradGrad
 Berny optimization.
 Red2BG is reusing G-inverse.
 Internal  Forces:  Max     0.000006322 RMS     0.000005191
 Search for a local minimum.
 Step number   1 out of a maximum of  100
 All quantities printed in internal units (Hartrees-Bohrs-Radians)
 RMS Force = .51906D-05 SwitMx=.10000D-02 MixMth= 2
 Mixed Optimization -- En-DIIS/RFO-DIIS
 Second derivative matrix not updated -- analytic derivatives used.
 The second derivative matrix:
                          R1        R2        A1
           R1           0.18021
           R2           0.04659   0.18021
           A1           0.03095   0.03095   0.27458
 ITU=  0
     Eigenvalues ---    0.13362   0.20082   0.30056
 RFO step:  Lambda= 0.00000000D+00 EMin= 1.33615126D-01
 Linear search not attempted -- first point.
 Iteration  1 RMS(Cart)=  0.00001887 RMS(Int)=  0.00000000
 Iteration  2 RMS(Cart)=  0.00000000 RMS(Int)=  0.00000000
 ITry= 1 IFail=0 DXMaxC= 2.00D-05 DCOld= 1.00D+10 DXMaxT= 2.56D+00 DXLimC= 3.00D+00 Rises=F
 Variable       Old X    -DE/DX   Delta X   Delta X   Delta X     New X
                                 (Linear)    (Quad)   (Total)
    R1        3.27218   0.00001   0.00000   0.00003   0.00003   3.27221
    R2        3.27218   0.00001   0.00000   0.00003   0.00003   3.27221
    A1        1.97953   0.00000   0.00000  -0.00001  -0.00001   1.97952
         Item               Value     Threshold  Converged?
 Maximum Force            0.000006     0.000015     YES
 RMS     Force            0.000005     0.000010     YES
 Maximum Displacement     0.000020     0.000060     YES
 RMS     Displacement     0.000019     0.000040     YES
 Predicted change in Energy=-1.898820D-10
 Optimization completed.
    -- Stationary point found.
                           ----------------------------
                           !   Optimized Parameters   !
                           ! (Angstroms and Degrees)  !
 --------------------------                            --------------------------
 ! Name  Definition              Value          Derivative Info.                !
 --------------------------------------------------------------------------------
 ! R1    R(1,2)                  1.7316         -DE/DX =    0.0                 !
 ! R2    R(2,3)                  1.7316         -DE/DX =    0.0                 !
 ! A1    A(1,2,3)              113.4188         -DE/DX =    0.0                 !
 --------------------------------------------------------------------------------
 Lowest energy point so far.  Saving SCF results.
 GradGradGradGradGradGradGradGradGradGradGradGradGradGradGradGradGradGrad

 Largest change from initial coordinates is atom    0       0.000 Angstoms.
 Leave Link  103 at Mon Oct 19 21:11:02 2015, MaxMem=   524288000 cpu:         0.0
 (Enter /opt/g09/l202.exe)
                          Input orientation:                          
 ---------------------------------------------------------------------
 Center     Atomic      Atomic             Coordinates (Angstroms)
 Number     Number       Type             X           Y           Z
 ---------------------------------------------------------------------
      1         17           0        1.447410   -0.181030   -0.000220
      2          8           0        0.000000    0.769400    0.000080
      3         17           0       -1.447410   -0.181030    0.000190
 ---------------------------------------------------------------------
                    Distance matrix (angstroms):
                    1          2          3
     1  Cl   0.000000
     2  O    1.731564   0.000000
     3  Cl   2.894820   1.731564   0.000000
 Symmetry turned off by external request.
 Stoichiometry    Cl2O
 Framework group  C1[X(Cl2O)]
 Deg. of freedom     3
 Full point group                 C1      NOp   1
 Rotational constants (GHZ):     42.9775512      3.4492341      3.1929765
 Leave Link  202 at Mon Oct 19 21:11:02 2015, MaxMem=   524288000 cpu:         0.0
 (Enter /opt/g09/l716.exe)
 Dipole        =-7.14707336D-09-3.16878889D-01-3.16719944D-05
 Polarizability= 4.95265212D+01-1.18582702D-07 2.25900022D+01
                -4.37177583D-03 3.92662374D-04 1.86576556D+01
 Full mass-weighted force constant matrix:
 Low frequencies ---  -19.7755   -9.4393   -8.2020   -0.0042   -0.0040   -0.0005
 Low frequencies ---  289.2964  639.8099  642.8574
 Diagonal vibrational polarizability:
        1.6970704       0.0594851       0.0000000
 Harmonic frequencies (cm**-1), IR intensities (KM/Mole), Raman scattering
 activities (A**4/AMU), depolarization ratios for plane and unpolarized
 incident light, reduced masses (AMU), force constants (mDyne/A),
 and normal coordinates:
                      1                      2                      3
                      A                      A                      A
 Frequencies --    289.2964               639.8099               642.8574
 Red. masses --     29.6785                18.4657                19.5664
 Frc consts  --      1.4635                 4.4537                 4.7642
 IR Inten    --      0.0732                25.8148                 0.5518
  Atom  AN      X      Y      Z        X      Y      Z        X      Y      Z
     1  17     0.59   0.12   0.00    -0.21   0.14   0.00    -0.23   0.21   0.00
     2   8     0.00  -0.53   0.00     0.93   0.00   0.00     0.00  -0.90   0.00
     3  17    -0.59   0.12   0.00    -0.21  -0.14   0.00     0.23   0.21   0.00

 -------------------
 - Thermochemistry -
 -------------------
 Temperature   298.150 Kelvin.  Pressure   1.00000 Atm.
 Atom     1 has atomic number 17 and mass  34.96885
 Atom     2 has atomic number  8 and mass  15.99491
 Atom     3 has atomic number 17 and mass  34.96885
 Molecular mass:    85.93262 amu.
 Principal axes and moments of inertia in atomic units:
                           1         2         3
     Eigenvalues --    41.99265 523.22955 565.22220
           X            1.00000   0.00000   0.00014
           Y            0.00000   1.00000  -0.00010
           Z           -0.00014   0.00010   1.00000
 This molecule is an asymmetric top.
 Rotational symmetry number  1.
 Rotational temperatures (Kelvin)      2.06259     0.16554     0.15324
 Rotational constants (GHZ):          42.97755     3.44923     3.19298
 Zero-point vibrational energy       9402.4 (Joules/Mol)
                                    2.24723 (Kcal/Mol)
 Warning -- explicit consideration of   1 degrees of freedom as
           vibrations may cause significant error
 Vibrational temperatures:    416.23   920.54   924.93
          (Kelvin)
 
 Zero-point correction=                           0.003581 (Hartree/Particle)
 Thermal correction to Energy=                    0.007125
 Thermal correction to Enthalpy=                  0.008069
 Thermal correction to Gibbs Free Energy=        -0.023074
 Sum of electronic and zero-point Energies=           -995.411635
 Sum of electronic and thermal Energies=              -995.408092
 Sum of electronic and thermal Enthalpies=            -995.407147
 Sum of electronic and thermal Free Energies=         -995.438290
 
                     E (Thermal)             CV                S
                      KCal/Mol        Cal/Mol-Kelvin    Cal/Mol-Kelvin
 Total                    4.471              9.546             65.545
 Electronic               0.000              0.000              0.000
 Translational            0.889              2.981             39.266
 Rotational               0.889              2.981             24.033
 Vibrational              2.693              3.585              2.246
 Vibration     1          0.686              1.694              1.478
                       Q            Log10(Q)             Ln(Q)
 Total Bot       0.410331D+11         10.613134         24.437644
 Total V=0       0.182124D+13         12.260367         28.230537
 Vib (Bot)       0.328513D-01         -1.483447         -3.415763
 Vib (Bot)    1  0.661283D+00         -0.179613         -0.413574
 Vib (V=0)       0.145809D+01          0.163786          0.377130
 Vib (V=0)    1  0.132903D+01          0.123536          0.284451
 Electronic      0.100000D+01          0.000000          0.000000
 Translational   0.313107D+08          7.495692         17.259469
 Rotational      0.398923D+05          4.600889         10.593938
 
                                                        ./00_00fine-ClOCl.g09
                                                             IR Spectrum
 
                                                                                                                                     
     66                                                                    2                                                         
     44                                                                    8                                                         
     30                                                                    9                                                         
 
     XX                                                                    X                                                         
      X                                                                                                                              
      X                                                                                                                              
      X                                                                                                                              
      X                                                                                                                              
      X                                                                                                                              
      X                                                                                                                              
      X                                                                                                                              
      X                                                                                                                              
      X                                                                                                                              
      X                                                                                                                              
      X                                                                                                                              
      X                                                                                                                              
      X                                                                                                                              
      X                                                                                                                              
      X                                                                                                                              
      X                                                                                                                              
      X                                                                                                                              
      X                                                                                                                              
      X                                                                                                                              
 
 -------------------------------------------------------------------
 Center     Atomic                   Forces (Hartrees/Bohr)
 Number     Number              X              Y              Z
 -------------------------------------------------------------------
      1       17           0.000005113   -0.000003720   -0.000000067
      2        8           0.000000005    0.000007443    0.000000047
      3       17          -0.000005118   -0.000003723    0.000000020
 -------------------------------------------------------------------
 Cartesian Forces:  Max     0.000007443 RMS     0.000003879
 Force constants in Cartesian coordinates: 
                1             2             3             4             5 
      1  0.142295D+00
      2 -0.672105D-01  0.635493D-01
      3 -0.274685D-04  0.159195D-04 -0.926696D-04
      4 -0.933104D-01  0.614132D-01  0.199513D-04  0.186621D+00
      5  0.730078D-01 -0.868063D-01 -0.190647D-04  0.000000D+00  0.173613D+00
      6  0.211102D-04 -0.174241D-04  0.963218D-04 -0.272591D-04  0.173856D-04
      7 -0.489849D-01  0.579729D-02  0.751719D-05 -0.933104D-01 -0.730078D-01
      8 -0.579729D-02  0.232570D-01  0.314517D-05 -0.614132D-01 -0.868063D-01
      9  0.635827D-05  0.150458D-05 -0.365221D-05  0.730784D-05  0.167912D-05
                6             7             8             9 
      6 -0.192650D-03
      7  0.614892D-05  0.142295D+00
      8  0.000000D+00  0.672105D-01  0.635493D-01
      9  0.963283D-04 -0.136661D-04 -0.318370D-05 -0.926761D-04
 Red2BG is reusing G-inverse.
 Force constants in internal coordinates: 
                1             2             3 
      1  0.180207D+00
      2  0.465916D-01  0.180207D+00
      3  0.309499D-01  0.309499D-01  0.274585D+00
 Leave Link  716 at Mon Oct 19 21:11:02 2015, MaxMem=   524288000 cpu:         0.2
 (Enter /opt/g09/l9999.exe)
 1\1\GINC-CONSTABLE\Freq\RB971\6-311+G(d,p)\Cl2O1\PB556\19-Oct-2015\0\\
 #p rB971/6-311+G(d,p) Opt=(Tight, CalcAll, MaxCycles=512, MaxStep=256)
  Freq GFInput Population=None Integral(Grid=UltraFine) SCF=XQC Guess=M
 IX NoSymmetry\\./00_00fine-ClOCl.g09\\0,1\Cl,1.44741,-0.18103,-0.00022
 \O,0.,0.7694,0.00008\Cl,-1.44741,-0.18103,0.00019\\Version=ES64L-G09Re
 vD.01\HF=-995.4152162\RMSD=5.774e-09\RMSF=3.879e-06\ZeroPoint=0.003581
 2\Thermal=0.0071247\Dipole=0.,-0.3168789,-0.0000317\DipoleDeriv=-0.275
 8865,-0.0100219,0.0000505,0.2391194,0.0454755,-0.0000382,0.0000754,-0.
 0000029,0.0882564,0.5517729,0.,-0.000103,0.,-0.090951,0.0000086,-0.000
 103,0.0000086,-0.1765128,-0.2758865,0.0100219,0.0000525,-0.2391194,0.0
 454755,0.0000296,0.0000276,-0.0000057,0.0882564\Polar=49.5265212,-0.00
 00001,22.5900022,-0.0043718,0.0003927,18.6576556\PG=C01 [X(Cl2O1)]\NIm
 ag=0\\0.14229522,-0.06721050,0.06354931,-0.00002747,0.00001592,-0.0000
 9267,-0.09331037,0.06141321,0.00001995,0.18662075,0.07300778,-0.086806
 28,-0.00001906,0.00000001,0.17361256,0.00002111,-0.00001742,0.00009632
 ,-0.00002726,0.00001739,-0.00019265,-0.04898485,0.00579729,0.00000752,
 -0.09331038,-0.07300779,0.00000615,0.14229523,-0.00579729,0.02325696,0
 .00000315,-0.06141322,-0.08680628,0.00000004,0.06721051,0.06354932,0.0
 0000636,0.00000150,-0.00000365,0.00000731,0.00000168,0.00009633,-0.000
 01367,-0.00000318,-0.00009268\\-0.00000511,0.00000372,0.00000007,0.,-0
 .00000744,-0.00000005,0.00000512,0.00000372,-0.00000002\\\@


 ACCORDING TO HEN3RY, LIFE IS MUCH LIKE A SEWER........
 YOU GET OUT OF IT JUST WHAT YOU PUT INTO IT...........
                         TOM LEHRER - (THE 3 IS SILENT)
 Leave Link 9999 at Mon Oct 19 21:11:03 2015, MaxMem=   524288000 cpu:         0.2
 Job cpu time:       0 days  0 hours  1 minutes 32.4 seconds.
 File lengths (MBytes):  RWF=      7 Int=      0 D2E=      0 Chk=      2 Scr=      1
 Normal termination of Gaussian 09 at Mon Oct 19 21:11:03 2015.
 (Enter /opt/g09/l1.exe)
 Link1:  Proceeding to internal job step number  2.
 ----------------------------------------------------------------------
 #P Geom=AllCheck Guess=TCheck SCRF=Check GenChk RB971/6-311+G(d,p) Fre
 q
 ----------------------------------------------------------------------
 1/6=512,7=10,8=256,10=4,29=7,30=1,38=1,40=1/1,3;
 2/12=2,15=1,40=1/2;
 3/5=4,6=6,7=111,11=2,14=-4,16=1,24=10,25=1,30=1,70=2,71=2,74=-20,75=-5,116=1,140=1/1,2,3;
 4/5=101/1;
 5/5=2,8=3,13=1,98=1/2,8;
 8/6=4,10=90,11=11/1;
 11/6=1,8=1,9=11,15=111,16=1,31=1/1,2,10;
 10/6=1,31=1/2;
 7/8=1,10=1,25=1,30=1/1,2,3,16;
 1/6=512,7=10,8=256,10=4,30=1/3;
 99//99;
 Leave Link    1 at Mon Oct 19 21:11:03 2015, MaxMem=   524288000 cpu:         0.3
 (Enter /opt/g09/l101.exe)
 Structure from the checkpoint file:  "/scratch/pb556/g09_run/ti_runs//Gau-16908.chk"
 ---------------------
 ./00_00fine-ClOCl.g09
 ---------------------
 Charge =  0 Multiplicity = 1
 Redundant internal coordinates found in file.
 Cl,0,1.44741,-0.18103,-0.00022
 O,0,0.,0.7694,0.00008
 Cl,0,-1.44741,-0.18103,0.00019
 Recover connectivity data from disk.
 NAtoms=      3 NQM=        3 NQMF=       0 NMMI=      0 NMMIF=      0
                NMic=       0 NMicF=      0.
                    Isotopes and Nuclear Properties:
 (Nuclear quadrupole moments (NQMom) in fm**2, nuclear magnetic moments (NMagM)
  in nuclear magnetons)

  Atom         1           2           3
 IAtWgt=          35          16          35
 AtmWgt=  34.9688527  15.9949146  34.9688527
 NucSpn=           3           0           3
 AtZEff= -14.2400000  -5.6000000 -14.2400000
 NQMom=   -8.1650000   0.0000000  -8.1650000
 NMagM=    0.8218740   0.0000000   0.8218740
 AtZNuc=  17.0000000   8.0000000  17.0000000
 Leave Link  101 at Mon Oct 19 21:11:03 2015, MaxMem=   524288000 cpu:         1.3
 (Enter /opt/g09/l103.exe)

 GradGradGradGradGradGradGradGradGradGradGradGradGradGradGradGradGradGrad
 Berny optimization.
 Initialization pass.
                           ----------------------------
                           !    Initial Parameters    !
                           ! (Angstroms and Degrees)  !
 --------------------------                            --------------------------
 ! Name  Definition              Value          Derivative Info.                !
 --------------------------------------------------------------------------------
 ! R1    R(1,2)                  1.7316         calculate D2E/DX2 analytically  !
 ! R2    R(2,3)                  1.7316         calculate D2E/DX2 analytically  !
 ! A1    A(1,2,3)              113.4188         calculate D2E/DX2 analytically  !
 --------------------------------------------------------------------------------
 Trust Radius=2.56D+00 FncErr=1.00D-07 GrdErr=1.00D-07
 Number of steps in this run=      2 maximum allowed number of steps=      2.
 GradGradGradGradGradGradGradGradGradGradGradGradGradGradGradGradGradGrad

 Leave Link  103 at Mon Oct 19 21:11:03 2015, MaxMem=   524288000 cpu:         0.1
 (Enter /opt/g09/l202.exe)
                          Input orientation:                          
 ---------------------------------------------------------------------
 Center     Atomic      Atomic             Coordinates (Angstroms)
 Number     Number       Type             X           Y           Z
 ---------------------------------------------------------------------
      1         17           0        1.447410   -0.181030   -0.000220
      2          8           0        0.000000    0.769400    0.000080
      3         17           0       -1.447410   -0.181030    0.000190
 ---------------------------------------------------------------------
                    Distance matrix (angstroms):
                    1          2          3
     1  Cl   0.000000
     2  O    1.731564   0.000000
     3  Cl   2.894820   1.731564   0.000000
 Symmetry turned off by external request.
 Stoichiometry    Cl2O
 Framework group  C1[X(Cl2O)]
 Deg. of freedom     3
 Full point group                 C1      NOp   1
 Rotational constants (GHZ):     42.9775512      3.4492341      3.1929765
 Leave Link  202 at Mon Oct 19 21:11:03 2015, MaxMem=   524288000 cpu:         0.1
 (Enter /opt/g09/l301.exe)
 Standard basis: 6-311+G(d,p) (5D, 7F)
 Ernie: Thresh=  0.10000D-02 Tol=  0.10000D-05 Strict=F.
 AO basis set in the form of general basis input (Overlap normalization):
      1 0
 S   6 1.00       0.000000000000
      0.1058190000D+06  0.7380002465D-03
      0.1587200000D+05  0.5718001910D-02
      0.3619650000D+04  0.2949500985D-01
      0.1030800000D+04  0.1172860392D+00
      0.3399080000D+03  0.3629491212D+00
      0.1245380000D+03  0.5841491951D+00
 S   3 1.00       0.000000000000
      0.1245380000D+03  0.1341769734D+00
      0.4951350000D+02  0.6242498762D+00
      0.2080560000D+02  0.2917559421D+00
 S   1 1.00       0.000000000000
      0.6583460000D+01  0.1000000000D+01
 S   1 1.00       0.000000000000
      0.2564680000D+01  0.1000000000D+01
 S   1 1.00       0.000000000000
      0.5597630000D+00  0.1000000000D+01
 S   1 1.00       0.000000000000
      0.1832730000D+00  0.1000000000D+01
 SP   1 1.00       0.000000000000
      0.4830000000D-01  0.1000000000D+01  0.1000000000D+01
 P   5 1.00       0.000000000000
      0.5897760000D+03  0.3665569355D-02
      0.1398490000D+03  0.2836791942D-01
      0.4514130000D+02  0.1247566028D+00
      0.1687330000D+02  0.3396546305D+00
      0.2771520000D+01  0.7475859630D+00
 P   2 1.00       0.000000000000
      0.6741100000D+01 -0.1572243813D+01
      0.2771520000D+01  0.9923888817D+00
 P   1 1.00       0.000000000000
      0.1023870000D+01  0.1000000000D+01
 P   1 1.00       0.000000000000
      0.3813680000D+00  0.1000000000D+01
 P   1 1.00       0.000000000000
      0.1094370000D+00  0.1000000000D+01
 D   1 1.00       0.000000000000
      0.7500000000D+00  0.1000000000D+01
 ****
      2 0
 S   6 1.00       0.000000000000
      0.8588500000D+04  0.1895150083D-02
      0.1297230000D+04  0.1438590063D-01
      0.2992960000D+03  0.7073200310D-01
      0.8737710000D+02  0.2400010105D+00
      0.2567890000D+02  0.5947970261D+00
      0.3740040000D+01  0.2808020123D+00
 SP   3 1.00       0.000000000000
      0.4211750000D+02  0.1138890124D+00  0.3651139738D-01
      0.9628370000D+01  0.9208111006D+00  0.2371529830D+00
      0.2853320000D+01 -0.3274470358D-02  0.8197019412D+00
 SP   1 1.00       0.000000000000
      0.9056610000D+00  0.1000000000D+01  0.1000000000D+01
 SP   1 1.00       0.000000000000
      0.2556110000D+00  0.1000000000D+01  0.1000000000D+01
 SP   1 1.00       0.000000000000
      0.8450000000D-01  0.1000000000D+01  0.1000000000D+01
 D   1 1.00       0.000000000000
      0.1292000000D+01  0.1000000000D+01
 ****
      3 0
 S   6 1.00       0.000000000000
      0.1058190000D+06  0.7380002465D-03
      0.1587200000D+05  0.5718001910D-02
      0.3619650000D+04  0.2949500985D-01
      0.1030800000D+04  0.1172860392D+00
      0.3399080000D+03  0.3629491212D+00
      0.1245380000D+03  0.5841491951D+00
 S   3 1.00       0.000000000000
      0.1245380000D+03  0.1341769734D+00
      0.4951350000D+02  0.6242498762D+00
      0.2080560000D+02  0.2917559421D+00
 S   1 1.00       0.000000000000
      0.6583460000D+01  0.1000000000D+01
 S   1 1.00       0.000000000000
      0.2564680000D+01  0.1000000000D+01
 S   1 1.00       0.000000000000
      0.5597630000D+00  0.1000000000D+01
 S   1 1.00       0.000000000000
      0.1832730000D+00  0.1000000000D+01
 SP   1 1.00       0.000000000000
      0.4830000000D-01  0.1000000000D+01  0.1000000000D+01
 P   5 1.00       0.000000000000
      0.5897760000D+03  0.3665569355D-02
      0.1398490000D+03  0.2836791942D-01
      0.4514130000D+02  0.1247566028D+00
      0.1687330000D+02  0.3396546305D+00
      0.2771520000D+01  0.7475859630D+00
 P   2 1.00       0.000000000000
      0.6741100000D+01 -0.1572243813D+01
      0.2771520000D+01  0.9923888817D+00
 P   1 1.00       0.000000000000
      0.1023870000D+01  0.1000000000D+01
 P   1 1.00       0.000000000000
      0.3813680000D+00  0.1000000000D+01
 P   1 1.00       0.000000000000
      0.1094370000D+00  0.1000000000D+01
 D   1 1.00       0.000000000000
      0.7500000000D+00  0.1000000000D+01
 ****

    82 basis functions,   142 primitive gaussians,    85 cartesian basis functions
    21 alpha electrons       21 beta electrons
       nuclear repulsion energy       135.9545903213 Hartrees.
 IExCor= 1614 DFT=T Ex+Corr=B971 ExCW=0 ScaHFX=  0.210000
 ScaDFX=  1.000000  1.000000  1.000000  1.000000 ScalE2=  1.000000  1.000000
 IRadAn=      5 IRanWt=     -1 IRanGd=            0 ICorTp=0 IEmpDi=  4
 NAtoms=    3 NActive=    3 NUniq=    3 SFac= 1.00D+00 NAtFMM=   60 NAOKFM=F Big=F
 Integral buffers will be    131072 words long.
 Raffenetti 2 integral format.
 Two-electron integral symmetry is turned off.
 Leave Link  301 at Mon Oct 19 21:11:03 2015, MaxMem=   524288000 cpu:         0.4
 (Enter /opt/g09/l302.exe)
 NPDir=0 NMtPBC=     1 NCelOv=     1 NCel=       1 NClECP=     1 NCelD=      1
         NCelK=      1 NCelE2=     1 NClLst=     1 CellRange=     0.0.
 One-electron integrals computed using PRISM.
 NBasis=    82 RedAO= T EigKep=  5.08D-03  NBF=    82
 NBsUse=    82 1.00D-06 EigRej= -1.00D+00 NBFU=    82
 Precomputing XC quadrature grid using
 IXCGrd= 4 IRadAn=           5 IRanWt=          -1 IRanGd=           0 AccXCQ= 0.00D+00.
 Generated NRdTot=       0 NPtTot=           0 NUsed=           0 NTot=          32
 NSgBfM=    84    85    85    85    85 MxSgAt=     3 MxSgA2=     3.
 Leave Link  302 at Mon Oct 19 21:11:03 2015, MaxMem=   524288000 cpu:         1.2
 (Enter /opt/g09/l303.exe)
 DipDrv:  MaxL=1.
 Leave Link  303 at Mon Oct 19 21:11:03 2015, MaxMem=   524288000 cpu:         0.2
 (Enter /opt/g09/l401.exe)
 Initial guess from the checkpoint file:  "/scratch/pb556/g09_run/ti_runs//Gau-16908.chk"
 B after Tr=     0.000000    0.000000    0.000000
         Rot=    1.000000    0.000000    0.000000    0.000000 Ang=   0.00 deg.
 Guess basis will be translated and rotated to current coordinates.
 JPrj=2 DoOrth=T DoCkMO=T.
 Leave Link  401 at Mon Oct 19 21:11:03 2015, MaxMem=   524288000 cpu:         0.7
 (Enter /opt/g09/l502.exe)
 Closed shell SCF:
 Using DIIS extrapolation, IDIIS=  1040.
 Two-electron integral symmetry not used.
 Keep R1 ints in memory in canonical form, NReq=6729473.
 IVT=       28813 IEndB=       28813 NGot=   524288000 MDV=   518467282
 LenX=   518467282 LenY=   518459616
 Requested convergence on RMS density matrix=1.00D-08 within  64 cycles.
 Requested convergence on MAX density matrix=1.00D-06.
 Requested convergence on             energy=1.00D-06.
 No special actions if energy rises.
 FoFCou: FMM=F IPFlag=           0 FMFlag=           0 FMFlg1=           0
         NFxFlg=           0 DoJE=F BraDBF=F KetDBF=F FulRan=T
         wScrn=  0.000000 ICntrl=     600 IOpCl=  0 I1Cent=           0 NGrid=           0
         NMat0=    1 NMatS0=   3403 NMatT0=    0 NMatD0=    1 NMtDS0=    0 NMtDT0=    0
 Symmetry not used in FoFCou.

 Cycle   1  Pass 1  IDiag  1:
 E= -995.415216190293    
 DIIS: error= 3.26D-09 at cycle   1 NSaved=   1.
 NSaved= 1 IEnMin= 1 EnMin= -995.415216190293     IErMin= 1 ErrMin= 3.26D-09
 ErrMax= 3.26D-09  0.00D+00 EMaxC= 1.00D-01 BMatC= 1.38D-15 BMatP= 1.38D-15
 IDIUse=1 WtCom= 1.00D+00 WtEn= 0.00D+00
 Coeff-Com:  0.100D+01
 Coeff:      0.100D+01
 Gap=     0.152 Goal=   None    Shift=    0.000
 RMSDP=6.31D-10 MaxDP=1.02D-08              OVMax= 2.21D-08

 SCF Done:  E(RB971) =  -995.415216190     A.U. after    1 cycles
            NFock=  1  Conv=0.63D-09     -V/T= 2.0021
 KE= 9.933497577806D+02 PE=-2.637218071135D+03 EE= 5.124985068431D+02
 Leave Link  502 at Mon Oct 19 21:11:04 2015, MaxMem=   524288000 cpu:         2.7
 (Enter /opt/g09/l508.exe)
 QCSCF skips out because SCF is already converged.
 Leave Link  508 at Mon Oct 19 21:11:04 2015, MaxMem=   524288000 cpu:         0.0
 (Enter /opt/g09/l801.exe)
 DoSCS=F DFT=T ScalE2(SS,OS)=  1.000000  1.000000
 Range of M.O.s used for correlation:     1    82
 NBasis=    82 NAE=    21 NBE=    21 NFC=     0 NFV=     0
 NROrb=     82 NOA=    21 NOB=    21 NVA=    61 NVB=    61
 Leave Link  801 at Mon Oct 19 21:11:04 2015, MaxMem=   524288000 cpu:         0.2
 (Enter /opt/g09/l1101.exe)
 Using compressed storage, NAtomX=     3.
 Will process      4 centers per pass.
 Leave Link 1101 at Mon Oct 19 21:11:04 2015, MaxMem=   524288000 cpu:         1.2
 (Enter /opt/g09/l1102.exe)
 Symmetrizing basis deriv contribution to polar:
 IMax=3 JMax=2 DiffMx= 0.00D+00
 Leave Link 1102 at Mon Oct 19 21:11:04 2015, MaxMem=   524288000 cpu:         0.2
 (Enter /opt/g09/l1110.exe)
 Forming Gx(P) for the SCF density, NAtomX=     3.
 Integral derivatives from FoFJK, PRISM(SPDF).
 Do as many integral derivatives as possible in FoFJK.
 G2DrvN: MDV=     524287872.
 G2DrvN: will do     4 centers at a time, making    1 passes.
 Calling FoFCou, ICntrl=  3107 FMM=F I1Cent=   0 AccDes= 0.00D+00.
 FoFJK:  IHMeth= 1 ICntrl=    3107 DoSepK=F KAlg= 0 I1Cent=   0 FoldK=F
 IRaf=         0 NMat=   1 IRICut=       1 DoRegI=T DoRafI=F ISym2E= 0.
 FoFCou: FMM=F IPFlag=           0 FMFlag=      100000 FMFlg1=           0
         NFxFlg=           0 DoJE=F BraDBF=F KetDBF=F FulRan=T
         wScrn=  0.000000 ICntrl=    3107 IOpCl=  0 I1Cent=           0 NGrid=           0
         NMat0=    1 NMatS0=      1 NMatT0=    0 NMatD0=    1 NMtDS0=    0 NMtDT0=    0
 Symmetry not used in FoFCou.
 End of G2Drv F.D. properties file   721 does not exist.
 End of G2Drv F.D. properties file   722 does not exist.
 End of G2Drv F.D. properties file   788 does not exist.
 Leave Link 1110 at Mon Oct 19 21:11:06 2015, MaxMem=   524288000 cpu:        13.8
 (Enter /opt/g09/l1002.exe)
 Minotr:  Closed shell wavefunction.
          IDoAtm=111
          Direct CPHF calculation.
          Differentiating once with respect to electric field.
                with respect to dipole field.
          Differentiating once with respect to nuclear coordinates.
          Requested convergence is 1.0D-08 RMS, and 1.0D-07 maximum.
          Secondary convergence is 1.0D-12 RMS, and 1.0D-12 maximum.
          NewPWx=T KeepS1=F KeepF1=F KeepIn=T MapXYZ=F SortEE=F KeepMc=T.
          MDV=     524287884 using IRadAn=       1.
 Generate precomputed XC quadrature information.
 Keep R1 ints in memory in canonical form, NReq=6699053.
 FoFCou: FMM=F IPFlag=           0 FMFlag=           0 FMFlg1=           0
         NFxFlg=           0 DoJE=F BraDBF=F KetDBF=F FulRan=T
         wScrn=  0.000000 ICntrl=     600 IOpCl=  0 I1Cent=           0 NGrid=           0
         NMat0=    1 NMatS0=   3403 NMatT0=    0 NMatD0=    1 NMtDS0=    0 NMtDT0=    0
 Symmetry not used in FoFCou.
          Solving linear equations simultaneously, MaxMat=       0.
          There are    12 degrees of freedom in the 1st order CPHF.  IDoFFX=6 NUNeed=     3.
      9 vectors produced by pass  0 Test12= 1.07D-14 8.33D-09 XBig12= 5.40D+01 4.19D+00.
 AX will form     9 AO Fock derivatives at one time.
      9 vectors produced by pass  1 Test12= 1.07D-14 8.33D-09 XBig12= 1.19D+01 1.16D+00.
      9 vectors produced by pass  2 Test12= 1.07D-14 8.33D-09 XBig12= 6.46D-01 3.40D-01.
      9 vectors produced by pass  3 Test12= 1.07D-14 8.33D-09 XBig12= 2.24D-02 4.60D-02.
      9 vectors produced by pass  4 Test12= 1.07D-14 8.33D-09 XBig12= 1.78D-04 3.09D-03.
      9 vectors produced by pass  5 Test12= 1.07D-14 8.33D-09 XBig12= 7.26D-07 2.25D-04.
      8 vectors produced by pass  6 Test12= 1.07D-14 8.33D-09 XBig12= 1.93D-09 1.65D-05.
      3 vectors produced by pass  7 Test12= 1.07D-14 8.33D-09 XBig12= 6.53D-12 6.56D-07.
      2 vectors produced by pass  8 Test12= 1.07D-14 8.33D-09 XBig12= 1.16D-14 3.95D-08.
 InvSVY:  IOpt=1 It=  1 EMax= 1.33D-15
 Solved reduced A of dimension    67 with     9 vectors.
 FullF1:  Do perturbations    1 to     3.
 Isotropic polarizability for W=    0.000000       30.26 Bohr**3.
 End of Minotr F.D. properties file   721 does not exist.
 End of Minotr F.D. properties file   722 does not exist.
 End of Minotr F.D. properties file   788 does not exist.
 Leave Link 1002 at Mon Oct 19 21:11:08 2015, MaxMem=   524288000 cpu:        20.9
 (Enter /opt/g09/l701.exe)
 Compute integral second derivatives.
 ... and contract with generalized density number  0.
 Leave Link  701 at Mon Oct 19 21:11:09 2015, MaxMem=   524288000 cpu:         2.0
 (Enter /opt/g09/l702.exe)
 L702 exits ... SP integral derivatives will be done elsewhere.
 Leave Link  702 at Mon Oct 19 21:11:09 2015, MaxMem=   524288000 cpu:         0.2
 (Enter /opt/g09/l703.exe)
 Compute integral second derivatives, UseDBF=F ICtDFT=           0.
 Integral derivatives from FoFJK, PRISM(SPDF).
 Calling FoFJK, ICntrl=    100127 FMM=F ISym2X=0 I1Cent= 0 IOpClX= 0 NMat=1 NMatS=1 NMatT=0.
 FoFJK:  IHMeth= 1 ICntrl=  100127 DoSepK=F KAlg= 0 I1Cent=   0 FoldK=F
 IRaf=         0 NMat=   1 IRICut=       1 DoRegI=T DoRafI=F ISym2E= 0.
 FoFCou: FMM=F IPFlag=           0 FMFlag=      100000 FMFlg1=         800
         NFxFlg=           0 DoJE=F BraDBF=F KetDBF=F FulRan=T
         wScrn=  0.000000 ICntrl=  100127 IOpCl=  0 I1Cent=           0 NGrid=           0
         NMat0=    1 NMatS0=      1 NMatT0=    0 NMatD0=    1 NMtDS0=    0 NMtDT0=    0
 Symmetry not used in FoFCou.
 Leave Link  703 at Mon Oct 19 21:11:13 2015, MaxMem=   524288000 cpu:        34.1
 (Enter /opt/g09/l716.exe)
 Dipole        =-3.40494954D-08-3.16878817D-01-3.16609594D-05
 Polarizability= 4.95265206D+01-1.30935313D-07 2.25900026D+01
                -4.37177575D-03 3.92648423D-04 1.86576557D+01
 Full mass-weighted force constant matrix:
 Low frequencies ---  -19.7760   -9.4394   -8.2020   -0.0012    0.0035    0.0040
 Low frequencies ---  289.2964  639.8099  642.8574
 Diagonal vibrational polarizability:
        1.6970715       0.0594850       0.0000000
 Harmonic frequencies (cm**-1), IR intensities (KM/Mole), Raman scattering
 activities (A**4/AMU), depolarization ratios for plane and unpolarized
 incident light, reduced masses (AMU), force constants (mDyne/A),
 and normal coordinates:
                      1                      2                      3
                      A                      A                      A
 Frequencies --    289.2964               639.8099               642.8574
 Red. masses --     29.6785                18.4657                19.5664
 Frc consts  --      1.4635                 4.4537                 4.7642
 IR Inten    --      0.0732                25.8148                 0.5518
  Atom  AN      X      Y      Z        X      Y      Z        X      Y      Z
     1  17     0.59   0.12   0.00    -0.21   0.14   0.00    -0.23   0.21   0.00
     2   8     0.00  -0.53   0.00     0.93   0.00   0.00     0.00  -0.90   0.00
     3  17    -0.59   0.12   0.00    -0.21  -0.14   0.00     0.23   0.21   0.00

 -------------------
 - Thermochemistry -
 -------------------
 Temperature   298.150 Kelvin.  Pressure   1.00000 Atm.
 Atom     1 has atomic number 17 and mass  34.96885
 Atom     2 has atomic number  8 and mass  15.99491
 Atom     3 has atomic number 17 and mass  34.96885
 Molecular mass:    85.93262 amu.
 Principal axes and moments of inertia in atomic units:
                           1         2         3
     Eigenvalues --    41.99265 523.22955 565.22220
           X            1.00000   0.00000   0.00014
           Y            0.00000   1.00000  -0.00010
           Z           -0.00014   0.00010   1.00000
 This molecule is an asymmetric top.
 Rotational symmetry number  1.
 Rotational temperatures (Kelvin)      2.06259     0.16554     0.15324
 Rotational constants (GHZ):          42.97755     3.44923     3.19298
 Zero-point vibrational energy       9402.4 (Joules/Mol)
                                    2.24723 (Kcal/Mol)
 Warning -- explicit consideration of   1 degrees of freedom as
           vibrations may cause significant error
 Vibrational temperatures:    416.23   920.54   924.93
          (Kelvin)
 
 Zero-point correction=                           0.003581 (Hartree/Particle)
 Thermal correction to Energy=                    0.007125
 Thermal correction to Enthalpy=                  0.008069
 Thermal correction to Gibbs Free Energy=        -0.023074
 Sum of electronic and zero-point Energies=           -995.411635
 Sum of electronic and thermal Energies=              -995.408092
 Sum of electronic and thermal Enthalpies=            -995.407147
 Sum of electronic and thermal Free Energies=         -995.438290
 
                     E (Thermal)             CV                S
                      KCal/Mol        Cal/Mol-Kelvin    Cal/Mol-Kelvin
 Total                    4.471              9.546             65.545
 Electronic               0.000              0.000              0.000
 Translational            0.889              2.981             39.266
 Rotational               0.889              2.981             24.033
 Vibrational              2.693              3.585              2.246
 Vibration     1          0.686              1.694              1.478
                       Q            Log10(Q)             Ln(Q)
 Total Bot       0.410331D+11         10.613134         24.437644
 Total V=0       0.182124D+13         12.260367         28.230537
 Vib (Bot)       0.328513D-01         -1.483447         -3.415763
 Vib (Bot)    1  0.661282D+00         -0.179613         -0.413574
 Vib (V=0)       0.145809D+01          0.163786          0.377130
 Vib (V=0)    1  0.132903D+01          0.123536          0.284451
 Electronic      0.100000D+01          0.000000          0.000000
 Translational   0.313107D+08          7.495692         17.259469
 Rotational      0.398923D+05          4.600889         10.593938
 
                                                        ./00_00fine-ClOCl.g09
                                                             IR Spectrum
 
                                                                                                                                     
     66                                                                    2                                                         
     44                                                                    8                                                         
     30                                                                    9                                                         
 
     XX                                                                    X                                                         
      X                                                                                                                              
      X                                                                                                                              
      X                                                                                                                              
      X                                                                                                                              
      X                                                                                                                              
      X                                                                                                                              
      X                                                                                                                              
      X                                                                                                                              
      X                                                                                                                              
      X                                                                                                                              
      X                                                                                                                              
      X                                                                                                                              
      X                                                                                                                              
      X                                                                                                                              
      X                                                                                                                              
      X                                                                                                                              
      X                                                                                                                              
      X                                                                                                                              
      X                                                                                                                              
 
 -------------------------------------------------------------------
 Center     Atomic                   Forces (Hartrees/Bohr)
 Number     Number              X              Y              Z
 -------------------------------------------------------------------
      1       17           0.000005112   -0.000003725   -0.000000065
      2        8           0.000000004    0.000007453    0.000000043
      3       17          -0.000005116   -0.000003728    0.000000022
 -------------------------------------------------------------------
 Cartesian Forces:  Max     0.000007453 RMS     0.000003882
 Force constants in Cartesian coordinates: 
                1             2             3             4             5 
      1  0.142295D+00
      2 -0.672105D-01  0.635493D-01
      3 -0.274695D-04  0.159204D-04 -0.926717D-04
      4 -0.933104D-01  0.614132D-01  0.199519D-04  0.186621D+00
      5  0.730078D-01 -0.868063D-01 -0.190659D-04  0.000000D+00  0.173613D+00
      6  0.211116D-04 -0.174253D-04  0.963262D-04 -0.272591D-04  0.173880D-04
      7 -0.489849D-01  0.579728D-02  0.751756D-05 -0.933104D-01 -0.730078D-01
      8 -0.579728D-02  0.232570D-01  0.314547D-05 -0.614132D-01 -0.868063D-01
      9  0.635790D-05  0.150488D-05 -0.365447D-05  0.730718D-05  0.167790D-05
                6             7             8             9 
      6 -0.192659D-03
      7  0.614753D-05  0.142295D+00
      8  0.000000D+00  0.672105D-01  0.635493D-01
      9  0.963326D-04 -0.136651D-04 -0.318278D-05 -0.926781D-04
 FormGI is forming the generalized inverse of G from B-inverse, IUseBI=4.
 Force constants in internal coordinates: 
                1             2             3 
      1  0.180207D+00
      2  0.465916D-01  0.180207D+00
      3  0.309499D-01  0.309499D-01  0.274585D+00
 Leave Link  716 at Mon Oct 19 21:11:13 2015, MaxMem=   524288000 cpu:         0.3
 (Enter /opt/g09/l103.exe)

 GradGradGradGradGradGradGradGradGradGradGradGradGradGradGradGradGradGrad
 Berny optimization.
 Red2BG is reusing G-inverse.
 Internal  Forces:  Max     0.000006323 RMS     0.000005193
 Search for a local minimum.
 Step number   1 out of a maximum of    2
 All quantities printed in internal units (Hartrees-Bohrs-Radians)
 Second derivative matrix not updated -- analytic derivatives used.
 The second derivative matrix:
                          R1        R2        A1
           R1           0.18021
           R2           0.04659   0.18021
           A1           0.03095   0.03095   0.27458
 ITU=  0
     Eigenvalues ---    0.13362   0.20082   0.30056
 Angle between quadratic step and forces=   7.50 degrees.
 Linear search not attempted -- first point.
 Iteration  1 RMS(Cart)=  0.00001888 RMS(Int)=  0.00000000
 Iteration  2 RMS(Cart)=  0.00000000 RMS(Int)=  0.00000000
 ITry= 1 IFail=0 DXMaxC= 2.01D-05 DCOld= 1.00D+10 DXMaxT= 2.56D+00 DXLimC= 3.00D+00 Rises=F
 Variable       Old X    -DE/DX   Delta X   Delta X   Delta X     New X
                                 (Linear)    (Quad)   (Total)
    R1        3.27218   0.00001   0.00000   0.00003   0.00003   3.27221
    R2        3.27218   0.00001   0.00000   0.00003   0.00003   3.27221
    A1        1.97953   0.00000   0.00000  -0.00001  -0.00001   1.97952
         Item               Value     Threshold  Converged?
 Maximum Force            0.000006     0.000015     YES
 RMS     Force            0.000005     0.000010     YES
 Maximum Displacement     0.000020     0.000060     YES
 RMS     Displacement     0.000019     0.000040     YES
 Predicted change in Energy=-1.901523D-10
 Optimization completed.
    -- Stationary point found.
                           ----------------------------
                           !   Optimized Parameters   !
                           ! (Angstroms and Degrees)  !
 --------------------------                            --------------------------
 ! Name  Definition              Value          Derivative Info.                !
 --------------------------------------------------------------------------------
 ! R1    R(1,2)                  1.7316         -DE/DX =    0.0                 !
 ! R2    R(2,3)                  1.7316         -DE/DX =    0.0                 !
 ! A1    A(1,2,3)              113.4188         -DE/DX =    0.0                 !
 --------------------------------------------------------------------------------
 GradGradGradGradGradGradGradGradGradGradGradGradGradGradGradGradGradGrad

 Leave Link  103 at Mon Oct 19 21:11:13 2015, MaxMem=   524288000 cpu:         0.0
 (Enter /opt/g09/l9999.exe)
 1\1\GINC-CONSTABLE\Freq\RB971\6-311+G(d,p)\Cl2O1\PB556\19-Oct-2015\0\\
 #P Geom=AllCheck Guess=TCheck SCRF=Check GenChk RB971/6-311+G(d,p) Fre
 q\\./00_00fine-ClOCl.g09\\0,1\Cl,1.44741,-0.18103,-0.00022\O,0.,0.7694
 ,0.00008\Cl,-1.44741,-0.18103,0.00019\\Version=ES64L-G09RevD.01\HF=-99
 5.4152162\RMSD=6.312e-10\RMSF=3.882e-06\ZeroPoint=0.0035812\Thermal=0.
 0071247\Dipole=0.,-0.3168788,-0.0000317\DipoleDeriv=-0.2758866,-0.0100
 218,0.0000505,0.2391194,0.0454755,-0.0000382,0.0000754,-0.0000029,0.08
 82564,0.5517731,0.,-0.000103,0.,-0.0909509,0.0000086,-0.000103,0.00000
 86,-0.1765128,-0.2758865,0.0100219,0.0000525,-0.2391195,0.0454755,0.00
 00296,0.0000276,-0.0000057,0.0882564\Polar=49.5265206,-0.0000001,22.59
 00026,-0.0043718,0.0003926,18.6576557\PG=C01 [X(Cl2O1)]\NImag=0\\0.142
 29522,-0.06721050,0.06354931,-0.00002747,0.00001592,-0.00009267,-0.093
 31037,0.06141322,0.00001995,0.18662075,0.07300778,-0.08680628,-0.00001
 907,0.00000001,0.17361256,0.00002111,-0.00001743,0.00009633,-0.0000272
 6,0.00001739,-0.00019266,-0.04898485,0.00579728,0.00000752,-0.09331038
 ,-0.07300779,0.00000615,0.14229524,-0.00579728,0.02325697,0.00000315,-
 0.06141323,-0.08680628,0.00000004,0.06721051,0.06354932,0.00000636,0.0
 0000150,-0.00000365,0.00000731,0.00000168,0.00009633,-0.00001367,-0.00
 000318,-0.00009268\\-0.00000511,0.00000373,0.00000007,0.,-0.00000745,-
 0.00000004,0.00000512,0.00000373,-0.00000002\\\@


 A SUCCESSFUL PURSUIT OF SCIENCE MAKES A MAN THE
 BENEFACTOR OF ALL MANKIND OF EVERY AGE.
   --  JOSEPH PRIESTLEY, "EXPERIMENTS AND
 OBSERVATIONS ON DIFFERENT KINDS OF AIR", 1774
 Job cpu time:       0 days  0 hours  1 minutes 20.6 seconds.
 File lengths (MBytes):  RWF=      7 Int=      0 D2E=      0 Chk=      2 Scr=      1
 Normal termination of Gaussian 09 at Mon Oct 19 21:11:13 2015.
