 Entering Gaussian System, Link 0=g09
 Input=00_00freq-no-symm-00_00fine-ClOO-west.gau
 Output=00_00freq-no-symm-00_00fine-ClOO-west.log
 Initial command:
 /opt/g09/l1.exe "/scratch/pb556/g09_run/ti_runs//Gau-5512.inp" -scrdir="/scratch/pb556/g09_run/ti_runs//"
 Entering Link 1 = /opt/g09/l1.exe PID=      5513.
  
 Copyright (c) 1988,1990,1992,1993,1995,1998,2003,2009,2013,
            Gaussian, Inc.  All Rights Reserved.
  
 This is part of the Gaussian(R) 09 program.  It is based on
 the Gaussian(R) 03 system (copyright 2003, Gaussian, Inc.),
 the Gaussian(R) 98 system (copyright 1998, Gaussian, Inc.),
 the Gaussian(R) 94 system (copyright 1995, Gaussian, Inc.),
 the Gaussian 92(TM) system (copyright 1992, Gaussian, Inc.),
 the Gaussian 90(TM) system (copyright 1990, Gaussian, Inc.),
 the Gaussian 88(TM) system (copyright 1988, Gaussian, Inc.),
 the Gaussian 86(TM) system (copyright 1986, Carnegie Mellon
 University), and the Gaussian 82(TM) system (copyright 1983,
 Carnegie Mellon University). Gaussian is a federally registered
 trademark of Gaussian, Inc.
  
 This software contains proprietary and confidential information,
 including trade secrets, belonging to Gaussian, Inc.
  
 This software is provided under written license and may be
 used, copied, transmitted, or stored only in accord with that
 written license.
  
 The following legend is applicable only to US Government
 contracts under FAR:
  
                    RESTRICTED RIGHTS LEGEND
  
 Use, reproduction and disclosure by the US Government is
 subject to restrictions as set forth in subparagraphs (a)
 and (c) of the Commercial Computer Software - Restricted
 Rights clause in FAR 52.227-19.
  
 Gaussian, Inc.
 340 Quinnipiac St., Bldg. 40, Wallingford CT 06492
  
  
 ---------------------------------------------------------------
 Warning -- This program may not be used in any manner that
 competes with the business of Gaussian, Inc. or will provide
 assistance to any competitor of Gaussian, Inc.  The licensee
 of this program is prohibited from giving any competitor of
 Gaussian, Inc. access to this program.  By using this program,
 the user acknowledges that Gaussian, Inc. is engaged in the
 business of creating and licensing software in the field of
 computational chemistry and represents and warrants to the
 licensee that it is not a competitor of Gaussian, Inc. and that
 it will not use this program in any manner prohibited above.
 ---------------------------------------------------------------
  

 Cite this work as:
 Gaussian 09, Revision D.01,
 M. J. Frisch, G. W. Trucks, H. B. Schlegel, G. E. Scuseria, 
 M. A. Robb, J. R. Cheeseman, G. Scalmani, V. Barone, B. Mennucci, 
 G. A. Petersson, H. Nakatsuji, M. Caricato, X. Li, H. P. Hratchian, 
 A. F. Izmaylov, J. Bloino, G. Zheng, J. L. Sonnenberg, M. Hada, 
 M. Ehara, K. Toyota, R. Fukuda, J. Hasegawa, M. Ishida, T. Nakajima, 
 Y. Honda, O. Kitao, H. Nakai, T. Vreven, J. A. Montgomery, Jr., 
 J. E. Peralta, F. Ogliaro, M. Bearpark, J. J. Heyd, E. Brothers, 
 K. N. Kudin, V. N. Staroverov, T. Keith, R. Kobayashi, J. Normand, 
 K. Raghavachari, A. Rendell, J. C. Burant, S. S. Iyengar, J. Tomasi, 
 M. Cossi, N. Rega, J. M. Millam, M. Klene, J. E. Knox, J. B. Cross, 
 V. Bakken, C. Adamo, J. Jaramillo, R. Gomperts, R. E. Stratmann, 
 O. Yazyev, A. J. Austin, R. Cammi, C. Pomelli, J. W. Ochterski, 
 R. L. Martin, K. Morokuma, V. G. Zakrzewski, G. A. Voth, 
 P. Salvador, J. J. Dannenberg, S. Dapprich, A. D. Daniels, 
 O. Farkas, J. B. Foresman, J. V. Ortiz, J. Cioslowski, 
 and D. J. Fox, Gaussian, Inc., Wallingford CT, 2013.
 
 ******************************************
 Gaussian 09:  ES64L-G09RevD.01 24-Apr-2013
                19-Oct-2015 
 ******************************************
 %NProcShared=8
 Will use up to    8 processors via shared memory.
 %Mem=500MW
 ----------------------------------------------------------------------
 #p uB971/6-311+G(d,p) Opt=(Tight, CalcAll, MaxCycles=512, MaxStep=256)
  Freq GFInput Population=None Integral(Grid=UltraFine) SCF=XQC Guess=M
 IX NoSymmetry
 ----------------------------------------------------------------------
 1/6=512,7=10,8=256,10=4,14=-1,18=20,19=15,26=4,38=1/1,3;
 2/9=110,12=2,15=1,17=6,18=5,40=1/2;
 3/5=4,6=6,7=111,11=2,16=1,24=10,25=1,30=1,71=2,74=-20,75=-5,116=2,140=1/1,2,3;
 4/13=-1/1;
 5/5=2,8=3,13=1,38=5/2,8;
 8/6=4,10=90,11=11/1;
 11/6=1,8=1,9=11,15=111,16=1,31=1/1,2,10;
 10/6=1,31=1/2;
 7/10=1,25=1,30=1/1,2,3,16;
 1/6=512,7=10,8=256,10=4,14=-1,18=20,19=15,26=4/3(3);
 2/9=110,15=1/2;
 7/8=1,9=1,25=1,30=1,44=-1/16;
 99//99;
 2/9=110,15=1/2;
 3/5=4,6=6,7=111,11=2,16=1,25=1,30=1,71=2,74=-20,75=-5,116=2,140=1/1,2,3;
 4/5=5,16=3,69=1/1;
 5/5=2,8=3,13=1,38=5/2,8;
 8/6=4,10=90,11=11/1;
 11/6=1,8=1,9=11,15=111,16=1,31=1/1,2,10;
 10/6=1,31=1/2;
 7/10=1,25=1,30=1/1,2,3,16;
 1/6=512,7=10,8=256,10=4,14=-1,18=20,19=15,26=4/3(-8);
 2/9=110,15=1/2;
 7/8=1,9=1,25=1,30=1,44=-1/16;
 99//99;
 Leave Link    1 at Mon Oct 19 21:13:16 2015, MaxMem=   524288000 cpu:         0.5
 (Enter /opt/g09/l101.exe)
 -------------------------
 ./00_00fine-ClOO-west.g09
 -------------------------
 Symbolic Z-matrix:
 Charge =  0 Multiplicity = 2
 O                     1.16147   1.37591   0. 
 Cl                   -0.54657  -1.16283   0. 
 O                     0.        1.09511   0. 
 
 Add virtual bond connecting atoms O3         and Cl2        Dist= 4.39D+00.
 NAtoms=      3 NQM=        3 NQMF=       0 NMMI=      0 NMMIF=      0
                NMic=       0 NMicF=      0.
                    Isotopes and Nuclear Properties:
 (Nuclear quadrupole moments (NQMom) in fm**2, nuclear magnetic moments (NMagM)
  in nuclear magnetons)

  Atom         1           2           3
 IAtWgt=          16          35          16
 AtmWgt=  15.9949146  34.9688527  15.9949146
 NucSpn=           0           3           0
 AtZEff=   0.0000000   0.0000000   0.0000000
 NQMom=    0.0000000  -8.1650000   0.0000000
 NMagM=    0.0000000   0.8218740   0.0000000
 AtZNuc=   8.0000000  17.0000000   8.0000000
 Leave Link  101 at Mon Oct 19 21:13:16 2015, MaxMem=   524288000 cpu:         1.3
 (Enter /opt/g09/l103.exe)

 GradGradGradGradGradGradGradGradGradGradGradGradGradGradGradGradGradGrad
 Berny optimization.
 Initialization pass.
                           ----------------------------
                           !    Initial Parameters    !
                           ! (Angstroms and Degrees)  !
 --------------------------                            --------------------------
 ! Name  Definition              Value          Derivative Info.                !
 --------------------------------------------------------------------------------
 ! R1    R(1,3)                  1.1949         calculate D2E/DX2 analytically  !
 ! R2    R(2,3)                  2.3232         calculate D2E/DX2 analytically  !
 ! A1    A(1,3,2)              117.1988         calculate D2E/DX2 analytically  !
 --------------------------------------------------------------------------------
 Trust Radius=2.56D+00 FncErr=1.00D-07 GrdErr=1.00D-06
 Number of steps in this run=    100 maximum allowed number of steps=    100.
 GradGradGradGradGradGradGradGradGradGradGradGradGradGradGradGradGradGrad

 Leave Link  103 at Mon Oct 19 21:13:16 2015, MaxMem=   524288000 cpu:         0.1
 (Enter /opt/g09/l202.exe)
                          Input orientation:                          
 ---------------------------------------------------------------------
 Center     Atomic      Atomic             Coordinates (Angstroms)
 Number     Number       Type             X           Y           Z
 ---------------------------------------------------------------------
      1          8           0        1.161470    1.375910    0.000000
      2         17           0       -0.546570   -1.162830    0.000000
      3          8           0        0.000000    1.095110    0.000000
 ---------------------------------------------------------------------
                    Distance matrix (angstroms):
                    1          2          3
     1  O    0.000000
     2  Cl   3.059837   0.000000
     3  O    1.194931   2.323151   0.000000
 Symmetry turned off by external request.
 Stoichiometry    ClO2(2)
 Framework group  CS[SG(ClO2)]
 Deg. of freedom     3
 Full point group                 CS      NOp   2
 Rotational constants (GHZ):     75.7431011      4.1399228      3.9253721
 Leave Link  202 at Mon Oct 19 21:13:16 2015, MaxMem=   524288000 cpu:         0.1
 (Enter /opt/g09/l301.exe)
 Standard basis: 6-311+G(d,p) (5D, 7F)
 Ernie: Thresh=  0.10000D-02 Tol=  0.10000D-05 Strict=F.
 AO basis set in the form of general basis input (Overlap normalization):
      1 0
 S   6 1.00       0.000000000000
      0.8588500000D+04  0.1895150083D-02
      0.1297230000D+04  0.1438590063D-01
      0.2992960000D+03  0.7073200310D-01
      0.8737710000D+02  0.2400010105D+00
      0.2567890000D+02  0.5947970261D+00
      0.3740040000D+01  0.2808020123D+00
 SP   3 1.00       0.000000000000
      0.4211750000D+02  0.1138890124D+00  0.3651139738D-01
      0.9628370000D+01  0.9208111006D+00  0.2371529830D+00
      0.2853320000D+01 -0.3274470358D-02  0.8197019412D+00
 SP   1 1.00       0.000000000000
      0.9056610000D+00  0.1000000000D+01  0.1000000000D+01
 SP   1 1.00       0.000000000000
      0.2556110000D+00  0.1000000000D+01  0.1000000000D+01
 SP   1 1.00       0.000000000000
      0.8450000000D-01  0.1000000000D+01  0.1000000000D+01
 D   1 1.00       0.000000000000
      0.1292000000D+01  0.1000000000D+01
 ****
      2 0
 S   6 1.00       0.000000000000
      0.1058190000D+06  0.7380002465D-03
      0.1587200000D+05  0.5718001910D-02
      0.3619650000D+04  0.2949500985D-01
      0.1030800000D+04  0.1172860392D+00
      0.3399080000D+03  0.3629491212D+00
      0.1245380000D+03  0.5841491951D+00
 S   3 1.00       0.000000000000
      0.1245380000D+03  0.1341769734D+00
      0.4951350000D+02  0.6242498762D+00
      0.2080560000D+02  0.2917559421D+00
 S   1 1.00       0.000000000000
      0.6583460000D+01  0.1000000000D+01
 S   1 1.00       0.000000000000
      0.2564680000D+01  0.1000000000D+01
 S   1 1.00       0.000000000000
      0.5597630000D+00  0.1000000000D+01
 S   1 1.00       0.000000000000
      0.1832730000D+00  0.1000000000D+01
 SP   1 1.00       0.000000000000
      0.4830000000D-01  0.1000000000D+01  0.1000000000D+01
 P   5 1.00       0.000000000000
      0.5897760000D+03  0.3665569355D-02
      0.1398490000D+03  0.2836791942D-01
      0.4514130000D+02  0.1247566028D+00
      0.1687330000D+02  0.3396546305D+00
      0.2771520000D+01  0.7475859630D+00
 P   2 1.00       0.000000000000
      0.6741100000D+01 -0.1572243813D+01
      0.2771520000D+01  0.9923888817D+00
 P   1 1.00       0.000000000000
      0.1023870000D+01  0.1000000000D+01
 P   1 1.00       0.000000000000
      0.3813680000D+00  0.1000000000D+01
 P   1 1.00       0.000000000000
      0.1094370000D+00  0.1000000000D+01
 D   1 1.00       0.000000000000
      0.7500000000D+00  0.1000000000D+01
 ****
      3 0
 S   6 1.00       0.000000000000
      0.8588500000D+04  0.1895150083D-02
      0.1297230000D+04  0.1438590063D-01
      0.2992960000D+03  0.7073200310D-01
      0.8737710000D+02  0.2400010105D+00
      0.2567890000D+02  0.5947970261D+00
      0.3740040000D+01  0.2808020123D+00
 SP   3 1.00       0.000000000000
      0.4211750000D+02  0.1138890124D+00  0.3651139738D-01
      0.9628370000D+01  0.9208111006D+00  0.2371529830D+00
      0.2853320000D+01 -0.3274470358D-02  0.8197019412D+00
 SP   1 1.00       0.000000000000
      0.9056610000D+00  0.1000000000D+01  0.1000000000D+01
 SP   1 1.00       0.000000000000
      0.2556110000D+00  0.1000000000D+01  0.1000000000D+01
 SP   1 1.00       0.000000000000
      0.8450000000D-01  0.1000000000D+01  0.1000000000D+01
 D   1 1.00       0.000000000000
      0.1292000000D+01  0.1000000000D+01
 ****

    74 basis functions,   125 primitive gaussians,    77 cartesian basis functions
    17 alpha electrons       16 beta electrons
       nuclear repulsion energy        82.8413926507 Hartrees.
 IExCor= 1614 DFT=T Ex+Corr=B971 ExCW=0 ScaHFX=  0.210000
 ScaDFX=  1.000000  1.000000  1.000000  1.000000 ScalE2=  1.000000  1.000000
 IRadAn=      5 IRanWt=     -1 IRanGd=            0 ICorTp=0 IEmpDi=  4
 NAtoms=    3 NActive=    3 NUniq=    3 SFac= 1.00D+00 NAtFMM=   60 NAOKFM=F Big=F
 Integral buffers will be    131072 words long.
 Raffenetti 2 integral format.
 Two-electron integral symmetry is turned off.
 Leave Link  301 at Mon Oct 19 21:13:16 2015, MaxMem=   524288000 cpu:         0.4
 (Enter /opt/g09/l302.exe)
 NPDir=0 NMtPBC=     1 NCelOv=     1 NCel=       1 NClECP=     1 NCelD=      1
         NCelK=      1 NCelE2=     1 NClLst=     1 CellRange=     0.0.
 One-electron integrals computed using PRISM.
 NBasis=    74 RedAO= T EigKep=  6.34D-04  NBF=    74
 NBsUse=    74 1.00D-06 EigRej= -1.00D+00 NBFU=    74
 Precomputing XC quadrature grid using
 IXCGrd= 4 IRadAn=           5 IRanWt=          -1 IRanGd=           0 AccXCQ= 0.00D+00.
 Generated NRdTot=       0 NPtTot=           0 NUsed=           0 NTot=          32
 NSgBfM=    76    76    76    76    76 MxSgAt=     3 MxSgA2=     3.
 Leave Link  302 at Mon Oct 19 21:13:16 2015, MaxMem=   524288000 cpu:         1.2
 (Enter /opt/g09/l303.exe)
 DipDrv:  MaxL=1.
 Leave Link  303 at Mon Oct 19 21:13:16 2015, MaxMem=   524288000 cpu:         0.2
 (Enter /opt/g09/l401.exe)
 ExpMin= 4.83D-02 ExpMax= 1.06D+05 ExpMxC= 3.62D+03 IAcc=3 IRadAn=         5 AccDes= 0.00D+00
 Harris functional with IExCor= 1614 and IRadAn=       5 diagonalized for initial guess.
 HarFok:  IExCor= 1614 AccDes= 0.00D+00 IRadAn=         5 IDoV= 1 UseB2=F ITyADJ=14
 ICtDFT=  3500011 ScaDFX=  1.000000  1.000000  1.000000  1.000000
 FoFCou: FMM=F IPFlag=           0 FMFlag=      100000 FMFlg1=           0
         NFxFlg=           0 DoJE=T BraDBF=F KetDBF=T FulRan=T
         wScrn=  0.000000 ICntrl=     500 IOpCl=  0 I1Cent=   200000004 NGrid=           0
         NMat0=    1 NMatS0=      1 NMatT0=    0 NMatD0=    1 NMtDS0=    0 NMtDT0=    0
 Symmetry not used in FoFCou.
 Harris En= -601.358788845570    
 JPrj=0 DoOrth=F DoCkMO=T.
 Mixing orbitals, IMix= 1 IMixAn=  0 NRI=1 NE=   17 Coef=  7.07106781D-01  7.07106781D-01
 Mixing orbitals, IMix= 1 IMixAn=  0 NRI=1 NE=   16 Coef= -7.07106781D-01  7.07106781D-01
 Initial guess <Sx>= 0.0000 <Sy>= 0.0000 <Sz>= 0.5000 <S**2>= 1.0000 S= 0.6180
 Leave Link  401 at Mon Oct 19 21:13:17 2015, MaxMem=   524288000 cpu:         1.6
 (Enter /opt/g09/l502.exe)
 UHF open shell SCF:
 Using DIIS extrapolation, IDIIS=  1040.
 Two-electron integral symmetry not used.
 Keep R1 and R2 ints in memory in canonical form, NReq=8628605.
 IVT=       24813 IEndB=       24813 NGot=   524288000 MDV=   516559788
 LenX=   516559788 LenY=   516553418
 Requested convergence on RMS density matrix=1.00D-08 within  64 cycles.
 Requested convergence on MAX density matrix=1.00D-06.
 Requested convergence on             energy=1.00D-06.
 No special actions if energy rises.
 FoFCou: FMM=F IPFlag=           0 FMFlag=           0 FMFlg1=           0
         NFxFlg=           0 DoJE=F BraDBF=F KetDBF=F FulRan=T
         wScrn=  0.000000 ICntrl=     600 IOpCl=  0 I1Cent=           0 NGrid=           0
         NMat0=    1 NMatS0=   2775 NMatT0=    0 NMatD0=    1 NMtDS0=    0 NMtDT0=    0
 Symmetry not used in FoFCou.

 Cycle   1  Pass 1  IDiag  1:
 E= -610.066330081636    
 DIIS: error= 1.52D-01 at cycle   1 NSaved=   1.
 NSaved= 1 IEnMin= 1 EnMin= -610.066330081636     IErMin= 1 ErrMin= 1.52D-01
 ErrMax= 1.52D-01  0.00D+00 EMaxC= 1.00D-01 BMatC= 5.44D+00 BMatP= 5.44D+00
 IDIUse=3 WtCom= 0.00D+00 WtEn= 1.00D+00
 Coeff-Com:  0.100D+01
 Coeff-En:   0.100D+01
 Coeff:      0.100D+01
 Gap=     0.085 Goal=   None    Shift=    0.000
 Gap=     0.046 Goal=   None    Shift=    0.000
 GapD=    0.046 DampG=0.250 DampE=0.250 DampFc=0.2500 IDamp=-1.
 Damping current iteration by 2.50D-01
 RMSDP=1.64D-02 MaxDP=2.25D-01              OVMax= 9.56D-01

 Cycle   2  Pass 1  IDiag  1:
 E= -610.112588554647     Delta-E=       -0.046258473011 Rises=F Damp=T
 DIIS: error= 1.10D-01 at cycle   2 NSaved=   2.
 NSaved= 2 IEnMin= 2 EnMin= -610.112588554647     IErMin= 2 ErrMin= 1.10D-01
 ErrMax= 1.10D-01  0.00D+00 EMaxC= 1.00D-01 BMatC= 2.49D+00 BMatP= 5.44D+00
 IDIUse=3 WtCom= 0.00D+00 WtEn= 1.00D+00
 Coeff-Com: -0.954D+00 0.195D+01
 Coeff-En:   0.348D+00 0.652D+00
 Coeff:      0.348D+00 0.652D+00
 Gap=     0.017 Goal=   None    Shift=    0.000
 Gap=     0.009 Goal=   None    Shift=    0.000
 RMSDP=9.60D-03 MaxDP=1.91D-01 DE=-4.63D-02 OVMax= 9.58D-01

 Cycle   3  Pass 1  IDiag  1:
 E= -610.152040389821     Delta-E=       -0.039451835173 Rises=F Damp=F
 DIIS: error= 4.84D-02 at cycle   3 NSaved=   3.
 NSaved= 3 IEnMin= 3 EnMin= -610.152040389821     IErMin= 3 ErrMin= 4.84D-02
 ErrMax= 4.84D-02  0.00D+00 EMaxC= 1.00D-01 BMatC= 8.69D-01 BMatP= 2.49D+00
 IDIUse=3 WtCom= 5.16D-01 WtEn= 4.84D-01
 Coeff-Com: -0.328D+00 0.735D+00 0.594D+00
 Coeff-En:   0.000D+00 0.456D+00 0.544D+00
 Coeff:     -0.169D+00 0.600D+00 0.570D+00
 Gap=     0.088 Goal=   None    Shift=    0.000
 Gap=    -0.010 Goal=   None    Shift=    0.000
 RMSDP=1.13D-02 MaxDP=2.58D-01 DE=-3.95D-02 OVMax= 7.10D-01

 Cycle   4  Pass 1  IDiag  1:
 E= -609.906654871599     Delta-E=        0.245385518222 Rises=F Damp=F
 DIIS: error= 1.18D-01 at cycle   4 NSaved=   4.
 NSaved= 4 IEnMin= 3 EnMin= -610.152040389821     IErMin= 3 ErrMin= 4.84D-02
 ErrMax= 1.18D-01  0.00D+00 EMaxC= 1.00D-01 BMatC= 1.65D+00 BMatP= 8.69D-01
 IDIUse=2 WtCom= 0.00D+00 WtEn= 1.00D+00
 Coeff-En:   0.000D+00 0.000D+00 0.609D+00 0.391D+00
 Coeff:      0.000D+00 0.000D+00 0.609D+00 0.391D+00
 Gap=     0.092 Goal=   None    Shift=    0.000
 Gap=     0.059 Goal=   None    Shift=    0.000
 RMSDP=8.14D-03 MaxDP=1.91D-01 DE= 2.45D-01 OVMax= 6.32D-01

 Cycle   5  Pass 1  IDiag  1:
 E= -610.360285879054     Delta-E=       -0.453631007456 Rises=F Damp=F
 DIIS: error= 2.01D-02 at cycle   5 NSaved=   5.
 NSaved= 5 IEnMin= 5 EnMin= -610.360285879054     IErMin= 5 ErrMin= 2.01D-02
 ErrMax= 2.01D-02  0.00D+00 EMaxC= 1.00D-01 BMatC= 1.75D-01 BMatP= 8.69D-01
 IDIUse=3 WtCom= 7.99D-01 WtEn= 2.01D-01
 Coeff-Com: -0.188D+00 0.260D+00 0.172D+00 0.134D+00 0.622D+00
 Coeff-En:   0.000D+00 0.000D+00 0.000D+00 0.160D+00 0.840D+00
 Coeff:     -0.150D+00 0.208D+00 0.138D+00 0.139D+00 0.666D+00
 Gap=     0.082 Goal=   None    Shift=    0.000
 Gap=     0.066 Goal=   None    Shift=    0.000
 RMSDP=3.21D-03 MaxDP=5.31D-02 DE=-4.54D-01 OVMax= 2.06D-01

 Cycle   6  Pass 1  IDiag  1:
 E= -610.411744697175     Delta-E=       -0.051458818121 Rises=F Damp=F
 DIIS: error= 6.21D-03 at cycle   6 NSaved=   6.
 NSaved= 6 IEnMin= 6 EnMin= -610.411744697175     IErMin= 6 ErrMin= 6.21D-03
 ErrMax= 6.21D-03  0.00D+00 EMaxC= 1.00D-01 BMatC= 7.09D-03 BMatP= 1.75D-01
 IDIUse=3 WtCom= 9.38D-01 WtEn= 6.21D-02
 Coeff-Com: -0.559D-02 0.558D-02 0.106D-01 0.221D-01 0.178D+00 0.789D+00
 Coeff-En:   0.000D+00 0.000D+00 0.000D+00 0.000D+00 0.000D+00 0.100D+01
 Coeff:     -0.525D-02 0.523D-02 0.998D-02 0.207D-01 0.167D+00 0.802D+00
 Gap=     0.084 Goal=   None    Shift=    0.000
 Gap=     0.095 Goal=   None    Shift=    0.000
 RMSDP=1.51D-03 MaxDP=2.71D-02 DE=-5.15D-02 OVMax= 8.85D-02

 Cycle   7  Pass 1  IDiag  1:
 E= -610.418037958566     Delta-E=       -0.006293261391 Rises=F Damp=F
 DIIS: error= 7.33D-03 at cycle   7 NSaved=   7.
 NSaved= 7 IEnMin= 7 EnMin= -610.418037958566     IErMin= 6 ErrMin= 6.21D-03
 ErrMax= 7.33D-03  0.00D+00 EMaxC= 1.00D-01 BMatC= 5.32D-03 BMatP= 7.09D-03
 IDIUse=3 WtCom= 9.38D-01 WtEn= 6.21D-02
 Coeff-Com: -0.197D-01 0.292D-01 0.138D-01-0.660D-02 0.106D+00 0.402D+00
 Coeff-Com:  0.475D+00
 Coeff-En:   0.000D+00 0.000D+00 0.000D+00 0.000D+00 0.000D+00 0.000D+00
 Coeff-En:   0.100D+01
 Coeff:     -0.185D-01 0.273D-01 0.130D-01-0.619D-02 0.998D-01 0.377D+00
 Coeff:      0.508D+00
 Gap=     0.085 Goal=   None    Shift=    0.000
 Gap=     0.101 Goal=   None    Shift=    0.000
 RMSDP=7.42D-04 MaxDP=1.46D-02 DE=-6.29D-03 OVMax= 4.83D-02

 Cycle   8  Pass 1  IDiag  1:
 E= -610.421117195180     Delta-E=       -0.003079236614 Rises=F Damp=F
 DIIS: error= 3.72D-03 at cycle   8 NSaved=   8.
 NSaved= 8 IEnMin= 8 EnMin= -610.421117195180     IErMin= 8 ErrMin= 3.72D-03
 ErrMax= 3.72D-03  0.00D+00 EMaxC= 1.00D-01 BMatC= 2.47D-03 BMatP= 5.32D-03
 IDIUse=3 WtCom= 9.63D-01 WtEn= 3.72D-02
 Coeff-Com: -0.279D-01 0.401D-01 0.346D-01-0.154D-02 0.577D-01-0.316D+00
 Coeff-Com:  0.392D+00 0.820D+00
 Coeff-En:   0.000D+00 0.000D+00 0.000D+00 0.000D+00 0.000D+00 0.000D+00
 Coeff-En:   0.000D+00 0.100D+01
 Coeff:     -0.269D-01 0.386D-01 0.333D-01-0.149D-02 0.555D-01-0.304D+00
 Coeff:      0.378D+00 0.827D+00
 Gap=     0.088 Goal=   None    Shift=    0.000
 Gap=     0.114 Goal=   None    Shift=    0.000
 RMSDP=1.26D-03 MaxDP=2.65D-02 DE=-3.08D-03 OVMax= 7.34D-02

 Cycle   9  Pass 1  IDiag  1:
 E= -610.425734054946     Delta-E=       -0.004616859766 Rises=F Damp=F
 DIIS: error= 2.50D-03 at cycle   9 NSaved=   9.
 NSaved= 9 IEnMin= 9 EnMin= -610.425734054946     IErMin= 9 ErrMin= 2.50D-03
 ErrMax= 2.50D-03  0.00D+00 EMaxC= 1.00D-01 BMatC= 9.04D-04 BMatP= 2.47D-03
 IDIUse=3 WtCom= 9.75D-01 WtEn= 2.50D-02
 Coeff-Com: -0.195D-01 0.279D-01 0.166D-01 0.810D-02 0.398D-01-0.124D+00
 Coeff-Com:  0.735D-01 0.258D+00 0.719D+00
 Coeff-En:   0.000D+00 0.000D+00 0.000D+00 0.000D+00 0.000D+00 0.000D+00
 Coeff-En:   0.000D+00 0.000D+00 0.100D+01
 Coeff:     -0.190D-01 0.272D-01 0.162D-01 0.790D-02 0.388D-01-0.121D+00
 Coeff:      0.717D-01 0.252D+00 0.726D+00
 Gap=     0.090 Goal=   None    Shift=    0.000
 Gap=     0.118 Goal=   None    Shift=    0.000
 RMSDP=8.27D-04 MaxDP=2.15D-02 DE=-4.62D-03 OVMax= 6.74D-02

 Cycle  10  Pass 1  IDiag  1:
 E= -610.428570273975     Delta-E=       -0.002836219030 Rises=F Damp=F
 DIIS: error= 2.77D-03 at cycle  10 NSaved=  10.
 NSaved=10 IEnMin=10 EnMin= -610.428570273975     IErMin= 9 ErrMin= 2.50D-03
 ErrMax= 2.77D-03  0.00D+00 EMaxC= 1.00D-01 BMatC= 9.27D-04 BMatP= 9.04D-04
 IDIUse=3 WtCom= 9.75D-01 WtEn= 2.50D-02
 Coeff-Com: -0.161D-01 0.230D-01 0.172D-01 0.732D-02 0.650D-01 0.360D-01
 Coeff-Com:  0.140D+00-0.152D+00-0.209D+00 0.109D+01
 Coeff-En:   0.000D+00 0.000D+00 0.000D+00 0.000D+00 0.000D+00 0.000D+00
 Coeff-En:   0.000D+00 0.000D+00 0.000D+00 0.100D+01
 Coeff:     -0.157D-01 0.225D-01 0.168D-01 0.714D-02 0.633D-01 0.351D-01
 Coeff:      0.137D+00-0.149D+00-0.204D+00 0.109D+01
 Gap=     0.090 Goal=   None    Shift=    0.000
 Gap=     0.124 Goal=   None    Shift=    0.000
 RMSDP=8.52D-04 MaxDP=2.31D-02 DE=-2.84D-03 OVMax= 7.06D-02

 Cycle  11  Pass 1  IDiag  1:
 E= -610.431254697287     Delta-E=       -0.002684423312 Rises=F Damp=F
 DIIS: error= 3.81D-03 at cycle  11 NSaved=  11.
 NSaved=11 IEnMin=11 EnMin= -610.431254697287     IErMin= 9 ErrMin= 2.50D-03
 ErrMax= 3.81D-03  0.00D+00 EMaxC= 1.00D-01 BMatC= 1.41D-03 BMatP= 9.04D-04
 IDIUse=3 WtCom= 9.75D-01 WtEn= 2.50D-02
 Coeff-Com: -0.173D-01 0.247D-01 0.207D-01 0.673D-02 0.715D-01 0.415D-02
 Coeff-Com:  0.121D+00-0.159D+00-0.392D-01 0.458D+00 0.508D+00
 Coeff-En:   0.000D+00 0.000D+00 0.000D+00 0.000D+00 0.000D+00 0.000D+00
 Coeff-En:   0.000D+00 0.000D+00 0.000D+00 0.000D+00 0.100D+01
 Coeff:     -0.169D-01 0.241D-01 0.201D-01 0.656D-02 0.697D-01 0.404D-02
 Coeff:      0.118D+00-0.155D+00-0.382D-01 0.447D+00 0.521D+00
 Gap=     0.092 Goal=   None    Shift=    0.000
 Gap=     0.129 Goal=   None    Shift=    0.000
 RMSDP=4.13D-04 MaxDP=9.59D-03 DE=-2.68D-03 OVMax= 2.96D-02

 Cycle  12  Pass 1  IDiag  1:
 E= -610.432610469792     Delta-E=       -0.001355772505 Rises=F Damp=F
 DIIS: error= 3.44D-03 at cycle  12 NSaved=  12.
 NSaved=12 IEnMin=12 EnMin= -610.432610469792     IErMin= 9 ErrMin= 2.50D-03
 ErrMax= 3.44D-03  0.00D+00 EMaxC= 1.00D-01 BMatC= 1.23D-03 BMatP= 9.04D-04
 IDIUse=3 WtCom= 9.75D-01 WtEn= 2.50D-02
 Coeff-Com:  0.506D-02-0.591D-02 0.425D-02 0.103D-01-0.171D-03-0.127D+00
 Coeff-Com:  0.497D-02 0.151D+00 0.139D+01-0.241D+01-0.764D+01 0.962D+01
 Coeff-En:   0.000D+00 0.000D+00 0.000D+00 0.000D+00 0.000D+00 0.000D+00
 Coeff-En:   0.000D+00 0.000D+00 0.000D+00 0.000D+00 0.000D+00 0.100D+01
 Coeff:      0.494D-02-0.576D-02 0.415D-02 0.100D-01-0.167D-03-0.124D+00
 Coeff:      0.485D-02 0.147D+00 0.136D+01-0.235D+01-0.745D+01 0.940D+01
 Gap=     0.109 Goal=   None    Shift=    0.000
 Gap=     0.179 Goal=   None    Shift=    0.000
 RMSDP=2.91D-03 MaxDP=5.84D-02 DE=-1.36D-03 OVMax= 2.16D-01

 Cycle  13  Pass 1  IDiag  1:
 E= -610.436708958063     Delta-E=       -0.004098488271 Rises=F Damp=F
 DIIS: error= 1.87D-03 at cycle  13 NSaved=  13.
 NSaved=13 IEnMin=13 EnMin= -610.436708958063     IErMin=13 ErrMin= 1.87D-03
 ErrMax= 1.87D-03  0.00D+00 EMaxC= 1.00D-01 BMatC= 4.24D-04 BMatP= 9.04D-04
 IDIUse=3 WtCom= 9.81D-01 WtEn= 1.87D-02
 Coeff-Com:  0.538D-02-0.743D-02-0.533D-03 0.481D-02 0.282D-02-0.796D-02
 Coeff-Com: -0.159D-02-0.244D+00 0.644D-01 0.684D+00-0.106D+01 0.851D+00
 Coeff-Com:  0.705D+00
 Coeff-En:   0.000D+00 0.000D+00 0.000D+00 0.000D+00 0.000D+00 0.000D+00
 Coeff-En:   0.000D+00 0.000D+00 0.000D+00 0.000D+00 0.000D+00 0.000D+00
 Coeff-En:   0.100D+01
 Coeff:      0.528D-02-0.729D-02-0.523D-03 0.472D-02 0.277D-02-0.782D-02
 Coeff:     -0.156D-02-0.239D+00 0.632D-01 0.671D+00-0.104D+01 0.835D+00
 Coeff:      0.711D+00
 Gap=     0.109 Goal=   None    Shift=    0.000
 Gap=     0.175 Goal=   None    Shift=    0.000
 RMSDP=6.75D-04 MaxDP=1.31D-02 DE=-4.10D-03 OVMax= 5.90D-02

 Cycle  14  Pass 1  IDiag  1:
 E= -610.437201888568     Delta-E=       -0.000492930505 Rises=F Damp=F
 DIIS: error= 2.17D-04 at cycle  14 NSaved=  14.
 NSaved=14 IEnMin=14 EnMin= -610.437201888568     IErMin=14 ErrMin= 2.17D-04
 ErrMax= 2.17D-04  0.00D+00 EMaxC= 1.00D-01 BMatC= 1.13D-05 BMatP= 4.24D-04
 IDIUse=3 WtCom= 9.98D-01 WtEn= 2.17D-03
 Coeff-Com:  0.567D-04 0.181D-04-0.128D-03-0.177D-03-0.650D-03-0.673D-03
 Coeff-Com:  0.197D-01 0.334D-01 0.293D-01-0.659D-01-0.583D-01 0.303D-01
 Coeff-Com:  0.119D-02 0.101D+01
 Coeff-En:   0.000D+00 0.000D+00 0.000D+00 0.000D+00 0.000D+00 0.000D+00
 Coeff-En:   0.000D+00 0.000D+00 0.000D+00 0.000D+00 0.000D+00 0.000D+00
 Coeff-En:   0.000D+00 0.100D+01
 Coeff:      0.566D-04 0.181D-04-0.127D-03-0.177D-03-0.649D-03-0.672D-03
 Coeff:      0.196D-01 0.334D-01 0.292D-01-0.657D-01-0.582D-01 0.302D-01
 Coeff:      0.118D-02 0.101D+01
 Gap=     0.108 Goal=   None    Shift=    0.000
 Gap=     0.171 Goal=   None    Shift=    0.000
 RMSDP=9.19D-05 MaxDP=2.79D-03 DE=-4.93D-04 OVMax= 7.91D-03

 Cycle  15  Pass 1  IDiag  1:
 E= -610.437222619345     Delta-E=       -0.000020730777 Rises=F Damp=F
 DIIS: error= 1.62D-04 at cycle  15 NSaved=  15.
 NSaved=15 IEnMin=15 EnMin= -610.437222619345     IErMin=15 ErrMin= 1.62D-04
 ErrMax= 1.62D-04  0.00D+00 EMaxC= 1.00D-01 BMatC= 6.87D-06 BMatP= 1.13D-05
 IDIUse=3 WtCom= 9.98D-01 WtEn= 1.62D-03
 Coeff-Com: -0.132D-03 0.162D-03 0.437D-03-0.125D-03 0.140D-02 0.125D-01
 Coeff-Com: -0.147D-01-0.232D-01-0.761D-01 0.959D-02 0.344D+00-0.348D+00
 Coeff-Com:  0.261D-02-0.363D+00 0.145D+01
 Coeff-En:   0.000D+00 0.000D+00 0.000D+00 0.000D+00 0.000D+00 0.000D+00
 Coeff-En:   0.000D+00 0.000D+00 0.000D+00 0.000D+00 0.000D+00 0.000D+00
 Coeff-En:   0.000D+00 0.000D+00 0.100D+01
 Coeff:     -0.132D-03 0.162D-03 0.436D-03-0.125D-03 0.140D-02 0.124D-01
 Coeff:     -0.147D-01-0.231D-01-0.759D-01 0.958D-02 0.343D+00-0.347D+00
 Coeff:      0.260D-02-0.362D+00 0.145D+01
 Gap=     0.111 Goal=   None    Shift=    0.000
 Gap=     0.175 Goal=   None    Shift=    0.000
 RMSDP=2.45D-04 MaxDP=4.66D-03 DE=-2.07D-05 OVMax= 1.67D-02

 Cycle  16  Pass 1  IDiag  1:
 E= -610.437243275851     Delta-E=       -0.000020656507 Rises=F Damp=F
 DIIS: error= 2.06D-04 at cycle  16 NSaved=  16.
 NSaved=16 IEnMin=16 EnMin= -610.437243275851     IErMin=15 ErrMin= 1.62D-04
 ErrMax= 2.06D-04  0.00D+00 EMaxC= 1.00D-01 BMatC= 5.97D-06 BMatP= 6.87D-06
 IDIUse=3 WtCom= 9.98D-01 WtEn= 1.62D-03
 Coeff-Com: -0.565D-04 0.678D-04-0.159D-03 0.455D-04-0.807D-03-0.921D-02
 Coeff-Com: -0.133D-01-0.171D-02 0.640D-01-0.428D-01-0.103D+00 0.196D+00
 Coeff-Com: -0.105D+00-0.199D+00-0.274D+00 0.149D+01
 Coeff-En:   0.000D+00 0.000D+00 0.000D+00 0.000D+00 0.000D+00 0.000D+00
 Coeff-En:   0.000D+00 0.000D+00 0.000D+00 0.000D+00 0.000D+00 0.000D+00
 Coeff-En:   0.000D+00 0.000D+00 0.000D+00 0.100D+01
 Coeff:     -0.564D-04 0.677D-04-0.158D-03 0.454D-04-0.806D-03-0.920D-02
 Coeff:     -0.132D-01-0.171D-02 0.639D-01-0.427D-01-0.103D+00 0.196D+00
 Coeff:     -0.105D+00-0.198D+00-0.274D+00 0.149D+01
 Gap=     0.110 Goal=   None    Shift=    0.000
 Gap=     0.172 Goal=   None    Shift=    0.000
 RMSDP=1.46D-04 MaxDP=2.83D-03 DE=-2.07D-05 OVMax= 9.95D-03

 Cycle  17  Pass 1  IDiag  1:
 E= -610.437262507742     Delta-E=       -0.000019231891 Rises=F Damp=F
 DIIS: error= 6.90D-05 at cycle  17 NSaved=  17.
 NSaved=17 IEnMin=17 EnMin= -610.437262507742     IErMin=17 ErrMin= 6.90D-05
 ErrMax= 6.90D-05  0.00D+00 EMaxC= 1.00D-01 BMatC= 1.13D-06 BMatP= 5.97D-06
 IDIUse=1 WtCom= 1.00D+00 WtEn= 0.00D+00
 Coeff-Com: -0.140D-03 0.187D-03-0.431D-04-0.902D-04-0.359D-03-0.662D-02
 Coeff-Com:  0.696D-02 0.112D-01 0.240D-01-0.360D-01-0.769D-01 0.113D+00
 Coeff-Com:  0.184D-03-0.981D-01-0.262D+00 0.228D+00 0.110D+01
 Coeff:     -0.140D-03 0.187D-03-0.431D-04-0.902D-04-0.359D-03-0.662D-02
 Coeff:      0.696D-02 0.112D-01 0.240D-01-0.360D-01-0.769D-01 0.113D+00
 Coeff:      0.184D-03-0.981D-01-0.262D+00 0.228D+00 0.110D+01
 Gap=     0.109 Goal=   None    Shift=    0.000
 Gap=     0.172 Goal=   None    Shift=    0.000
 RMSDP=5.85D-05 MaxDP=1.92D-03 DE=-1.92D-05 OVMax= 5.71D-03

 Cycle  18  Pass 1  IDiag  1:
 E= -610.437265220439     Delta-E=       -0.000002712697 Rises=F Damp=F
 DIIS: error= 4.77D-05 at cycle  18 NSaved=  18.
 NSaved=18 IEnMin=18 EnMin= -610.437265220439     IErMin=18 ErrMin= 4.77D-05
 ErrMax= 4.77D-05  0.00D+00 EMaxC= 1.00D-01 BMatC= 3.50D-07 BMatP= 1.13D-06
 IDIUse=1 WtCom= 1.00D+00 WtEn= 0.00D+00
 Coeff-Com:  0.210D-05 0.835D-05 0.116D-03-0.458D-05 0.148D-03 0.779D-03
 Coeff-Com:  0.358D-02 0.404D-02-0.106D-01 0.699D-02 0.172D-01-0.483D-01
 Coeff-Com:  0.366D-01 0.645D-01-0.519D-01-0.260D+00-0.118D+00 0.135D+01
 Coeff:      0.210D-05 0.835D-05 0.116D-03-0.458D-05 0.148D-03 0.779D-03
 Coeff:      0.358D-02 0.404D-02-0.106D-01 0.699D-02 0.172D-01-0.483D-01
 Coeff:      0.366D-01 0.645D-01-0.519D-01-0.260D+00-0.118D+00 0.135D+01
 Gap=     0.110 Goal=   None    Shift=    0.000
 Gap=     0.172 Goal=   None    Shift=    0.000
 RMSDP=5.03D-05 MaxDP=1.40D-03 DE=-2.71D-06 OVMax= 4.49D-03

 Cycle  19  Pass 1  IDiag  1:
 E= -610.437266658690     Delta-E=       -0.000001438251 Rises=F Damp=F
 DIIS: error= 2.27D-05 at cycle  19 NSaved=  19.
 NSaved=19 IEnMin=19 EnMin= -610.437266658690     IErMin=19 ErrMin= 2.27D-05
 ErrMax= 2.27D-05  0.00D+00 EMaxC= 1.00D-01 BMatC= 7.69D-08 BMatP= 3.50D-07
 IDIUse=1 WtCom= 1.00D+00 WtEn= 0.00D+00
 Coeff-Com:  0.629D-04-0.834D-04-0.430D-04 0.445D-04-0.586D-04 0.698D-03
 Coeff-Com: -0.206D-02 0.908D-03 0.608D-02-0.315D-02-0.253D-01 0.235D-01
 Coeff-Com: -0.858D-02 0.510D-01-0.480D-01-0.128D-03 0.144D-01-0.163D+00
 Coeff-Com:  0.115D+01
 Coeff:      0.629D-04-0.834D-04-0.430D-04 0.445D-04-0.586D-04 0.698D-03
 Coeff:     -0.206D-02 0.908D-03 0.608D-02-0.315D-02-0.253D-01 0.235D-01
 Coeff:     -0.858D-02 0.510D-01-0.480D-01-0.128D-03 0.144D-01-0.163D+00
 Coeff:      0.115D+01
 Gap=     0.110 Goal=   None    Shift=    0.000
 Gap=     0.173 Goal=   None    Shift=    0.000
 RMSDP=5.78D-06 MaxDP=1.46D-04 DE=-1.44D-06 OVMax= 5.18D-04

 Cycle  20  Pass 1  IDiag  1:
 E= -610.437266704812     Delta-E=       -0.000000046123 Rises=F Damp=F
 DIIS: error= 2.72D-06 at cycle  20 NSaved=  20.
 NSaved=20 IEnMin=20 EnMin= -610.437266704812     IErMin=20 ErrMin= 2.72D-06
 ErrMax= 2.72D-06  0.00D+00 EMaxC= 1.00D-01 BMatC= 1.85D-09 BMatP= 7.69D-08
 IDIUse=1 WtCom= 1.00D+00 WtEn= 0.00D+00
 Coeff-Com: -0.243D-05 0.200D-05-0.107D-04 0.482D-05 0.237D-04 0.168D-03
 Coeff-Com: -0.157D-03-0.873D-03 0.124D-03-0.113D-02-0.229D-02 0.629D-02
 Coeff-Com: -0.277D-02-0.225D-02 0.460D-02 0.615D-02 0.235D-01-0.114D+00
 Coeff-Com: -0.255D-01 0.111D+01
 Coeff:     -0.243D-05 0.200D-05-0.107D-04 0.482D-05 0.237D-04 0.168D-03
 Coeff:     -0.157D-03-0.873D-03 0.124D-03-0.113D-02-0.229D-02 0.629D-02
 Coeff:     -0.277D-02-0.225D-02 0.460D-02 0.615D-02 0.235D-01-0.114D+00
 Coeff:     -0.255D-01 0.111D+01
 Gap=     0.110 Goal=   None    Shift=    0.000
 Gap=     0.173 Goal=   None    Shift=    0.000
 RMSDP=1.45D-06 MaxDP=3.60D-05 DE=-4.61D-08 OVMax= 1.32D-04

 Cycle  21  Pass 1  IDiag  1:
 E= -610.437266707473     Delta-E=       -0.000000002661 Rises=F Damp=F
 DIIS: error= 2.65D-06 at cycle  21 NSaved=  20.
 NSaved=20 IEnMin=20 EnMin= -610.437266707473     IErMin=20 ErrMin= 2.65D-06
 ErrMax= 2.65D-06  0.00D+00 EMaxC= 1.00D-01 BMatC= 1.11D-09 BMatP= 1.85D-09
 IDIUse=1 WtCom= 1.00D+00 WtEn= 0.00D+00
 Coeff-Com: -0.163D-05 0.238D-05 0.324D-05 0.305D-05-0.342D-05-0.635D-05
 Coeff-Com: -0.251D-03-0.227D-03 0.296D-05 0.247D-02-0.212D-02-0.540D-04
 Coeff-Com: -0.895D-04 0.445D-02-0.587D-02-0.158D-01 0.245D-01 0.959D-03
 Coeff-Com: -0.132D+00 0.112D+01
 Coeff:     -0.163D-05 0.238D-05 0.324D-05 0.305D-05-0.342D-05-0.635D-05
 Coeff:     -0.251D-03-0.227D-03 0.296D-05 0.247D-02-0.212D-02-0.540D-04
 Coeff:     -0.895D-04 0.445D-02-0.587D-02-0.158D-01 0.245D-01 0.959D-03
 Coeff:     -0.132D+00 0.112D+01
 Gap=     0.110 Goal=   None    Shift=    0.000
 Gap=     0.172 Goal=   None    Shift=    0.000
 RMSDP=1.28D-06 MaxDP=2.30D-05 DE=-2.66D-09 OVMax= 8.71D-05

 Cycle  22  Pass 1  IDiag  1:
 E= -610.437266709888     Delta-E=       -0.000000002414 Rises=F Damp=F
 DIIS: error= 4.60D-07 at cycle  22 NSaved=  20.
 NSaved=20 IEnMin=20 EnMin= -610.437266709888     IErMin=20 ErrMin= 4.60D-07
 ErrMax= 4.60D-07  0.00D+00 EMaxC= 1.00D-01 BMatC= 5.60D-11 BMatP= 1.11D-09
 IDIUse=1 WtCom= 1.00D+00 WtEn= 0.00D+00
 Coeff-Com:  0.644D-07 0.167D-05-0.165D-05-0.156D-04-0.157D-04 0.980D-04
 Coeff-Com:  0.912D-05 0.430D-04 0.606D-03-0.958D-03 0.113D-03 0.212D-03
 Coeff-Com:  0.126D-02-0.227D-02-0.608D-02 0.139D-01 0.129D-01-0.127D+00
 Coeff-Com:  0.105D+00 0.100D+01
 Coeff:      0.644D-07 0.167D-05-0.165D-05-0.156D-04-0.157D-04 0.980D-04
 Coeff:      0.912D-05 0.430D-04 0.606D-03-0.958D-03 0.113D-03 0.212D-03
 Coeff:      0.126D-02-0.227D-02-0.608D-02 0.139D-01 0.129D-01-0.127D+00
 Coeff:      0.105D+00 0.100D+01
 Gap=     0.110 Goal=   None    Shift=    0.000
 Gap=     0.172 Goal=   None    Shift=    0.000
 RMSDP=4.48D-07 MaxDP=8.23D-06 DE=-2.41D-09 OVMax= 3.10D-05

 Cycle  23  Pass 1  IDiag  1:
 E= -610.437266709967     Delta-E=       -0.000000000079 Rises=F Damp=F
 DIIS: error= 2.81D-07 at cycle  23 NSaved=  20.
 NSaved=20 IEnMin=20 EnMin= -610.437266709967     IErMin=20 ErrMin= 2.81D-07
 ErrMax= 2.81D-07  0.00D+00 EMaxC= 1.00D-01 BMatC= 1.02D-11 BMatP= 5.60D-11
 IDIUse=1 WtCom= 1.00D+00 WtEn= 0.00D+00
 Coeff-Com:  0.368D-08-0.622D-07-0.420D-05 0.610D-05 0.117D-04-0.152D-04
 Coeff-Com:  0.513D-04-0.138D-03 0.110D-03 0.433D-04-0.390D-03-0.181D-03
 Coeff-Com:  0.106D-02 0.147D-02-0.305D-02-0.678D-02 0.172D-01-0.376D-01
 Coeff-Com: -0.594D-01 0.109D+01
 Coeff:      0.368D-08-0.622D-07-0.420D-05 0.610D-05 0.117D-04-0.152D-04
 Coeff:      0.513D-04-0.138D-03 0.110D-03 0.433D-04-0.390D-03-0.181D-03
 Coeff:      0.106D-02 0.147D-02-0.305D-02-0.678D-02 0.172D-01-0.376D-01
 Coeff:     -0.594D-01 0.109D+01
 Gap=     0.110 Goal=   None    Shift=    0.000
 Gap=     0.172 Goal=   None    Shift=    0.000
 RMSDP=1.28D-07 MaxDP=2.41D-06 DE=-7.95D-11 OVMax= 9.25D-06

 Cycle  24  Pass 1  IDiag  1:
 E= -610.437266709991     Delta-E=       -0.000000000024 Rises=F Damp=F
 DIIS: error= 4.37D-08 at cycle  24 NSaved=  20.
 NSaved=20 IEnMin=20 EnMin= -610.437266709991     IErMin=20 ErrMin= 4.37D-08
 ErrMax= 4.37D-08  0.00D+00 EMaxC= 1.00D-01 BMatC= 2.99D-13 BMatP= 1.02D-11
 IDIUse=1 WtCom= 1.00D+00 WtEn= 0.00D+00
 Coeff-Com:  0.123D-06 0.909D-06 0.207D-05-0.170D-05-0.272D-05 0.599D-05
 Coeff-Com:  0.531D-06-0.749D-05 0.250D-05 0.525D-05-0.593D-04 0.120D-03
 Coeff-Com:  0.102D-03-0.317D-03 0.271D-04 0.982D-03-0.990D-03-0.194D-01
 Coeff-Com: -0.250D-01 0.104D+01
 Coeff:      0.123D-06 0.909D-06 0.207D-05-0.170D-05-0.272D-05 0.599D-05
 Coeff:      0.531D-06-0.749D-05 0.250D-05 0.525D-05-0.593D-04 0.120D-03
 Coeff:      0.102D-03-0.317D-03 0.271D-04 0.982D-03-0.990D-03-0.194D-01
 Coeff:     -0.250D-01 0.104D+01
 Gap=     0.110 Goal=   None    Shift=    0.000
 Gap=     0.172 Goal=   None    Shift=    0.000
 RMSDP=2.30D-08 MaxDP=4.65D-07 DE=-2.41D-11 OVMax= 1.76D-06

 Cycle  25  Pass 1  IDiag  1:
 E= -610.437266709991     Delta-E=        0.000000000001 Rises=F Damp=F
 DIIS: error= 8.41D-09 at cycle  25 NSaved=  20.
 NSaved=20 IEnMin=19 EnMin= -610.437266709991     IErMin=20 ErrMin= 8.41D-09
 ErrMax= 8.41D-09  0.00D+00 EMaxC= 1.00D-01 BMatC= 1.69D-14 BMatP= 2.99D-13
 IDIUse=1 WtCom= 1.00D+00 WtEn= 0.00D+00
 Coeff-Com:  0.321D-06-0.492D-06-0.925D-06 0.133D-05-0.176D-05 0.139D-04
 Coeff-Com: -0.153D-04-0.102D-05 0.424D-04-0.711D-05-0.821D-04-0.114D-03
 Coeff-Com:  0.309D-03 0.579D-03-0.195D-02 0.364D-02 0.679D-02-0.107D+00
 Coeff-Com:  0.956D-01 0.100D+01
 Coeff:      0.321D-06-0.492D-06-0.925D-06 0.133D-05-0.176D-05 0.139D-04
 Coeff:     -0.153D-04-0.102D-05 0.424D-04-0.711D-05-0.821D-04-0.114D-03
 Coeff:      0.309D-03 0.579D-03-0.195D-02 0.364D-02 0.679D-02-0.107D+00
 Coeff:      0.956D-01 0.100D+01
 Gap=     0.110 Goal=   None    Shift=    0.000
 Gap=     0.172 Goal=   None    Shift=    0.000
 RMSDP=4.83D-09 MaxDP=9.56D-08 DE= 6.82D-13 OVMax= 2.79D-07

 SCF Done:  E(UB971) =  -610.437266710     A.U. after   25 cycles
            NFock= 25  Conv=0.48D-08     -V/T= 2.0021
 <Sx>= 0.0000 <Sy>= 0.0000 <Sz>= 0.5000 <S**2>= 1.3888 S= 0.7801
 <L.S>= 0.000000000000E+00
 KE= 6.091799827300D+02 PE=-1.615146881828D+03 EE= 3.126882397369D+02
 Annihilation of the first spin contaminant:
 S**2 before annihilation     1.3888,   after     0.7641
 Leave Link  502 at Mon Oct 19 21:13:22 2015, MaxMem=   524288000 cpu:        35.7
 (Enter /opt/g09/l508.exe)
 QCSCF skips out because SCF is already converged.
 Leave Link  508 at Mon Oct 19 21:13:22 2015, MaxMem=   524288000 cpu:         0.0
 (Enter /opt/g09/l801.exe)
 DoSCS=F DFT=T ScalE2(SS,OS)=  1.000000  1.000000
 Range of M.O.s used for correlation:     1    74
 NBasis=    74 NAE=    17 NBE=    16 NFC=     0 NFV=     0
 NROrb=     74 NOA=    17 NOB=    16 NVA=    57 NVB=    58

 **** Warning!!: The largest alpha MO coefficient is  0.22579919D+02


 **** Warning!!: The largest beta MO coefficient is  0.22484980D+02

 Leave Link  801 at Mon Oct 19 21:13:22 2015, MaxMem=   524288000 cpu:         0.2
 (Enter /opt/g09/l1101.exe)
 Using compressed storage, NAtomX=     3.
 Will process      4 centers per pass.
 Leave Link 1101 at Mon Oct 19 21:13:22 2015, MaxMem=   524288000 cpu:         1.2
 (Enter /opt/g09/l1102.exe)
 Symmetrizing basis deriv contribution to polar:
 IMax=3 JMax=2 DiffMx= 0.00D+00
 Leave Link 1102 at Mon Oct 19 21:13:22 2015, MaxMem=   524288000 cpu:         0.2
 (Enter /opt/g09/l1110.exe)
 Forming Gx(P) for the SCF density, NAtomX=     3.
 Integral derivatives from FoFJK, PRISM(SPDF).
 Do as many integral derivatives as possible in FoFJK.
 G2DrvN: MDV=     524287872.
 G2DrvN: will do     4 centers at a time, making    1 passes.
 Calling FoFCou, ICntrl=  3107 FMM=F I1Cent=   0 AccDes= 0.00D+00.
 FoFJK:  IHMeth= 1 ICntrl=    3107 DoSepK=F KAlg= 0 I1Cent=   0 FoldK=F
 IRaf=         0 NMat=   1 IRICut=       1 DoRegI=T DoRafI=F ISym2E= 0.
 FoFCou: FMM=F IPFlag=           0 FMFlag=      100000 FMFlg1=           0
         NFxFlg=           0 DoJE=F BraDBF=F KetDBF=F FulRan=T
         wScrn=  0.000000 ICntrl=    3107 IOpCl=  1 I1Cent=           0 NGrid=           0
         NMat0=    1 NMatS0=      1 NMatT0=    0 NMatD0=    1 NMtDS0=    0 NMtDT0=    0
 Symmetry not used in FoFCou.
 End of G2Drv F.D. properties file   721 does not exist.
 End of G2Drv F.D. properties file   722 does not exist.
 End of G2Drv F.D. properties file   788 does not exist.
 Leave Link 1110 at Mon Oct 19 21:13:24 2015, MaxMem=   524288000 cpu:        14.9
 (Enter /opt/g09/l1002.exe)
 Minotr:  UHF open shell wavefunction.
          IDoAtm=111
          Direct CPHF calculation.
          Differentiating once with respect to electric field.
                with respect to dipole field.
          Differentiating once with respect to nuclear coordinates.
          Requested convergence is 1.0D-08 RMS, and 1.0D-07 maximum.
          Secondary convergence is 1.0D-12 RMS, and 1.0D-12 maximum.
          NewPWx=T KeepS1=F KeepF1=F KeepIn=T MapXYZ=F SortEE=F KeepMc=T.
          MDV=     524287818 using IRadAn=       1.
 Generate precomputed XC quadrature information.
 Keep R1 and R2 ints in memory in canonical form, NReq=8602270.
 FoFCou: FMM=F IPFlag=           0 FMFlag=           0 FMFlg1=           0
         NFxFlg=           0 DoJE=F BraDBF=F KetDBF=F FulRan=T
         wScrn=  0.000000 ICntrl=     600 IOpCl=  0 I1Cent=           0 NGrid=           0
         NMat0=    1 NMatS0=   2775 NMatT0=    0 NMatD0=    1 NMtDS0=    0 NMtDT0=    0
 Symmetry not used in FoFCou.
          Solving linear equations simultaneously, MaxMat=       0.
          There are    12 degrees of freedom in the 1st order CPHF.  IDoFFX=6 NUNeed=     3.
      9 vectors produced by pass  0 Test12= 1.58D-14 8.33D-09 XBig12= 8.42D+01 5.54D+00.
 AX will form     9 AO Fock derivatives at one time.
      9 vectors produced by pass  1 Test12= 1.58D-14 8.33D-09 XBig12= 4.86D+01 2.18D+00.
      9 vectors produced by pass  2 Test12= 1.58D-14 8.33D-09 XBig12= 5.02D+00 5.37D-01.
      9 vectors produced by pass  3 Test12= 1.58D-14 8.33D-09 XBig12= 2.37D-01 1.08D-01.
      9 vectors produced by pass  4 Test12= 1.58D-14 8.33D-09 XBig12= 7.90D-03 2.46D-02.
      9 vectors produced by pass  5 Test12= 1.58D-14 8.33D-09 XBig12= 1.20D-04 2.30D-03.
      9 vectors produced by pass  6 Test12= 1.58D-14 8.33D-09 XBig12= 6.79D-07 1.55D-04.
      7 vectors produced by pass  7 Test12= 1.58D-14 8.33D-09 XBig12= 4.07D-09 1.85D-05.
      4 vectors produced by pass  8 Test12= 1.58D-14 8.33D-09 XBig12= 2.04D-11 1.13D-06.
      2 vectors produced by pass  9 Test12= 1.58D-14 8.33D-09 XBig12= 5.06D-14 6.10D-08.
 InvSVY:  IOpt=1 It=  1 EMax= 6.66D-16
 Solved reduced A of dimension    76 with     9 vectors.
 FullF1:  Do perturbations    1 to     3.
 Isotropic polarizability for W=    0.000000       29.20 Bohr**3.
 End of Minotr F.D. properties file   721 does not exist.
 End of Minotr F.D. properties file   722 does not exist.
 End of Minotr F.D. properties file   788 does not exist.
 Leave Link 1002 at Mon Oct 19 21:13:28 2015, MaxMem=   524288000 cpu:        29.6
 (Enter /opt/g09/l701.exe)
 Compute integral second derivatives.
 ... and contract with generalized density number  0.
 Leave Link  701 at Mon Oct 19 21:13:28 2015, MaxMem=   524288000 cpu:         2.0
 (Enter /opt/g09/l702.exe)
 L702 exits ... SP integral derivatives will be done elsewhere.
 Leave Link  702 at Mon Oct 19 21:13:28 2015, MaxMem=   524288000 cpu:         0.2
 (Enter /opt/g09/l703.exe)
 Compute integral second derivatives, UseDBF=F ICtDFT=           0.
 Integral derivatives from FoFJK, PRISM(SPDF).
 Calling FoFJK, ICntrl=    100127 FMM=F ISym2X=0 I1Cent= 0 IOpClX= 1 NMat=1 NMatS=1 NMatT=0.
 FoFJK:  IHMeth= 1 ICntrl=  100127 DoSepK=F KAlg= 0 I1Cent=   0 FoldK=F
 IRaf=         0 NMat=   1 IRICut=       1 DoRegI=T DoRafI=F ISym2E= 0.
 FoFCou: FMM=F IPFlag=           0 FMFlag=      100000 FMFlg1=         800
         NFxFlg=           0 DoJE=F BraDBF=F KetDBF=F FulRan=T
         wScrn=  0.000000 ICntrl=  100127 IOpCl=  1 I1Cent=           0 NGrid=           0
         NMat0=    1 NMatS0=      1 NMatT0=    0 NMatD0=    1 NMtDS0=    0 NMtDT0=    0
 Symmetry not used in FoFCou.
 Leave Link  703 at Mon Oct 19 21:13:32 2015, MaxMem=   524288000 cpu:        34.8
 (Enter /opt/g09/l716.exe)
 Dipole        = 2.46175646D-01 5.45906305D-01 5.38688322D-09
 Polarizability= 2.75167905D+01 1.61043443D+01 4.59856979D+01
                 1.68528560D-08 4.60903859D-08 1.41062499D+01
 -------------------------------------------------------------------
 Center     Atomic                   Forces (Hartrees/Bohr)
 Number     Number              X              Y              Z
 -------------------------------------------------------------------
      1        8           0.000004287   -0.000000484   -0.000000001
      2       17          -0.000002530    0.000001304    0.000000000
      3        8          -0.000001758   -0.000000819    0.000000001
 -------------------------------------------------------------------
 Cartesian Forces:  Max     0.000004287 RMS     0.000001840
 Force constants in Cartesian coordinates: 
                1             2             3             4             5 
      1  0.753987D+00
      2  0.180118D+00  0.619131D-01
      3  0.000000D+00  0.000000D+00 -0.111619D-04
      4  0.203821D-03 -0.903843D-02  0.000000D+00  0.498257D-02
      5 -0.377686D-02  0.170889D-02  0.000000D+00  0.113682D-02  0.102858D-01
      6  0.000000D+00  0.000000D+00  0.170287D-05  0.000000D+00  0.000000D+00
      7 -0.754191D+00 -0.171080D+00  0.000000D+00 -0.518639D-02  0.264004D-02
      8 -0.176341D+00 -0.636220D-01  0.000000D+00  0.790161D-02 -0.119947D-01
      9  0.000000D+00  0.000000D+00  0.945901D-05  0.000000D+00  0.000000D+00
                6             7             8             9 
      6  0.993167D-05
      7  0.000000D+00  0.759377D+00
      8  0.000000D+00  0.168440D+00  0.756167D-01
      9 -0.116346D-04  0.000000D+00  0.000000D+00  0.217554D-05
 FormGI is forming the generalized inverse of G from B-inverse, IUseBI=4.
 Force constants in internal coordinates: 
                1             2             3 
      1  0.798056D+00
      2  0.362820D-02  0.105139D-01
      3  0.483401D-02 -0.890353D-03  0.910712D-01
 Leave Link  716 at Mon Oct 19 21:13:32 2015, MaxMem=   524288000 cpu:         0.3
 (Enter /opt/g09/l103.exe)

 GradGradGradGradGradGradGradGradGradGradGradGradGradGradGradGradGradGrad
 Berny optimization.
 Red2BG is reusing G-inverse.
 Internal  Forces:  Max     0.000003008 RMS     0.000001773
 Search for a local minimum.
 Step number   1 out of a maximum of  100
 All quantities printed in internal units (Hartrees-Bohrs-Radians)
 RMS Force = .17732D-05 SwitMx=.10000D-02 MixMth= 2
 Mixed Optimization -- En-DIIS/RFO-DIIS
 Second derivative matrix not updated -- analytic derivatives used.
 The second derivative matrix:
                          R1        R2        A1
           R1           0.79806
           R2           0.00363   0.01051
           A1           0.00483  -0.00089   0.09107
 ITU=  0
     Eigenvalues ---    0.01049   0.09105   0.79811
 RFO step:  Lambda= 0.00000000D+00 EMin= 1.04868162D-02
 Linear search not attempted -- first point.
 Iteration  1 RMS(Cart)=  0.00000638 RMS(Int)=  0.00000000
 Iteration  2 RMS(Cart)=  0.00000000 RMS(Int)=  0.00000000
 ITry= 1 IFail=0 DXMaxC= 8.96D-06 DCOld= 1.00D+10 DXMaxT= 2.56D+00 DXLimC= 3.00D+00 Rises=F
 Variable       Old X    -DE/DX   Delta X   Delta X   Delta X     New X
                                 (Linear)    (Quad)   (Total)
    R1        2.25809   0.00000   0.00000   0.00000   0.00000   2.25810
    R2        4.39012   0.00000   0.00000  -0.00001  -0.00001   4.39011
    A1        2.04550   0.00000   0.00000   0.00001   0.00001   2.04551
         Item               Value     Threshold  Converged?
 Maximum Force            0.000003     0.000015     YES
 RMS     Force            0.000002     0.000010     YES
 Maximum Displacement     0.000009     0.000060     YES
 RMS     Displacement     0.000006     0.000040     YES
 Predicted change in Energy=-8.524453D-12
 Optimization completed.
    -- Stationary point found.
                           ----------------------------
                           !   Optimized Parameters   !
                           ! (Angstroms and Degrees)  !
 --------------------------                            --------------------------
 ! Name  Definition              Value          Derivative Info.                !
 --------------------------------------------------------------------------------
 ! R1    R(1,3)                  1.1949         -DE/DX =    0.0                 !
 ! R2    R(2,3)                  2.3232         -DE/DX =    0.0                 !
 ! A1    A(1,3,2)              117.1988         -DE/DX =    0.0                 !
 --------------------------------------------------------------------------------
 Lowest energy point so far.  Saving SCF results.
 GradGradGradGradGradGradGradGradGradGradGradGradGradGradGradGradGradGrad

 Largest change from initial coordinates is atom    0       0.000 Angstoms.
 Leave Link  103 at Mon Oct 19 21:13:33 2015, MaxMem=   524288000 cpu:         0.0
 (Enter /opt/g09/l202.exe)
                          Input orientation:                          
 ---------------------------------------------------------------------
 Center     Atomic      Atomic             Coordinates (Angstroms)
 Number     Number       Type             X           Y           Z
 ---------------------------------------------------------------------
      1          8           0        1.161470    1.375910    0.000000
      2         17           0       -0.546570   -1.162830    0.000000
      3          8           0        0.000000    1.095110    0.000000
 ---------------------------------------------------------------------
                    Distance matrix (angstroms):
                    1          2          3
     1  O    0.000000
     2  Cl   3.059837   0.000000
     3  O    1.194931   2.323151   0.000000
 Symmetry turned off by external request.
 Stoichiometry    ClO2(2)
 Framework group  CS[SG(ClO2)]
 Deg. of freedom     3
 Full point group                 CS      NOp   2
 Rotational constants (GHZ):     75.7431011      4.1399228      3.9253721
 Leave Link  202 at Mon Oct 19 21:13:33 2015, MaxMem=   524288000 cpu:         0.1
 (Enter /opt/g09/l716.exe)
 Dipole        = 2.46175646D-01 5.45906305D-01 5.38688322D-09
 Polarizability= 2.75167905D+01 1.61043443D+01 4.59856979D+01
                 1.68528560D-08 4.60903859D-08 1.41062499D+01
 Full mass-weighted force constant matrix:
 Low frequencies ---   -5.3224   -0.0022    0.0019    0.0027    4.5811    5.7204
 Low frequencies ---  124.3765  300.7549 1622.6407
 Diagonal vibrational polarizability:
        0.3501441       2.3182792       0.0000000
 Harmonic frequencies (cm**-1), IR intensities (KM/Mole), Raman scattering
 activities (A**4/AMU), depolarization ratios for plane and unpolarized
 incident light, reduced masses (AMU), force constants (mDyne/A),
 and normal coordinates:
                      1                      2                      3
                      A                      A                      A
 Frequencies --    124.3764               300.7549              1622.6407
 Red. masses --     21.5314                16.4064                15.9949
 Frc consts  --      0.1962                 0.8744                24.8129
 IR Inten    --      0.2591                 0.0152               216.5377
  Atom  AN      X      Y      Z        X      Y      Z        X      Y      Z
     1   8    -0.25  -0.60   0.00    -0.04   0.55   0.00     0.69   0.16   0.00
     2  17     0.24   0.48   0.00    -0.11   0.10   0.00     0.00   0.00   0.00
     3   8    -0.28  -0.46   0.00     0.28  -0.77   0.00    -0.69  -0.16   0.00

 -------------------
 - Thermochemistry -
 -------------------
 Temperature   298.150 Kelvin.  Pressure   1.00000 Atm.
 Atom     1 has atomic number  8 and mass  15.99491
 Atom     2 has atomic number 17 and mass  34.96885
 Atom     3 has atomic number  8 and mass  15.99491
 Molecular mass:    66.95868 amu.
 Principal axes and moments of inertia in atomic units:
                           1         2         3
     Eigenvalues --    23.82714 435.93595 459.76309
           X            0.46866   0.88338   0.00000
           Y            0.88338  -0.46866   0.00000
           Z            0.00000   0.00000   1.00000
 This molecule is an asymmetric top.
 Rotational symmetry number  1.
 Rotational temperatures (Kelvin)      3.63509     0.19868     0.18839
 Rotational constants (GHZ):          75.74310     4.13992     3.92537
 Zero-point vibrational energy      12248.4 (Joules/Mol)
                                    2.92744 (Kcal/Mol)
 Warning -- explicit consideration of   2 degrees of freedom as
           vibrations may cause significant error
 Vibrational temperatures:    178.95   432.72  2334.62
          (Kelvin)
 
 Zero-point correction=                           0.004665 (Hartree/Particle)
 Thermal correction to Energy=                    0.008609
 Thermal correction to Enthalpy=                  0.009553
 Thermal correction to Gibbs Free Energy=        -0.022487
 Sum of electronic and zero-point Energies=           -610.432602
 Sum of electronic and thermal Energies=              -610.428658
 Sum of electronic and thermal Enthalpies=            -610.427714
 Sum of electronic and thermal Free Energies=         -610.459754
 
                     E (Thermal)             CV                S
                      KCal/Mol        Cal/Mol-Kelvin    Cal/Mol-Kelvin
 Total                    5.402              9.611             67.434
 Electronic               0.000              0.000              1.377
 Translational            0.889              2.981             38.522
 Rotational               0.889              2.981             23.084
 Vibrational              3.625              3.649              4.451
 Vibration     1          0.610              1.929              3.031
 Vibration     2          0.693              1.672              1.413
                       Q            Log10(Q)             Ln(Q)
 Total Bot       0.220474D+11         10.343357         23.816461
 Total V=0       0.308447D+13         12.489181         28.757402
 Vib (Bot)       0.206919D-01         -1.684199         -3.878011
 Vib (Bot)    1  0.164136D+01          0.215205          0.495527
 Vib (Bot)    2  0.632063D+00         -0.199240         -0.458767
 Vib (V=0)       0.289484D+01          0.461625          1.062930
 Vib (V=0)    1  0.221583D+01          0.345536          0.795627
 Vib (V=0)    2  0.130592D+01          0.115916          0.266906
 Electronic      0.200000D+01          0.301030          0.693147
 Translational   0.215360D+08          7.333166         16.885238
 Rotational      0.247378D+05          4.393361         10.116087
 
                                                      ./00_00fine-ClOO-west.g09
                                                             IR Spectrum
 
     1                                                                                                                               
     6                                                                                                       3             1         
     2                                                                                                       0             2         
     3                                                                                                       1             4         
 
     X                                                                                                                     X         
     X                                                                                                                               
     X                                                                                                                               
     X                                                                                                                               
     X                                                                                                                               
     X                                                                                                                               
     X                                                                                                                               
     X                                                                                                                               
     X                                                                                                                               
     X                                                                                                                               
     X                                                                                                                               
     X                                                                                                                               
     X                                                                                                                               
     X                                                                                                                               
     X                                                                                                                               
     X                                                                                                                               
     X                                                                                                                               
     X                                                                                                                               
     X                                                                                                                               
     X                                                                                                                               
 
 -------------------------------------------------------------------
 Center     Atomic                   Forces (Hartrees/Bohr)
 Number     Number              X              Y              Z
 -------------------------------------------------------------------
      1        8           0.000004287   -0.000000484   -0.000000001
      2       17          -0.000002530    0.000001304    0.000000000
      3        8          -0.000001758   -0.000000819    0.000000001
 -------------------------------------------------------------------
 Cartesian Forces:  Max     0.000004287 RMS     0.000001840
 Force constants in Cartesian coordinates: 
                1             2             3             4             5 
      1  0.753987D+00
      2  0.180118D+00  0.619131D-01
      3  0.000000D+00  0.000000D+00 -0.111619D-04
      4  0.203821D-03 -0.903843D-02  0.000000D+00  0.498257D-02
      5 -0.377686D-02  0.170889D-02  0.000000D+00  0.113682D-02  0.102858D-01
      6  0.000000D+00  0.000000D+00  0.170287D-05  0.000000D+00  0.000000D+00
      7 -0.754191D+00 -0.171080D+00  0.000000D+00 -0.518639D-02  0.264004D-02
      8 -0.176341D+00 -0.636220D-01  0.000000D+00  0.790161D-02 -0.119947D-01
      9  0.000000D+00  0.000000D+00  0.945901D-05  0.000000D+00  0.000000D+00
                6             7             8             9 
      6  0.993167D-05
      7  0.000000D+00  0.759377D+00
      8  0.000000D+00  0.168440D+00  0.756167D-01
      9 -0.116346D-04  0.000000D+00  0.000000D+00  0.217554D-05
 Red2BG is reusing G-inverse.
 Force constants in internal coordinates: 
                1             2             3 
      1  0.798056D+00
      2  0.362820D-02  0.105139D-01
      3  0.483401D-02 -0.890353D-03  0.910712D-01
 Leave Link  716 at Mon Oct 19 21:13:33 2015, MaxMem=   524288000 cpu:         0.2
 (Enter /opt/g09/l9999.exe)
 1\1\GINC-CARAVAGGIO\Freq\UB971\6-311+G(d,p)\Cl1O2(2)\PB556\19-Oct-2015
 \0\\#p uB971/6-311+G(d,p) Opt=(Tight, CalcAll, MaxCycles=512, MaxStep=
 256) Freq GFInput Population=None Integral(Grid=UltraFine) SCF=XQC Gue
 ss=MIX NoSymmetry\\./00_00fine-ClOO-west.g09\\0,2\O,1.16147,1.37591,0.
 \Cl,-0.54657,-1.16283,0.\O,0.,1.09511,0.\\Version=ES64L-G09RevD.01\HF=
 -610.4372667\S2=1.388773\S2-1=0.\S2A=0.764145\RMSD=4.828e-09\RMSF=1.84
 0e-06\ZeroPoint=0.0046652\Thermal=0.0086089\Dipole=0.2461756,0.5459063
 ,0.\DipoleDeriv=-0.4387608,-1.2354633,0.,-0.1516845,-0.2917063,0.,0.,0
 .,0.0551822,-0.0978012,0.0647826,0.,0.0275193,0.0438948,0.,0.,0.,-0.12
 11035,0.536562,1.1706807,0.,0.1241652,0.2478115,0.,0.,0.,0.0659213\Pol
 ar=27.5167905,16.1043443,45.9856979,0.,0.,14.1062499\PG=CS [SG(Cl1O2)]
 \NImag=0\\0.75398691,0.18011813,0.06191314,0.,0.,-0.00001116,0.0002038
 2,-0.00903843,0.,0.00498257,-0.00377686,0.00170889,0.,0.00113682,0.010
 28577,0.,0.,0.00000170,0.,0.,0.00000993,-0.75419073,-0.17107970,0.,-0.
 00518639,0.00264004,0.,0.75937712,-0.17634127,-0.06362203,0.,0.0079016
 1,-0.01199466,0.,0.16843966,0.07561669,0.,0.,0.00000946,0.,0.,-0.00001
 163,0.,0.,0.00000218\\-0.00000429,0.00000048,0.,0.00000253,-0.00000130
 ,0.,0.00000176,0.00000082,0.\\\@


 NO HUMAN INVESTIGATION CAN BECOME REAL SCIENCE
 WITHOUT GOING THROUGH MATHEMATICAL PEOPLE.
 -- LEONARDO DA VINCI, IN "PENSIERI" CA. 1492
 Leave Link 9999 at Mon Oct 19 21:13:33 2015, MaxMem=   524288000 cpu:         0.2
 Job cpu time:       0 days  0 hours  2 minutes  5.4 seconds.
 File lengths (MBytes):  RWF=      9 Int=      0 D2E=      0 Chk=      2 Scr=      1
 Normal termination of Gaussian 09 at Mon Oct 19 21:13:33 2015.
 (Enter /opt/g09/l1.exe)
 Link1:  Proceeding to internal job step number  2.
 ----------------------------------------------------------------------
 #P Geom=AllCheck Guess=TCheck SCRF=Check GenChk UB971/6-311+G(d,p) Fre
 q
 ----------------------------------------------------------------------
 1/6=512,7=10,8=256,10=4,29=7,30=1,38=1,40=1/1,3;
 2/12=2,15=1,40=1/2;
 3/5=4,6=6,7=111,11=2,14=-4,16=1,24=10,25=1,30=1,70=2,71=2,74=-20,75=-5,116=2,140=1/1,2,3;
 4/5=101/1;
 5/5=2,8=3,13=1,98=1/2,8;
 8/6=4,10=90,11=11/1;
 11/6=1,8=1,9=11,15=111,16=1,31=1/1,2,10;
 10/6=1,31=1/2;
 7/8=1,10=1,25=1,30=1/1,2,3,16;
 1/6=512,7=10,8=256,10=4,30=1/3;
 99//99;
 Leave Link    1 at Mon Oct 19 21:13:33 2015, MaxMem=   524288000 cpu:         0.3
 (Enter /opt/g09/l101.exe)
 Structure from the checkpoint file:  "/scratch/pb556/g09_run/ti_runs//Gau-5513.chk"
 -------------------------
 ./00_00fine-ClOO-west.g09
 -------------------------
 Charge =  0 Multiplicity = 2
 Redundant internal coordinates found in file.
 O,0,1.16147,1.37591,0.
 Cl,0,-0.54657,-1.16283,0.
 O,0,0.,1.09511,0.
 Recover connectivity data from disk.
 NAtoms=      3 NQM=        3 NQMF=       0 NMMI=      0 NMMIF=      0
                NMic=       0 NMicF=      0.
                    Isotopes and Nuclear Properties:
 (Nuclear quadrupole moments (NQMom) in fm**2, nuclear magnetic moments (NMagM)
  in nuclear magnetons)

  Atom         1           2           3
 IAtWgt=          16          35          16
 AtmWgt=  15.9949146  34.9688527  15.9949146
 NucSpn=           0           3           0
 AtZEff=  -5.6000000 -14.2400000  -5.6000000
 NQMom=    0.0000000  -8.1650000   0.0000000
 NMagM=    0.0000000   0.8218740   0.0000000
 AtZNuc=   8.0000000  17.0000000   8.0000000
 Leave Link  101 at Mon Oct 19 21:13:33 2015, MaxMem=   524288000 cpu:         1.3
 (Enter /opt/g09/l103.exe)

 GradGradGradGradGradGradGradGradGradGradGradGradGradGradGradGradGradGrad
 Berny optimization.
 Initialization pass.
                           ----------------------------
                           !    Initial Parameters    !
                           ! (Angstroms and Degrees)  !
 --------------------------                            --------------------------
 ! Name  Definition              Value          Derivative Info.                !
 --------------------------------------------------------------------------------
 ! R1    R(1,3)                  1.1949         calculate D2E/DX2 analytically  !
 ! R2    R(2,3)                  2.3232         calculate D2E/DX2 analytically  !
 ! A1    A(1,3,2)              117.1988         calculate D2E/DX2 analytically  !
 --------------------------------------------------------------------------------
 Trust Radius=2.56D+00 FncErr=1.00D-07 GrdErr=1.00D-07
 Number of steps in this run=      2 maximum allowed number of steps=      2.
 GradGradGradGradGradGradGradGradGradGradGradGradGradGradGradGradGradGrad

 Leave Link  103 at Mon Oct 19 21:13:33 2015, MaxMem=   524288000 cpu:         0.1
 (Enter /opt/g09/l202.exe)
                          Input orientation:                          
 ---------------------------------------------------------------------
 Center     Atomic      Atomic             Coordinates (Angstroms)
 Number     Number       Type             X           Y           Z
 ---------------------------------------------------------------------
      1          8           0        1.161470    1.375910    0.000000
      2         17           0       -0.546570   -1.162830    0.000000
      3          8           0        0.000000    1.095110    0.000000
 ---------------------------------------------------------------------
                    Distance matrix (angstroms):
                    1          2          3
     1  O    0.000000
     2  Cl   3.059837   0.000000
     3  O    1.194931   2.323151   0.000000
 Symmetry turned off by external request.
 Stoichiometry    ClO2(2)
 Framework group  CS[SG(ClO2)]
 Deg. of freedom     3
 Full point group                 CS      NOp   2
 Rotational constants (GHZ):     75.7431011      4.1399228      3.9253721
 Leave Link  202 at Mon Oct 19 21:13:33 2015, MaxMem=   524288000 cpu:         0.1
 (Enter /opt/g09/l301.exe)
 Standard basis: 6-311+G(d,p) (5D, 7F)
 Ernie: Thresh=  0.10000D-02 Tol=  0.10000D-05 Strict=F.
 AO basis set in the form of general basis input (Overlap normalization):
      1 0
 S   6 1.00       0.000000000000
      0.8588500000D+04  0.1895150083D-02
      0.1297230000D+04  0.1438590063D-01
      0.2992960000D+03  0.7073200310D-01
      0.8737710000D+02  0.2400010105D+00
      0.2567890000D+02  0.5947970261D+00
      0.3740040000D+01  0.2808020123D+00
 SP   3 1.00       0.000000000000
      0.4211750000D+02  0.1138890124D+00  0.3651139738D-01
      0.9628370000D+01  0.9208111006D+00  0.2371529830D+00
      0.2853320000D+01 -0.3274470358D-02  0.8197019412D+00
 SP   1 1.00       0.000000000000
      0.9056610000D+00  0.1000000000D+01  0.1000000000D+01
 SP   1 1.00       0.000000000000
      0.2556110000D+00  0.1000000000D+01  0.1000000000D+01
 SP   1 1.00       0.000000000000
      0.8450000000D-01  0.1000000000D+01  0.1000000000D+01
 D   1 1.00       0.000000000000
      0.1292000000D+01  0.1000000000D+01
 ****
      2 0
 S   6 1.00       0.000000000000
      0.1058190000D+06  0.7380002465D-03
      0.1587200000D+05  0.5718001910D-02
      0.3619650000D+04  0.2949500985D-01
      0.1030800000D+04  0.1172860392D+00
      0.3399080000D+03  0.3629491212D+00
      0.1245380000D+03  0.5841491951D+00
 S   3 1.00       0.000000000000
      0.1245380000D+03  0.1341769734D+00
      0.4951350000D+02  0.6242498762D+00
      0.2080560000D+02  0.2917559421D+00
 S   1 1.00       0.000000000000
      0.6583460000D+01  0.1000000000D+01
 S   1 1.00       0.000000000000
      0.2564680000D+01  0.1000000000D+01
 S   1 1.00       0.000000000000
      0.5597630000D+00  0.1000000000D+01
 S   1 1.00       0.000000000000
      0.1832730000D+00  0.1000000000D+01
 SP   1 1.00       0.000000000000
      0.4830000000D-01  0.1000000000D+01  0.1000000000D+01
 P   5 1.00       0.000000000000
      0.5897760000D+03  0.3665569355D-02
      0.1398490000D+03  0.2836791942D-01
      0.4514130000D+02  0.1247566028D+00
      0.1687330000D+02  0.3396546305D+00
      0.2771520000D+01  0.7475859630D+00
 P   2 1.00       0.000000000000
      0.6741100000D+01 -0.1572243813D+01
      0.2771520000D+01  0.9923888817D+00
 P   1 1.00       0.000000000000
      0.1023870000D+01  0.1000000000D+01
 P   1 1.00       0.000000000000
      0.3813680000D+00  0.1000000000D+01
 P   1 1.00       0.000000000000
      0.1094370000D+00  0.1000000000D+01
 D   1 1.00       0.000000000000
      0.7500000000D+00  0.1000000000D+01
 ****
      3 0
 S   6 1.00       0.000000000000
      0.8588500000D+04  0.1895150083D-02
      0.1297230000D+04  0.1438590063D-01
      0.2992960000D+03  0.7073200310D-01
      0.8737710000D+02  0.2400010105D+00
      0.2567890000D+02  0.5947970261D+00
      0.3740040000D+01  0.2808020123D+00
 SP   3 1.00       0.000000000000
      0.4211750000D+02  0.1138890124D+00  0.3651139738D-01
      0.9628370000D+01  0.9208111006D+00  0.2371529830D+00
      0.2853320000D+01 -0.3274470358D-02  0.8197019412D+00
 SP   1 1.00       0.000000000000
      0.9056610000D+00  0.1000000000D+01  0.1000000000D+01
 SP   1 1.00       0.000000000000
      0.2556110000D+00  0.1000000000D+01  0.1000000000D+01
 SP   1 1.00       0.000000000000
      0.8450000000D-01  0.1000000000D+01  0.1000000000D+01
 D   1 1.00       0.000000000000
      0.1292000000D+01  0.1000000000D+01
 ****

    74 basis functions,   125 primitive gaussians,    77 cartesian basis functions
    17 alpha electrons       16 beta electrons
       nuclear repulsion energy        82.8413926507 Hartrees.
 IExCor= 1614 DFT=T Ex+Corr=B971 ExCW=0 ScaHFX=  0.210000
 ScaDFX=  1.000000  1.000000  1.000000  1.000000 ScalE2=  1.000000  1.000000
 IRadAn=      5 IRanWt=     -1 IRanGd=            0 ICorTp=0 IEmpDi=  4
 NAtoms=    3 NActive=    3 NUniq=    3 SFac= 1.00D+00 NAtFMM=   60 NAOKFM=F Big=F
 Integral buffers will be    131072 words long.
 Raffenetti 2 integral format.
 Two-electron integral symmetry is turned off.
 Leave Link  301 at Mon Oct 19 21:13:33 2015, MaxMem=   524288000 cpu:         0.4
 (Enter /opt/g09/l302.exe)
 NPDir=0 NMtPBC=     1 NCelOv=     1 NCel=       1 NClECP=     1 NCelD=      1
         NCelK=      1 NCelE2=     1 NClLst=     1 CellRange=     0.0.
 One-electron integrals computed using PRISM.
 NBasis=    74 RedAO= T EigKep=  6.34D-04  NBF=    74
 NBsUse=    74 1.00D-06 EigRej= -1.00D+00 NBFU=    74
 Precomputing XC quadrature grid using
 IXCGrd= 4 IRadAn=           5 IRanWt=          -1 IRanGd=           0 AccXCQ= 0.00D+00.
 Generated NRdTot=       0 NPtTot=           0 NUsed=           0 NTot=          32
 NSgBfM=    76    76    76    76    76 MxSgAt=     3 MxSgA2=     3.
 Leave Link  302 at Mon Oct 19 21:13:33 2015, MaxMem=   524288000 cpu:         1.2
 (Enter /opt/g09/l303.exe)
 DipDrv:  MaxL=1.
 Leave Link  303 at Mon Oct 19 21:13:33 2015, MaxMem=   524288000 cpu:         0.2
 (Enter /opt/g09/l401.exe)
 Initial guess from the checkpoint file:  "/scratch/pb556/g09_run/ti_runs//Gau-5513.chk"
 B after Tr=     0.000000    0.000000    0.000000
         Rot=    1.000000    0.000000    0.000000    0.000000 Ang=   0.00 deg.
 Guess basis will be translated and rotated to current coordinates.
 JPrj=2 DoOrth=T DoCkMO=T.
 Initial guess <Sx>= 0.0000 <Sy>= 0.0000 <Sz>= 0.5000 <S**2>= 1.3888 S= 0.7801
 Leave Link  401 at Mon Oct 19 21:13:33 2015, MaxMem=   524288000 cpu:         0.7
 (Enter /opt/g09/l502.exe)
 UHF open shell SCF:
 Using DIIS extrapolation, IDIIS=  1040.
 Two-electron integral symmetry not used.
 Keep R1 and R2 ints in memory in canonical form, NReq=8628605.
 IVT=       24813 IEndB=       24813 NGot=   524288000 MDV=   516559788
 LenX=   516559788 LenY=   516553418
 Requested convergence on RMS density matrix=1.00D-08 within  64 cycles.
 Requested convergence on MAX density matrix=1.00D-06.
 Requested convergence on             energy=1.00D-06.
 No special actions if energy rises.
 FoFCou: FMM=F IPFlag=           0 FMFlag=           0 FMFlg1=           0
         NFxFlg=           0 DoJE=F BraDBF=F KetDBF=F FulRan=T
         wScrn=  0.000000 ICntrl=     600 IOpCl=  0 I1Cent=           0 NGrid=           0
         NMat0=    1 NMatS0=   2775 NMatT0=    0 NMatD0=    1 NMtDS0=    0 NMtDT0=    0
 Symmetry not used in FoFCou.

 Cycle   1  Pass 1  IDiag  1:
 E= -610.437266709995    
 DIIS: error= 3.26D-09 at cycle   1 NSaved=   1.
 NSaved= 1 IEnMin= 1 EnMin= -610.437266709995     IErMin= 1 ErrMin= 3.26D-09
 ErrMax= 3.26D-09  0.00D+00 EMaxC= 1.00D-01 BMatC= 2.05D-15 BMatP= 2.05D-15
 IDIUse=1 WtCom= 1.00D+00 WtEn= 0.00D+00
 Coeff-Com:  0.100D+01
 Coeff:      0.100D+01
 Gap=     0.110 Goal=   None    Shift=    0.000
 Gap=     0.172 Goal=   None    Shift=    0.000
 RMSDP=1.66D-09 MaxDP=5.04D-08              OVMax= 1.73D-07

 SCF Done:  E(UB971) =  -610.437266710     A.U. after    1 cycles
            NFock=  1  Conv=0.17D-08     -V/T= 2.0021
 <Sx>= 0.0000 <Sy>= 0.0000 <Sz>= 0.5000 <S**2>= 1.3888 S= 0.7801
 <L.S>= 0.000000000000E+00
 KE= 6.091799826890D+02 PE=-1.615146882129D+03 EE= 3.126882400794D+02
 Annihilation of the first spin contaminant:
 S**2 before annihilation     1.3888,   after     0.7641
 Leave Link  502 at Mon Oct 19 21:13:34 2015, MaxMem=   524288000 cpu:         3.1
 (Enter /opt/g09/l508.exe)
 QCSCF skips out because SCF is already converged.
 Leave Link  508 at Mon Oct 19 21:13:34 2015, MaxMem=   524288000 cpu:         0.0
 (Enter /opt/g09/l801.exe)
 DoSCS=F DFT=T ScalE2(SS,OS)=  1.000000  1.000000
 Range of M.O.s used for correlation:     1    74
 NBasis=    74 NAE=    17 NBE=    16 NFC=     0 NFV=     0
 NROrb=     74 NOA=    17 NOB=    16 NVA=    57 NVB=    58

 **** Warning!!: The largest alpha MO coefficient is  0.22579919D+02


 **** Warning!!: The largest beta MO coefficient is  0.22484980D+02

 Leave Link  801 at Mon Oct 19 21:13:34 2015, MaxMem=   524288000 cpu:         0.2
 (Enter /opt/g09/l1101.exe)
 Using compressed storage, NAtomX=     3.
 Will process      4 centers per pass.
 Leave Link 1101 at Mon Oct 19 21:13:34 2015, MaxMem=   524288000 cpu:         1.2
 (Enter /opt/g09/l1102.exe)
 Symmetrizing basis deriv contribution to polar:
 IMax=3 JMax=2 DiffMx= 0.00D+00
 Leave Link 1102 at Mon Oct 19 21:13:34 2015, MaxMem=   524288000 cpu:         0.2
 (Enter /opt/g09/l1110.exe)
 Forming Gx(P) for the SCF density, NAtomX=     3.
 Integral derivatives from FoFJK, PRISM(SPDF).
 Do as many integral derivatives as possible in FoFJK.
 G2DrvN: MDV=     524287872.
 G2DrvN: will do     4 centers at a time, making    1 passes.
 Calling FoFCou, ICntrl=  3107 FMM=F I1Cent=   0 AccDes= 0.00D+00.
 FoFJK:  IHMeth= 1 ICntrl=    3107 DoSepK=F KAlg= 0 I1Cent=   0 FoldK=F
 IRaf=         0 NMat=   1 IRICut=       1 DoRegI=T DoRafI=F ISym2E= 0.
 FoFCou: FMM=F IPFlag=           0 FMFlag=      100000 FMFlg1=           0
         NFxFlg=           0 DoJE=F BraDBF=F KetDBF=F FulRan=T
         wScrn=  0.000000 ICntrl=    3107 IOpCl=  1 I1Cent=           0 NGrid=           0
         NMat0=    1 NMatS0=      1 NMatT0=    0 NMatD0=    1 NMtDS0=    0 NMtDT0=    0
 Symmetry not used in FoFCou.
 End of G2Drv F.D. properties file   721 does not exist.
 End of G2Drv F.D. properties file   722 does not exist.
 End of G2Drv F.D. properties file   788 does not exist.
 Leave Link 1110 at Mon Oct 19 21:13:36 2015, MaxMem=   524288000 cpu:        15.0
 (Enter /opt/g09/l1002.exe)
 Minotr:  UHF open shell wavefunction.
          IDoAtm=111
          Direct CPHF calculation.
          Differentiating once with respect to electric field.
                with respect to dipole field.
          Differentiating once with respect to nuclear coordinates.
          Requested convergence is 1.0D-08 RMS, and 1.0D-07 maximum.
          Secondary convergence is 1.0D-12 RMS, and 1.0D-12 maximum.
          NewPWx=T KeepS1=F KeepF1=F KeepIn=T MapXYZ=F SortEE=F KeepMc=T.
          MDV=     524287818 using IRadAn=       1.
 Generate precomputed XC quadrature information.
 Keep R1 and R2 ints in memory in canonical form, NReq=8602270.
 FoFCou: FMM=F IPFlag=           0 FMFlag=           0 FMFlg1=           0
         NFxFlg=           0 DoJE=F BraDBF=F KetDBF=F FulRan=T
         wScrn=  0.000000 ICntrl=     600 IOpCl=  0 I1Cent=           0 NGrid=           0
         NMat0=    1 NMatS0=   2775 NMatT0=    0 NMatD0=    1 NMtDS0=    0 NMtDT0=    0
 Symmetry not used in FoFCou.
          Solving linear equations simultaneously, MaxMat=       0.
          There are    12 degrees of freedom in the 1st order CPHF.  IDoFFX=6 NUNeed=     3.
      9 vectors produced by pass  0 Test12= 1.58D-14 8.33D-09 XBig12= 8.42D+01 5.54D+00.
 AX will form     9 AO Fock derivatives at one time.
      9 vectors produced by pass  1 Test12= 1.58D-14 8.33D-09 XBig12= 4.86D+01 2.18D+00.
      9 vectors produced by pass  2 Test12= 1.58D-14 8.33D-09 XBig12= 5.02D+00 5.37D-01.
      9 vectors produced by pass  3 Test12= 1.58D-14 8.33D-09 XBig12= 2.37D-01 1.08D-01.
      9 vectors produced by pass  4 Test12= 1.58D-14 8.33D-09 XBig12= 7.90D-03 2.46D-02.
      9 vectors produced by pass  5 Test12= 1.58D-14 8.33D-09 XBig12= 1.20D-04 2.30D-03.
      9 vectors produced by pass  6 Test12= 1.58D-14 8.33D-09 XBig12= 6.79D-07 1.55D-04.
      7 vectors produced by pass  7 Test12= 1.58D-14 8.33D-09 XBig12= 4.07D-09 1.85D-05.
      4 vectors produced by pass  8 Test12= 1.58D-14 8.33D-09 XBig12= 2.04D-11 1.13D-06.
      2 vectors produced by pass  9 Test12= 1.58D-14 8.33D-09 XBig12= 5.06D-14 6.10D-08.
 InvSVY:  IOpt=1 It=  1 EMax= 1.11D-15
 Solved reduced A of dimension    76 with     9 vectors.
 FullF1:  Do perturbations    1 to     3.
 Isotropic polarizability for W=    0.000000       29.20 Bohr**3.
 End of Minotr F.D. properties file   721 does not exist.
 End of Minotr F.D. properties file   722 does not exist.
 End of Minotr F.D. properties file   788 does not exist.
 Leave Link 1002 at Mon Oct 19 21:13:40 2015, MaxMem=   524288000 cpu:        29.7
 (Enter /opt/g09/l701.exe)
 Compute integral second derivatives.
 ... and contract with generalized density number  0.
 Leave Link  701 at Mon Oct 19 21:13:40 2015, MaxMem=   524288000 cpu:         2.0
 (Enter /opt/g09/l702.exe)
 L702 exits ... SP integral derivatives will be done elsewhere.
 Leave Link  702 at Mon Oct 19 21:13:40 2015, MaxMem=   524288000 cpu:         0.2
 (Enter /opt/g09/l703.exe)
 Compute integral second derivatives, UseDBF=F ICtDFT=           0.
 Integral derivatives from FoFJK, PRISM(SPDF).
 Calling FoFJK, ICntrl=    100127 FMM=F ISym2X=0 I1Cent= 0 IOpClX= 1 NMat=1 NMatS=1 NMatT=0.
 FoFJK:  IHMeth= 1 ICntrl=  100127 DoSepK=F KAlg= 0 I1Cent=   0 FoldK=F
 IRaf=         0 NMat=   1 IRICut=       1 DoRegI=T DoRafI=F ISym2E= 0.
 FoFCou: FMM=F IPFlag=           0 FMFlag=      100000 FMFlg1=         800
         NFxFlg=           0 DoJE=F BraDBF=F KetDBF=F FulRan=T
         wScrn=  0.000000 ICntrl=  100127 IOpCl=  1 I1Cent=           0 NGrid=           0
         NMat0=    1 NMatS0=      1 NMatT0=    0 NMatD0=    1 NMtDS0=    0 NMtDT0=    0
 Symmetry not used in FoFCou.
 Leave Link  703 at Mon Oct 19 21:13:44 2015, MaxMem=   524288000 cpu:        34.7
 (Enter /opt/g09/l716.exe)
 Dipole        = 2.46175667D-01 5.45906267D-01 1.50860202D-09
 Polarizability= 2.75167905D+01 1.61043445D+01 4.59856984D+01
                 2.27878868D-09 1.30589105D-08 1.41062500D+01
 Full mass-weighted force constant matrix:
 Low frequencies ---   -5.3223    0.0009    0.0037    0.0040    4.5810    5.7204
 Low frequencies ---  124.3764  300.7549 1622.6407
 Diagonal vibrational polarizability:
        0.3501441       2.3182791       0.0000000
 Harmonic frequencies (cm**-1), IR intensities (KM/Mole), Raman scattering
 activities (A**4/AMU), depolarization ratios for plane and unpolarized
 incident light, reduced masses (AMU), force constants (mDyne/A),
 and normal coordinates:
                      1                      2                      3
                      A                      A                      A
 Frequencies --    124.3764               300.7549              1622.6407
 Red. masses --     21.5314                16.4064                15.9949
 Frc consts  --      0.1962                 0.8744                24.8129
 IR Inten    --      0.2591                 0.0152               216.5377
  Atom  AN      X      Y      Z        X      Y      Z        X      Y      Z
     1   8    -0.25  -0.60   0.00    -0.04   0.55   0.00     0.69   0.16   0.00
     2  17     0.24   0.48   0.00    -0.11   0.10   0.00     0.00   0.00   0.00
     3   8    -0.28  -0.46   0.00     0.28  -0.77   0.00    -0.69  -0.16   0.00

 -------------------
 - Thermochemistry -
 -------------------
 Temperature   298.150 Kelvin.  Pressure   1.00000 Atm.
 Atom     1 has atomic number  8 and mass  15.99491
 Atom     2 has atomic number 17 and mass  34.96885
 Atom     3 has atomic number  8 and mass  15.99491
 Molecular mass:    66.95868 amu.
 Principal axes and moments of inertia in atomic units:
                           1         2         3
     Eigenvalues --    23.82714 435.93595 459.76309
           X            0.46866   0.88338   0.00000
           Y            0.88338  -0.46866   0.00000
           Z            0.00000   0.00000   1.00000
 This molecule is an asymmetric top.
 Rotational symmetry number  1.
 Rotational temperatures (Kelvin)      3.63509     0.19868     0.18839
 Rotational constants (GHZ):          75.74310     4.13992     3.92537
 Zero-point vibrational energy      12248.4 (Joules/Mol)
                                    2.92744 (Kcal/Mol)
 Warning -- explicit consideration of   2 degrees of freedom as
           vibrations may cause significant error
 Vibrational temperatures:    178.95   432.72  2334.62
          (Kelvin)
 
 Zero-point correction=                           0.004665 (Hartree/Particle)
 Thermal correction to Energy=                    0.008609
 Thermal correction to Enthalpy=                  0.009553
 Thermal correction to Gibbs Free Energy=        -0.022487
 Sum of electronic and zero-point Energies=           -610.432602
 Sum of electronic and thermal Energies=              -610.428658
 Sum of electronic and thermal Enthalpies=            -610.427714
 Sum of electronic and thermal Free Energies=         -610.459754
 
                     E (Thermal)             CV                S
                      KCal/Mol        Cal/Mol-Kelvin    Cal/Mol-Kelvin
 Total                    5.402              9.611             67.434
 Electronic               0.000              0.000              1.377
 Translational            0.889              2.981             38.522
 Rotational               0.889              2.981             23.084
 Vibrational              3.625              3.649              4.451
 Vibration     1          0.610              1.929              3.031
 Vibration     2          0.693              1.672              1.413
                       Q            Log10(Q)             Ln(Q)
 Total Bot       0.220474D+11         10.343358         23.816461
 Total V=0       0.308447D+13         12.489181         28.757402
 Vib (Bot)       0.206919D-01         -1.684199         -3.878011
 Vib (Bot)    1  0.164136D+01          0.215205          0.495527
 Vib (Bot)    2  0.632063D+00         -0.199240         -0.458767
 Vib (V=0)       0.289484D+01          0.461625          1.062931
 Vib (V=0)    1  0.221583D+01          0.345536          0.795627
 Vib (V=0)    2  0.130592D+01          0.115916          0.266906
 Electronic      0.200000D+01          0.301030          0.693147
 Translational   0.215360D+08          7.333166         16.885238
 Rotational      0.247378D+05          4.393361         10.116087
 
                                                      ./00_00fine-ClOO-west.g09
                                                             IR Spectrum
 
     1                                                                                                                               
     6                                                                                                       3             1         
     2                                                                                                       0             2         
     3                                                                                                       1             4         
 
     X                                                                                                                     X         
     X                                                                                                                               
     X                                                                                                                               
     X                                                                                                                               
     X                                                                                                                               
     X                                                                                                                               
     X                                                                                                                               
     X                                                                                                                               
     X                                                                                                                               
     X                                                                                                                               
     X                                                                                                                               
     X                                                                                                                               
     X                                                                                                                               
     X                                                                                                                               
     X                                                                                                                               
     X                                                                                                                               
     X                                                                                                                               
     X                                                                                                                               
     X                                                                                                                               
     X                                                                                                                               
 
 -------------------------------------------------------------------
 Center     Atomic                   Forces (Hartrees/Bohr)
 Number     Number              X              Y              Z
 -------------------------------------------------------------------
      1        8           0.000004292   -0.000000484    0.000000000
      2       17          -0.000002527    0.000001303    0.000000000
      3        8          -0.000001764   -0.000000819    0.000000000
 -------------------------------------------------------------------
 Cartesian Forces:  Max     0.000004292 RMS     0.000001842
 Force constants in Cartesian coordinates: 
                1             2             3             4             5 
      1  0.753987D+00
      2  0.180118D+00  0.619131D-01
      3  0.000000D+00  0.000000D+00 -0.111615D-04
      4  0.203821D-03 -0.903843D-02  0.000000D+00  0.498257D-02
      5 -0.377686D-02  0.170888D-02  0.000000D+00  0.113682D-02  0.102858D-01
      6  0.000000D+00  0.000000D+00  0.170251D-05  0.000000D+00  0.000000D+00
      7 -0.754191D+00 -0.171080D+00  0.000000D+00 -0.518639D-02  0.264004D-02
      8 -0.176341D+00 -0.636220D-01  0.000000D+00  0.790161D-02 -0.119947D-01
      9  0.000000D+00  0.000000D+00  0.945894D-05  0.000000D+00  0.000000D+00
                6             7             8             9 
      6  0.993141D-05
      7  0.000000D+00  0.759377D+00
      8  0.000000D+00  0.168440D+00  0.756167D-01
      9 -0.116339D-04  0.000000D+00  0.000000D+00  0.217495D-05
 FormGI is forming the generalized inverse of G from B-inverse, IUseBI=4.
 Force constants in internal coordinates: 
                1             2             3 
      1  0.798056D+00
      2  0.362820D-02  0.105139D-01
      3  0.483401D-02 -0.890351D-03  0.910712D-01
 Leave Link  716 at Mon Oct 19 21:13:44 2015, MaxMem=   524288000 cpu:         0.3
 (Enter /opt/g09/l103.exe)

 GradGradGradGradGradGradGradGradGradGradGradGradGradGradGradGradGradGrad
 Berny optimization.
 Red2BG is reusing G-inverse.
 Internal  Forces:  Max     0.000003013 RMS     0.000001775
 Search for a local minimum.
 Step number   1 out of a maximum of    2
 All quantities printed in internal units (Hartrees-Bohrs-Radians)
 Second derivative matrix not updated -- analytic derivatives used.
 The second derivative matrix:
                          R1        R2        A1
           R1           0.79806
           R2           0.00363   0.01051
           A1           0.00483  -0.00089   0.09107
 ITU=  0
     Eigenvalues ---    0.01049   0.09105   0.79811
 Angle between quadratic step and forces=  68.97 degrees.
 Linear search not attempted -- first point.
 Iteration  1 RMS(Cart)=  0.00000638 RMS(Int)=  0.00000000
 Iteration  2 RMS(Cart)=  0.00000000 RMS(Int)=  0.00000000
 ITry= 1 IFail=0 DXMaxC= 8.95D-06 DCOld= 1.00D+10 DXMaxT= 2.56D+00 DXLimC= 3.00D+00 Rises=F
 Variable       Old X    -DE/DX   Delta X   Delta X   Delta X     New X
                                 (Linear)    (Quad)   (Total)
    R1        2.25809   0.00000   0.00000   0.00000   0.00000   2.25810
    R2        4.39012   0.00000   0.00000  -0.00001  -0.00001   4.39011
    A1        2.04550   0.00000   0.00000   0.00001   0.00001   2.04551
         Item               Value     Threshold  Converged?
 Maximum Force            0.000003     0.000015     YES
 RMS     Force            0.000002     0.000010     YES
 Maximum Displacement     0.000009     0.000060     YES
 RMS     Displacement     0.000006     0.000040     YES
 Predicted change in Energy=-8.524260D-12
 Optimization completed.
    -- Stationary point found.
                           ----------------------------
                           !   Optimized Parameters   !
                           ! (Angstroms and Degrees)  !
 --------------------------                            --------------------------
 ! Name  Definition              Value          Derivative Info.                !
 --------------------------------------------------------------------------------
 ! R1    R(1,3)                  1.1949         -DE/DX =    0.0                 !
 ! R2    R(2,3)                  2.3232         -DE/DX =    0.0                 !
 ! A1    A(1,3,2)              117.1988         -DE/DX =    0.0                 !
 --------------------------------------------------------------------------------
 GradGradGradGradGradGradGradGradGradGradGradGradGradGradGradGradGradGrad

 Leave Link  103 at Mon Oct 19 21:13:44 2015, MaxMem=   524288000 cpu:         0.0
 (Enter /opt/g09/l9999.exe)
 1\1\GINC-CARAVAGGIO\Freq\UB971\6-311+G(d,p)\Cl1O2(2)\PB556\19-Oct-2015
 \0\\#P Geom=AllCheck Guess=TCheck SCRF=Check GenChk UB971/6-311+G(d,p)
  Freq\\./00_00fine-ClOO-west.g09\\0,2\O,1.16147,1.37591,0.\Cl,-0.54657
 ,-1.16283,0.\O,0.,1.09511,0.\\Version=ES64L-G09RevD.01\HF=-610.4372667
 \S2=1.388773\S2-1=0.\S2A=0.764145\RMSD=1.663e-09\RMSF=1.842e-06\ZeroPo
 int=0.0046652\Thermal=0.0086089\Dipole=0.2461757,0.5459063,0.\DipoleDe
 riv=-0.4387607,-1.2354633,0.,-0.1516845,-0.2917063,0.,0.,0.,0.0551822,
 -0.0978012,0.0647826,0.,0.0275193,0.0438948,0.,0.,0.,-0.1211035,0.5365
 62,1.1706806,0.,0.1241652,0.2478115,0.,0.,0.,0.0659213\Polar=27.516790
 5,16.1043445,45.9856984,0.,0.,14.10625\PG=CS [SG(Cl1O2)]\NImag=0\\0.75
 398692,0.18011813,0.06191314,0.,0.,-0.00001116,0.00020382,-0.00903843,
 0.,0.00498257,-0.00377686,0.00170888,0.,0.00113682,0.01028577,0.,0.,0.
 00000170,0.,0.,0.00000993,-0.75419074,-0.17107970,0.,-0.00518639,0.002
 64004,0.,0.75937713,-0.17634127,-0.06362202,0.,0.00790161,-0.01199465,
 0.,0.16843966,0.07561668,0.,0.,0.00000946,0.,0.,-0.00001163,0.,0.,0.00
 000217\\-0.00000429,0.00000048,0.,0.00000253,-0.00000130,0.,0.00000176
 ,0.00000082,0.\\\@


 ABSOLUTISM, OBSOLETISM -- IF IT WORKS, IT'S OUT OF DATE

                          -- STAFFORD BEER
 Job cpu time:       0 days  0 hours  1 minutes 31.4 seconds.
 File lengths (MBytes):  RWF=      9 Int=      0 D2E=      0 Chk=      2 Scr=      1
 Normal termination of Gaussian 09 at Mon Oct 19 21:13:44 2015.
