 Entering Gaussian System, Link 0=g09
 Input=00_00freq-no-symm-00_00fine-ClOOCl.gau
 Output=00_00freq-no-symm-00_00fine-ClOOCl.log
 Initial command:
 /opt/g09/l1.exe "/scratch/pb556/g09_run/ti_runs//Gau-17587.inp" -scrdir="/scratch/pb556/g09_run/ti_runs//"
 Entering Link 1 = /opt/g09/l1.exe PID=     17588.
  
 Copyright (c) 1988,1990,1992,1993,1995,1998,2003,2009,2013,
            Gaussian, Inc.  All Rights Reserved.
  
 This is part of the Gaussian(R) 09 program.  It is based on
 the Gaussian(R) 03 system (copyright 2003, Gaussian, Inc.),
 the Gaussian(R) 98 system (copyright 1998, Gaussian, Inc.),
 the Gaussian(R) 94 system (copyright 1995, Gaussian, Inc.),
 the Gaussian 92(TM) system (copyright 1992, Gaussian, Inc.),
 the Gaussian 90(TM) system (copyright 1990, Gaussian, Inc.),
 the Gaussian 88(TM) system (copyright 1988, Gaussian, Inc.),
 the Gaussian 86(TM) system (copyright 1986, Carnegie Mellon
 University), and the Gaussian 82(TM) system (copyright 1983,
 Carnegie Mellon University). Gaussian is a federally registered
 trademark of Gaussian, Inc.
  
 This software contains proprietary and confidential information,
 including trade secrets, belonging to Gaussian, Inc.
  
 This software is provided under written license and may be
 used, copied, transmitted, or stored only in accord with that
 written license.
  
 The following legend is applicable only to US Government
 contracts under FAR:
  
                    RESTRICTED RIGHTS LEGEND
  
 Use, reproduction and disclosure by the US Government is
 subject to restrictions as set forth in subparagraphs (a)
 and (c) of the Commercial Computer Software - Restricted
 Rights clause in FAR 52.227-19.
  
 Gaussian, Inc.
 340 Quinnipiac St., Bldg. 40, Wallingford CT 06492
  
  
 ---------------------------------------------------------------
 Warning -- This program may not be used in any manner that
 competes with the business of Gaussian, Inc. or will provide
 assistance to any competitor of Gaussian, Inc.  The licensee
 of this program is prohibited from giving any competitor of
 Gaussian, Inc. access to this program.  By using this program,
 the user acknowledges that Gaussian, Inc. is engaged in the
 business of creating and licensing software in the field of
 computational chemistry and represents and warrants to the
 licensee that it is not a competitor of Gaussian, Inc. and that
 it will not use this program in any manner prohibited above.
 ---------------------------------------------------------------
  

 Cite this work as:
 Gaussian 09, Revision D.01,
 M. J. Frisch, G. W. Trucks, H. B. Schlegel, G. E. Scuseria, 
 M. A. Robb, J. R. Cheeseman, G. Scalmani, V. Barone, B. Mennucci, 
 G. A. Petersson, H. Nakatsuji, M. Caricato, X. Li, H. P. Hratchian, 
 A. F. Izmaylov, J. Bloino, G. Zheng, J. L. Sonnenberg, M. Hada, 
 M. Ehara, K. Toyota, R. Fukuda, J. Hasegawa, M. Ishida, T. Nakajima, 
 Y. Honda, O. Kitao, H. Nakai, T. Vreven, J. A. Montgomery, Jr., 
 J. E. Peralta, F. Ogliaro, M. Bearpark, J. J. Heyd, E. Brothers, 
 K. N. Kudin, V. N. Staroverov, T. Keith, R. Kobayashi, J. Normand, 
 K. Raghavachari, A. Rendell, J. C. Burant, S. S. Iyengar, J. Tomasi, 
 M. Cossi, N. Rega, J. M. Millam, M. Klene, J. E. Knox, J. B. Cross, 
 V. Bakken, C. Adamo, J. Jaramillo, R. Gomperts, R. E. Stratmann, 
 O. Yazyev, A. J. Austin, R. Cammi, C. Pomelli, J. W. Ochterski, 
 R. L. Martin, K. Morokuma, V. G. Zakrzewski, G. A. Voth, 
 P. Salvador, J. J. Dannenberg, S. Dapprich, A. D. Daniels, 
 O. Farkas, J. B. Foresman, J. V. Ortiz, J. Cioslowski, 
 and D. J. Fox, Gaussian, Inc., Wallingford CT, 2013.
 
 ******************************************
 Gaussian 09:  ES64L-G09RevD.01 24-Apr-2013
                19-Oct-2015 
 ******************************************
 %NProcShared=8
 Will use up to    8 processors via shared memory.
 %Mem=500MW
 ----------------------------------------------------------------------
 #p rB971/6-311+G(d,p) Opt=(Tight, CalcAll, MaxCycles=512, MaxStep=256)
  Freq GFInput Population=None Integral(Grid=UltraFine) SCF=XQC Guess=M
 IX NoSymmetry
 ----------------------------------------------------------------------
 1/6=512,7=10,8=256,10=4,14=-1,18=20,19=15,26=4,38=1/1,3;
 2/9=110,12=2,15=1,17=6,18=5,40=1/2;
 3/5=4,6=6,7=111,11=2,16=1,24=10,25=1,30=1,71=2,74=-20,75=-5,116=1,140=1/1,2,3;
 4/13=-1/1;
 5/5=2,8=3,13=1,38=5/2,8;
 8/6=4,10=90,11=11/1;
 11/6=1,8=1,9=11,15=111,16=1,31=1/1,2,10;
 10/6=1,31=1/2;
 7/10=1,25=1,30=1/1,2,3,16;
 1/6=512,7=10,8=256,10=4,14=-1,18=20,19=15,26=4/3(3);
 2/9=110,15=1/2;
 7/8=1,9=1,25=1,30=1,44=-1/16;
 99//99;
 2/9=110,15=1/2;
 3/5=4,6=6,7=111,11=2,16=1,25=1,30=1,71=2,74=-20,75=-5,116=1,140=1/1,2,3;
 4/5=5,16=3,69=1/1;
 5/5=2,8=3,13=1,38=5/2,8;
 8/6=4,10=90,11=11/1;
 11/6=1,8=1,9=11,15=111,16=1,31=1/1,2,10;
 10/6=1,31=1/2;
 7/10=1,25=1,30=1/1,2,3,16;
 1/6=512,7=10,8=256,10=4,14=-1,18=20,19=15,26=4/3(-8);
 2/9=110,15=1/2;
 7/8=1,9=1,25=1,30=1,44=-1/16;
 99//99;
 Leave Link    1 at Mon Oct 19 21:12:17 2015, MaxMem=   524288000 cpu:         0.6
 (Enter /opt/g09/l101.exe)
 ----------------------
 ./00_00fine-ClOOCl.g09
 ----------------------
 Symbolic Z-matrix:
 Charge =  0 Multiplicity = 1
 Cl                   -1.76528  -0.39467   0.05593 
 O                    -0.51769   0.83868  -0.40531 
 O                     0.5177    0.83868   0.40531 
 Cl                    1.76528  -0.39467  -0.05593 
 
 NAtoms=      4 NQM=        4 NQMF=       0 NMMI=      0 NMMIF=      0
                NMic=       0 NMicF=      0.
                    Isotopes and Nuclear Properties:
 (Nuclear quadrupole moments (NQMom) in fm**2, nuclear magnetic moments (NMagM)
  in nuclear magnetons)

  Atom         1           2           3           4
 IAtWgt=          35          16          16          35
 AtmWgt=  34.9688527  15.9949146  15.9949146  34.9688527
 NucSpn=           3           0           0           3
 AtZEff=   0.0000000   0.0000000   0.0000000   0.0000000
 NQMom=   -8.1650000   0.0000000   0.0000000  -8.1650000
 NMagM=    0.8218740   0.0000000   0.0000000   0.8218740
 AtZNuc=  17.0000000   8.0000000   8.0000000  17.0000000
 Leave Link  101 at Mon Oct 19 21:12:17 2015, MaxMem=   524288000 cpu:         1.3
 (Enter /opt/g09/l103.exe)

 GradGradGradGradGradGradGradGradGradGradGradGradGradGradGradGradGradGrad
 Berny optimization.
 Initialization pass.
                           ----------------------------
                           !    Initial Parameters    !
                           ! (Angstroms and Degrees)  !
 --------------------------                            --------------------------
 ! Name  Definition              Value          Derivative Info.                !
 --------------------------------------------------------------------------------
 ! R1    R(1,2)                  1.8139         calculate D2E/DX2 analytically  !
 ! R2    R(2,3)                  1.315          calculate D2E/DX2 analytically  !
 ! R3    R(3,4)                  1.8139         calculate D2E/DX2 analytically  !
 ! A1    A(1,2,3)              112.6313         calculate D2E/DX2 analytically  !
 ! A2    A(2,3,4)              112.6311         calculate D2E/DX2 analytically  !
 ! D1    D(1,2,3,4)             85.106          calculate D2E/DX2 analytically  !
 --------------------------------------------------------------------------------
 Trust Radius=2.56D+00 FncErr=1.00D-07 GrdErr=1.00D-06
 Number of steps in this run=    100 maximum allowed number of steps=    100.
 GradGradGradGradGradGradGradGradGradGradGradGradGradGradGradGradGradGrad

 Leave Link  103 at Mon Oct 19 21:12:17 2015, MaxMem=   524288000 cpu:         0.1
 (Enter /opt/g09/l202.exe)
                          Input orientation:                          
 ---------------------------------------------------------------------
 Center     Atomic      Atomic             Coordinates (Angstroms)
 Number     Number       Type             X           Y           Z
 ---------------------------------------------------------------------
      1         17           0       -1.765280   -0.394670    0.055930
      2          8           0       -0.517690    0.838680   -0.405310
      3          8           0        0.517700    0.838680    0.405310
      4         17           0        1.765280   -0.394670   -0.055930
 ---------------------------------------------------------------------
                    Distance matrix (angstroms):
                    1          2          3          4
     1  Cl   0.000000
     2  O    1.813939   0.000000
     3  O    2.618247   1.314967   0.000000
     4  Cl   3.532332   2.618238   1.813932   0.000000
 Symmetry turned off by external request.
 Stoichiometry    Cl2O2
 Framework group  C1[X(Cl2O2)]
 Deg. of freedom     6
 Full point group                 C1      NOp   1
 Rotational constants (GHZ):     13.0041652      2.1784677      1.9444863
 Leave Link  202 at Mon Oct 19 21:12:17 2015, MaxMem=   524288000 cpu:         0.1
 (Enter /opt/g09/l301.exe)
 Standard basis: 6-311+G(d,p) (5D, 7F)
 Ernie: Thresh=  0.10000D-02 Tol=  0.10000D-05 Strict=F.
 AO basis set in the form of general basis input (Overlap normalization):
      1 0
 S   6 1.00       0.000000000000
      0.1058190000D+06  0.7380002465D-03
      0.1587200000D+05  0.5718001910D-02
      0.3619650000D+04  0.2949500985D-01
      0.1030800000D+04  0.1172860392D+00
      0.3399080000D+03  0.3629491212D+00
      0.1245380000D+03  0.5841491951D+00
 S   3 1.00       0.000000000000
      0.1245380000D+03  0.1341769734D+00
      0.4951350000D+02  0.6242498762D+00
      0.2080560000D+02  0.2917559421D+00
 S   1 1.00       0.000000000000
      0.6583460000D+01  0.1000000000D+01
 S   1 1.00       0.000000000000
      0.2564680000D+01  0.1000000000D+01
 S   1 1.00       0.000000000000
      0.5597630000D+00  0.1000000000D+01
 S   1 1.00       0.000000000000
      0.1832730000D+00  0.1000000000D+01
 SP   1 1.00       0.000000000000
      0.4830000000D-01  0.1000000000D+01  0.1000000000D+01
 P   5 1.00       0.000000000000
      0.5897760000D+03  0.3665569355D-02
      0.1398490000D+03  0.2836791942D-01
      0.4514130000D+02  0.1247566028D+00
      0.1687330000D+02  0.3396546305D+00
      0.2771520000D+01  0.7475859630D+00
 P   2 1.00       0.000000000000
      0.6741100000D+01 -0.1572243813D+01
      0.2771520000D+01  0.9923888817D+00
 P   1 1.00       0.000000000000
      0.1023870000D+01  0.1000000000D+01
 P   1 1.00       0.000000000000
      0.3813680000D+00  0.1000000000D+01
 P   1 1.00       0.000000000000
      0.1094370000D+00  0.1000000000D+01
 D   1 1.00       0.000000000000
      0.7500000000D+00  0.1000000000D+01
 ****
      2 0
 S   6 1.00       0.000000000000
      0.8588500000D+04  0.1895150083D-02
      0.1297230000D+04  0.1438590063D-01
      0.2992960000D+03  0.7073200310D-01
      0.8737710000D+02  0.2400010105D+00
      0.2567890000D+02  0.5947970261D+00
      0.3740040000D+01  0.2808020123D+00
 SP   3 1.00       0.000000000000
      0.4211750000D+02  0.1138890124D+00  0.3651139738D-01
      0.9628370000D+01  0.9208111006D+00  0.2371529830D+00
      0.2853320000D+01 -0.3274470358D-02  0.8197019412D+00
 SP   1 1.00       0.000000000000
      0.9056610000D+00  0.1000000000D+01  0.1000000000D+01
 SP   1 1.00       0.000000000000
      0.2556110000D+00  0.1000000000D+01  0.1000000000D+01
 SP   1 1.00       0.000000000000
      0.8450000000D-01  0.1000000000D+01  0.1000000000D+01
 D   1 1.00       0.000000000000
      0.1292000000D+01  0.1000000000D+01
 ****
      3 0
 S   6 1.00       0.000000000000
      0.8588500000D+04  0.1895150083D-02
      0.1297230000D+04  0.1438590063D-01
      0.2992960000D+03  0.7073200310D-01
      0.8737710000D+02  0.2400010105D+00
      0.2567890000D+02  0.5947970261D+00
      0.3740040000D+01  0.2808020123D+00
 SP   3 1.00       0.000000000000
      0.4211750000D+02  0.1138890124D+00  0.3651139738D-01
      0.9628370000D+01  0.9208111006D+00  0.2371529830D+00
      0.2853320000D+01 -0.3274470358D-02  0.8197019412D+00
 SP   1 1.00       0.000000000000
      0.9056610000D+00  0.1000000000D+01  0.1000000000D+01
 SP   1 1.00       0.000000000000
      0.2556110000D+00  0.1000000000D+01  0.1000000000D+01
 SP   1 1.00       0.000000000000
      0.8450000000D-01  0.1000000000D+01  0.1000000000D+01
 D   1 1.00       0.000000000000
      0.1292000000D+01  0.1000000000D+01
 ****
      4 0
 S   6 1.00       0.000000000000
      0.1058190000D+06  0.7380002465D-03
      0.1587200000D+05  0.5718001910D-02
      0.3619650000D+04  0.2949500985D-01
      0.1030800000D+04  0.1172860392D+00
      0.3399080000D+03  0.3629491212D+00
      0.1245380000D+03  0.5841491951D+00
 S   3 1.00       0.000000000000
      0.1245380000D+03  0.1341769734D+00
      0.4951350000D+02  0.6242498762D+00
      0.2080560000D+02  0.2917559421D+00
 S   1 1.00       0.000000000000
      0.6583460000D+01  0.1000000000D+01
 S   1 1.00       0.000000000000
      0.2564680000D+01  0.1000000000D+01
 S   1 1.00       0.000000000000
      0.5597630000D+00  0.1000000000D+01
 S   1 1.00       0.000000000000
      0.1832730000D+00  0.1000000000D+01
 SP   1 1.00       0.000000000000
      0.4830000000D-01  0.1000000000D+01  0.1000000000D+01
 P   5 1.00       0.000000000000
      0.5897760000D+03  0.3665569355D-02
      0.1398490000D+03  0.2836791942D-01
      0.4514130000D+02  0.1247566028D+00
      0.1687330000D+02  0.3396546305D+00
      0.2771520000D+01  0.7475859630D+00
 P   2 1.00       0.000000000000
      0.6741100000D+01 -0.1572243813D+01
      0.2771520000D+01  0.9923888817D+00
 P   1 1.00       0.000000000000
      0.1023870000D+01  0.1000000000D+01
 P   1 1.00       0.000000000000
      0.3813680000D+00  0.1000000000D+01
 P   1 1.00       0.000000000000
      0.1094370000D+00  0.1000000000D+01
 D   1 1.00       0.000000000000
      0.7500000000D+00  0.1000000000D+01
 ****

   104 basis functions,   178 primitive gaussians,   108 cartesian basis functions
    25 alpha electrons       25 beta electrons
       nuclear repulsion energy       203.3748416421 Hartrees.
 IExCor= 1614 DFT=T Ex+Corr=B971 ExCW=0 ScaHFX=  0.210000
 ScaDFX=  1.000000  1.000000  1.000000  1.000000 ScalE2=  1.000000  1.000000
 IRadAn=      5 IRanWt=     -1 IRanGd=            0 ICorTp=0 IEmpDi=  4
 NAtoms=    4 NActive=    4 NUniq=    4 SFac= 1.00D+00 NAtFMM=   60 NAOKFM=F Big=F
 Integral buffers will be    131072 words long.
 Raffenetti 2 integral format.
 Two-electron integral symmetry is turned off.
 Leave Link  301 at Mon Oct 19 21:12:17 2015, MaxMem=   524288000 cpu:         0.4
 (Enter /opt/g09/l302.exe)
 NPDir=0 NMtPBC=     1 NCelOv=     1 NCel=       1 NClECP=     1 NCelD=      1
         NCelK=      1 NCelE2=     1 NClLst=     1 CellRange=     0.0.
 One-electron integrals computed using PRISM.
 NBasis=   104 RedAO= T EigKep=  9.09D-04  NBF=   104
 NBsUse=   104 1.00D-06 EigRej= -1.00D+00 NBFU=   104
 Precomputing XC quadrature grid using
 IXCGrd= 4 IRadAn=           5 IRanWt=          -1 IRanGd=           0 AccXCQ= 0.00D+00.
 Generated NRdTot=       0 NPtTot=           0 NUsed=           0 NTot=          32
 NSgBfM=   106   106   106   106   106 MxSgAt=     4 MxSgA2=     4.
 Leave Link  302 at Mon Oct 19 21:12:17 2015, MaxMem=   524288000 cpu:         1.3
 (Enter /opt/g09/l303.exe)
 DipDrv:  MaxL=1.
 Leave Link  303 at Mon Oct 19 21:12:17 2015, MaxMem=   524288000 cpu:         0.2
 (Enter /opt/g09/l401.exe)
 ExpMin= 4.83D-02 ExpMax= 1.06D+05 ExpMxC= 3.62D+03 IAcc=3 IRadAn=         5 AccDes= 0.00D+00
 Harris functional with IExCor= 1614 and IRadAn=       5 diagonalized for initial guess.
 HarFok:  IExCor= 1614 AccDes= 0.00D+00 IRadAn=         5 IDoV= 1 UseB2=F ITyADJ=14
 ICtDFT=  3500011 ScaDFX=  1.000000  1.000000  1.000000  1.000000
 FoFCou: FMM=F IPFlag=           0 FMFlag=      100000 FMFlg1=           0
         NFxFlg=           0 DoJE=T BraDBF=F KetDBF=T FulRan=T
         wScrn=  0.000000 ICntrl=     500 IOpCl=  0 I1Cent=   200000004 NGrid=           0
         NMat0=    1 NMatS0=      1 NMatT0=    0 NMatD0=    1 NMtDS0=    0 NMtDT0=    0
 Symmetry not used in FoFCou.
 Harris En= -1055.74165209020    
 JPrj=0 DoOrth=F DoCkMO=T.
 Mixing orbitals, IMix= 1 IMixAn=  0 NRI=1 NE=   25 Coef=  7.07106781D-01  7.07106781D-01
 Leave Link  401 at Mon Oct 19 21:12:18 2015, MaxMem=   524288000 cpu:         2.3
 (Enter /opt/g09/l502.exe)
 Closed shell SCF:
 Using DIIS extrapolation, IDIIS=  1040.
 Two-electron integral symmetry not used.
 Keep R1 ints in memory in canonical form, NReq=15884578.
 IVT=       42454 IEndB=       42454 NGot=   524288000 MDV=   509337017
 LenX=   509337017 LenY=   509324912
 Requested convergence on RMS density matrix=1.00D-08 within  64 cycles.
 Requested convergence on MAX density matrix=1.00D-06.
 Requested convergence on             energy=1.00D-06.
 No special actions if energy rises.
 FoFCou: FMM=F IPFlag=           0 FMFlag=           0 FMFlg1=           0
         NFxFlg=           0 DoJE=F BraDBF=F KetDBF=F FulRan=T
         wScrn=  0.000000 ICntrl=     600 IOpCl=  0 I1Cent=           0 NGrid=           0
         NMat0=    1 NMatS0=   5460 NMatT0=    0 NMatD0=    1 NMtDS0=    0 NMtDT0=    0
 Symmetry not used in FoFCou.

 Cycle   1  Pass 1  IDiag  1:
 E= -1069.95421805381    
 DIIS: error= 1.66D-01 at cycle   1 NSaved=   1.
 NSaved= 1 IEnMin= 1 EnMin= -1069.95421805381     IErMin= 1 ErrMin= 1.66D-01
 ErrMax= 1.66D-01  0.00D+00 EMaxC= 1.00D-01 BMatC= 2.33D+00 BMatP= 2.33D+00
 IDIUse=3 WtCom= 0.00D+00 WtEn= 1.00D+00
 Coeff-Com:  0.100D+01
 Coeff-En:   0.100D+01
 Coeff:      0.100D+01
 Gap=     0.062 Goal=   None    Shift=    0.000
 GapD=    0.062 DampG=0.500 DampE=0.250 DampFc=0.2500 IDamp=-1.
 Damping current iteration by 2.50D-01
 RMSDP=1.59D-02 MaxDP=2.49D-01              OVMax= 5.64D-01

 Cycle   2  Pass 1  IDiag  1:
 E= -1070.14912343779     Delta-E=       -0.194905383978 Rises=F Damp=T
 DIIS: error= 1.18D-01 at cycle   2 NSaved=   2.
 NSaved= 2 IEnMin= 2 EnMin= -1070.14912343779     IErMin= 2 ErrMin= 1.18D-01
 ErrMax= 1.18D-01  0.00D+00 EMaxC= 1.00D-01 BMatC= 1.08D+00 BMatP= 2.33D+00
 IDIUse=3 WtCom= 0.00D+00 WtEn= 1.00D+00
 Coeff-Com: -0.192D+01 0.292D+01
 Coeff-En:   0.000D+00 0.100D+01
 Coeff:      0.000D+00 0.100D+01
 Gap=     0.155 Goal=   None    Shift=    0.000
 RMSDP=1.13D-02 MaxDP=1.36D-01 DE=-1.95D-01 OVMax= 8.38D-02

 Cycle   3  Pass 1  IDiag  1:
 E= -1070.48080708186     Delta-E=       -0.331683644071 Rises=F Damp=F
 DIIS: error= 2.38D-02 at cycle   3 NSaved=   3.
 NSaved= 3 IEnMin= 3 EnMin= -1070.48080708186     IErMin= 3 ErrMin= 2.38D-02
 ErrMax= 2.38D-02  0.00D+00 EMaxC= 1.00D-01 BMatC= 1.23D-01 BMatP= 1.08D+00
 IDIUse=3 WtCom= 7.62D-01 WtEn= 2.38D-01
 Coeff-Com:  0.793D+00-0.887D+00 0.109D+01
 Coeff-En:   0.000D+00 0.000D+00 0.100D+01
 Coeff:      0.605D+00-0.676D+00 0.107D+01
 Gap=     0.184 Goal=   None    Shift=    0.000
 RMSDP=4.39D-03 MaxDP=1.21D-01 DE=-3.32D-01 OVMax= 1.02D-01

 Cycle   4  Pass 1  IDiag  1:
 E= -1070.53179309515     Delta-E=       -0.050986013288 Rises=F Damp=F
 DIIS: error= 1.39D-02 at cycle   4 NSaved=   4.
 NSaved= 4 IEnMin= 4 EnMin= -1070.53179309515     IErMin= 4 ErrMin= 1.39D-02
 ErrMax= 1.39D-02  0.00D+00 EMaxC= 1.00D-01 BMatC= 3.41D-02 BMatP= 1.23D-01
 IDIUse=3 WtCom= 8.61D-01 WtEn= 1.39D-01
 Coeff-Com:  0.631D+00-0.831D+00 0.611D+00 0.588D+00
 Coeff-En:   0.000D+00 0.000D+00 0.165D+00 0.835D+00
 Coeff:      0.544D+00-0.715D+00 0.549D+00 0.622D+00
 Gap=     0.191 Goal=   None    Shift=    0.000
 RMSDP=2.21D-03 MaxDP=4.15D-02 DE=-5.10D-02 OVMax= 9.17D-02

 Cycle   5  Pass 1  IDiag  1:
 E= -1070.55053871753     Delta-E=       -0.018745622378 Rises=F Damp=F
 DIIS: error= 9.21D-03 at cycle   5 NSaved=   5.
 NSaved= 5 IEnMin= 5 EnMin= -1070.55053871753     IErMin= 5 ErrMin= 9.21D-03
 ErrMax= 9.21D-03  0.00D+00 EMaxC= 1.00D-01 BMatC= 1.27D-02 BMatP= 3.41D-02
 IDIUse=3 WtCom= 9.08D-01 WtEn= 9.21D-02
 Coeff-Com: -0.456D-01 0.650D-01 0.117D+00 0.379D+00 0.485D+00
 Coeff-En:   0.000D+00 0.000D+00 0.000D+00 0.300D+00 0.700D+00
 Coeff:     -0.414D-01 0.590D-01 0.106D+00 0.372D+00 0.504D+00
 Gap=     0.184 Goal=   None    Shift=    0.000
 RMSDP=8.11D-04 MaxDP=1.10D-02 DE=-1.87D-02 OVMax= 4.12D-02

 Cycle   6  Pass 1  IDiag  1:
 E= -1070.56182051187     Delta-E=       -0.011281794338 Rises=F Damp=F
 DIIS: error= 6.68D-04 at cycle   6 NSaved=   6.
 NSaved= 6 IEnMin= 6 EnMin= -1070.56182051187     IErMin= 6 ErrMin= 6.68D-04
 ErrMax= 6.68D-04  0.00D+00 EMaxC= 1.00D-01 BMatC= 6.65D-05 BMatP= 1.27D-02
 IDIUse=3 WtCom= 9.93D-01 WtEn= 6.68D-03
 Coeff-Com:  0.496D-02-0.793D-02-0.158D-01-0.840D-02 0.409D-01 0.986D+00
 Coeff-En:   0.000D+00 0.000D+00 0.000D+00 0.000D+00 0.000D+00 0.100D+01
 Coeff:      0.492D-02-0.787D-02-0.157D-01-0.834D-02 0.406D-01 0.986D+00
 Gap=     0.182 Goal=   None    Shift=    0.000
 RMSDP=1.23D-04 MaxDP=1.29D-03 DE=-1.13D-02 OVMax= 7.39D-03

 Cycle   7  Pass 1  IDiag  1:
 E= -1070.56189835743     Delta-E=       -0.000077845568 Rises=F Damp=F
 DIIS: error= 1.23D-04 at cycle   7 NSaved=   7.
 NSaved= 7 IEnMin= 7 EnMin= -1070.56189835743     IErMin= 7 ErrMin= 1.23D-04
 ErrMax= 1.23D-04  0.00D+00 EMaxC= 1.00D-01 BMatC= 1.78D-06 BMatP= 6.65D-05
 IDIUse=3 WtCom= 9.99D-01 WtEn= 1.23D-03
 Coeff-Com:  0.373D-04-0.335D-03-0.104D-01-0.219D-01-0.171D-01 0.232D+00
 Coeff-Com:  0.817D+00
 Coeff-En:   0.000D+00 0.000D+00 0.000D+00 0.000D+00 0.000D+00 0.000D+00
 Coeff-En:   0.100D+01
 Coeff:      0.372D-04-0.334D-03-0.104D-01-0.219D-01-0.171D-01 0.232D+00
 Coeff:      0.818D+00
 Gap=     0.181 Goal=   None    Shift=    0.000
 RMSDP=2.52D-05 MaxDP=2.25D-04 DE=-7.78D-05 OVMax= 1.15D-03

 Cycle   8  Pass 1  IDiag  1:
 E= -1070.56190105895     Delta-E=       -0.000002701511 Rises=F Damp=F
 DIIS: error= 4.02D-05 at cycle   8 NSaved=   8.
 NSaved= 8 IEnMin= 8 EnMin= -1070.56190105895     IErMin= 8 ErrMin= 4.02D-05
 ErrMax= 4.02D-05  0.00D+00 EMaxC= 1.00D-01 BMatC= 2.28D-07 BMatP= 1.78D-06
 IDIUse=1 WtCom= 1.00D+00 WtEn= 0.00D+00
 Coeff-Com: -0.368D-04 0.866D-04-0.814D-03-0.476D-02-0.670D-02-0.426D-01
 Coeff-Com:  0.212D+00 0.843D+00
 Coeff:     -0.368D-04 0.866D-04-0.814D-03-0.476D-02-0.670D-02-0.426D-01
 Coeff:      0.212D+00 0.843D+00
 Gap=     0.181 Goal=   None    Shift=    0.000
 RMSDP=7.92D-06 MaxDP=7.28D-05 DE=-2.70D-06 OVMax= 4.76D-04

 Cycle   9  Pass 1  IDiag  1:
 E= -1070.56190137021     Delta-E=       -0.000000311262 Rises=F Damp=F
 DIIS: error= 1.12D-05 at cycle   9 NSaved=   9.
 NSaved= 9 IEnMin= 9 EnMin= -1070.56190137021     IErMin= 9 ErrMin= 1.12D-05
 ErrMax= 1.12D-05  0.00D+00 EMaxC= 1.00D-01 BMatC= 1.50D-08 BMatP= 2.28D-07
 IDIUse=1 WtCom= 1.00D+00 WtEn= 0.00D+00
 Coeff-Com: -0.249D-04 0.521D-04 0.517D-04-0.767D-03-0.180D-02-0.237D-01
 Coeff-Com:  0.414D-01 0.293D+00 0.692D+00
 Coeff:     -0.249D-04 0.521D-04 0.517D-04-0.767D-03-0.180D-02-0.237D-01
 Coeff:      0.414D-01 0.293D+00 0.692D+00
 Gap=     0.181 Goal=   None    Shift=    0.000
 RMSDP=1.58D-06 MaxDP=2.38D-05 DE=-3.11D-07 OVMax= 5.77D-05

 Cycle  10  Pass 1  IDiag  1:
 E= -1070.56190136949     Delta-E=        0.000000000716 Rises=F Damp=F
 DIIS: error= 1.52D-05 at cycle  10 NSaved=  10.
 NSaved=10 IEnMin= 9 EnMin= -1070.56190137021     IErMin= 9 ErrMin= 1.12D-05
 ErrMax= 1.52D-05  0.00D+00 EMaxC= 1.00D-01 BMatC= 2.02D-08 BMatP= 1.50D-08
 IDIUse=1 WtCom= 1.00D+00 WtEn= 0.00D+00
 Coeff-Com: -0.147D-04 0.261D-04 0.153D-03 0.221D-03-0.251D-03-0.103D-01
 Coeff-Com: -0.433D-02 0.770D-01 0.552D+00 0.386D+00
 Coeff:     -0.147D-04 0.261D-04 0.153D-03 0.221D-03-0.251D-03-0.103D-01
 Coeff:     -0.433D-02 0.770D-01 0.552D+00 0.386D+00
 Gap=     0.181 Goal=   None    Shift=    0.000
 RMSDP=7.69D-07 MaxDP=1.28D-05 DE= 7.16D-10 OVMax= 3.17D-05

 Cycle  11  Pass 1  IDiag  1:
 E= -1070.56190138365     Delta-E=       -0.000000014156 Rises=F Damp=F
 DIIS: error= 4.07D-07 at cycle  11 NSaved=  11.
 NSaved=11 IEnMin=11 EnMin= -1070.56190138365     IErMin=11 ErrMin= 4.07D-07
 ErrMax= 4.07D-07  0.00D+00 EMaxC= 1.00D-01 BMatC= 4.49D-11 BMatP= 1.50D-08
 IDIUse=1 WtCom= 1.00D+00 WtEn= 0.00D+00
 Coeff-Com:  0.309D-05-0.458D-05 0.190D-04 0.616D-04 0.318D-04-0.934D-03
 Coeff-Com: -0.222D-02 0.136D-02 0.764D-01 0.725D-01 0.853D+00
 Coeff:      0.309D-05-0.458D-05 0.190D-04 0.616D-04 0.318D-04-0.934D-03
 Coeff:     -0.222D-02 0.136D-02 0.764D-01 0.725D-01 0.853D+00
 Gap=     0.181 Goal=   None    Shift=    0.000
 RMSDP=1.08D-07 MaxDP=1.20D-06 DE=-1.42D-08 OVMax= 5.10D-06

 Cycle  12  Pass 1  IDiag  1:
 E= -1070.56190138370     Delta-E=       -0.000000000049 Rises=F Damp=F
 DIIS: error= 1.75D-07 at cycle  12 NSaved=  12.
 NSaved=12 IEnMin=12 EnMin= -1070.56190138370     IErMin=12 ErrMin= 1.75D-07
 ErrMax= 1.75D-07  0.00D+00 EMaxC= 1.00D-01 BMatC= 4.86D-12 BMatP= 4.49D-11
 IDIUse=1 WtCom= 1.00D+00 WtEn= 0.00D+00
 Coeff-Com:  0.164D-05-0.247D-05-0.384D-05-0.355D-05 0.234D-04 0.308D-03
 Coeff-Com: -0.177D-03-0.375D-02-0.110D-01-0.416D-02 0.142D+00 0.877D+00
 Coeff:      0.164D-05-0.247D-05-0.384D-05-0.355D-05 0.234D-04 0.308D-03
 Coeff:     -0.177D-03-0.375D-02-0.110D-01-0.416D-02 0.142D+00 0.877D+00
 Gap=     0.181 Goal=   None    Shift=    0.000
 RMSDP=4.38D-08 MaxDP=8.82D-07 DE=-4.89D-11 OVMax= 1.43D-06

 Cycle  13  Pass 1  IDiag  1:
 E= -1070.56190138370     Delta-E=       -0.000000000006 Rises=F Damp=F
 DIIS: error= 5.61D-08 at cycle  13 NSaved=  13.
 NSaved=13 IEnMin=13 EnMin= -1070.56190138370     IErMin=13 ErrMin= 5.61D-08
 ErrMax= 5.61D-08  0.00D+00 EMaxC= 1.00D-01 BMatC= 9.48D-13 BMatP= 4.86D-12
 IDIUse=1 WtCom= 1.00D+00 WtEn= 0.00D+00
 Coeff-Com:  0.680D-06-0.101D-05-0.329D-05-0.617D-05 0.119D-04 0.229D-03
 Coeff-Com:  0.639D-04-0.203D-02-0.102D-01-0.664D-02 0.189D-01 0.444D+00
 Coeff-Com:  0.555D+00
 Coeff:      0.680D-06-0.101D-05-0.329D-05-0.617D-05 0.119D-04 0.229D-03
 Coeff:      0.639D-04-0.203D-02-0.102D-01-0.664D-02 0.189D-01 0.444D+00
 Coeff:      0.555D+00
 Gap=     0.181 Goal=   None    Shift=    0.000
 RMSDP=1.37D-08 MaxDP=2.25D-07 DE=-6.14D-12 OVMax= 5.48D-07

 Cycle  14  Pass 1  IDiag  1:
 E= -1070.56190138371     Delta-E=       -0.000000000005 Rises=F Damp=F
 DIIS: error= 1.67D-08 at cycle  14 NSaved=  14.
 NSaved=14 IEnMin=14 EnMin= -1070.56190138371     IErMin=14 ErrMin= 1.67D-08
 ErrMax= 1.67D-08  0.00D+00 EMaxC= 1.00D-01 BMatC= 8.74D-14 BMatP= 9.48D-13
 IDIUse=1 WtCom= 1.00D+00 WtEn= 0.00D+00
 Coeff-Com:  0.137D-06-0.193D-06-0.107D-05-0.245D-05 0.326D-05 0.707D-04
 Coeff-Com:  0.486D-04-0.453D-03-0.312D-02-0.232D-02-0.827D-02 0.859D-01
 Coeff-Com:  0.259D+00 0.669D+00
 Coeff:      0.137D-06-0.193D-06-0.107D-05-0.245D-05 0.326D-05 0.707D-04
 Coeff:      0.486D-04-0.453D-03-0.312D-02-0.232D-02-0.827D-02 0.859D-01
 Coeff:      0.259D+00 0.669D+00
 Gap=     0.181 Goal=   None    Shift=    0.000
 RMSDP=4.74D-09 MaxDP=8.73D-08 DE=-5.23D-12 OVMax= 1.57D-07

 SCF Done:  E(RB971) =  -1070.56190138     A.U. after   14 cycles
            NFock= 14  Conv=0.47D-08     -V/T= 2.0021
 KE= 1.068332648527D+03 PE=-2.949639447701D+03 EE= 6.073700561482D+02
 Leave Link  502 at Mon Oct 19 21:12:22 2015, MaxMem=   524288000 cpu:        27.5
 (Enter /opt/g09/l508.exe)
 QCSCF skips out because SCF is already converged.
 Leave Link  508 at Mon Oct 19 21:12:22 2015, MaxMem=   524288000 cpu:         0.0
 (Enter /opt/g09/l801.exe)
 DoSCS=F DFT=T ScalE2(SS,OS)=  1.000000  1.000000
 Range of M.O.s used for correlation:     1   104
 NBasis=   104 NAE=    25 NBE=    25 NFC=     0 NFV=     0
 NROrb=    104 NOA=    25 NOB=    25 NVA=    79 NVB=    79

 **** Warning!!: The largest alpha MO coefficient is  0.11973622D+02

 Leave Link  801 at Mon Oct 19 21:12:22 2015, MaxMem=   524288000 cpu:         0.2
 (Enter /opt/g09/l1101.exe)
 Using compressed storage, NAtomX=     4.
 Will process      5 centers per pass.
 Leave Link 1101 at Mon Oct 19 21:12:22 2015, MaxMem=   524288000 cpu:         1.3
 (Enter /opt/g09/l1102.exe)
 Symmetrizing basis deriv contribution to polar:
 IMax=3 JMax=2 DiffMx= 0.00D+00
 Leave Link 1102 at Mon Oct 19 21:12:22 2015, MaxMem=   524288000 cpu:         0.2
 (Enter /opt/g09/l1110.exe)
 Forming Gx(P) for the SCF density, NAtomX=     4.
 Integral derivatives from FoFJK, PRISM(SPDF).
 Do as many integral derivatives as possible in FoFJK.
 G2DrvN: MDV=     524287864.
 G2DrvN: will do     5 centers at a time, making    1 passes.
 Calling FoFCou, ICntrl=  3107 FMM=F I1Cent=   0 AccDes= 0.00D+00.
 FoFJK:  IHMeth= 1 ICntrl=    3107 DoSepK=F KAlg= 0 I1Cent=   0 FoldK=F
 IRaf=         0 NMat=   1 IRICut=       1 DoRegI=T DoRafI=F ISym2E= 0.
 FoFCou: FMM=F IPFlag=           0 FMFlag=      100000 FMFlg1=           0
         NFxFlg=           0 DoJE=F BraDBF=F KetDBF=F FulRan=T
         wScrn=  0.000000 ICntrl=    3107 IOpCl=  0 I1Cent=           0 NGrid=           0
         NMat0=    1 NMatS0=      1 NMatT0=    0 NMatD0=    1 NMtDS0=    0 NMtDT0=    0
 Symmetry not used in FoFCou.
 End of G2Drv F.D. properties file   721 does not exist.
 End of G2Drv F.D. properties file   722 does not exist.
 End of G2Drv F.D. properties file   788 does not exist.
 Leave Link 1110 at Mon Oct 19 21:12:26 2015, MaxMem=   524288000 cpu:        29.3
 (Enter /opt/g09/l1002.exe)
 Minotr:  Closed shell wavefunction.
          IDoAtm=1111
          Direct CPHF calculation.
          Differentiating once with respect to electric field.
                with respect to dipole field.
          Differentiating once with respect to nuclear coordinates.
          Requested convergence is 1.0D-08 RMS, and 1.0D-07 maximum.
          Secondary convergence is 1.0D-12 RMS, and 1.0D-12 maximum.
          NewPWx=T KeepS1=F KeepF1=F KeepIn=T MapXYZ=F SortEE=F KeepMc=T.
          MDV=     524287852 using IRadAn=       1.
 Generate precomputed XC quadrature information.
 Keep R1 ints in memory in canonical form, NReq=15841025.
 FoFCou: FMM=F IPFlag=           0 FMFlag=           0 FMFlg1=           0
         NFxFlg=           0 DoJE=F BraDBF=F KetDBF=F FulRan=T
         wScrn=  0.000000 ICntrl=     600 IOpCl=  0 I1Cent=           0 NGrid=           0
         NMat0=    1 NMatS0=   5460 NMatT0=    0 NMatD0=    1 NMtDS0=    0 NMtDT0=    0
 Symmetry not used in FoFCou.
          Solving linear equations simultaneously, MaxMat=       0.
          There are    15 degrees of freedom in the 1st order CPHF.  IDoFFX=6 NUNeed=     3.
     12 vectors produced by pass  0 Test12= 1.32D-14 6.67D-09 XBig12= 1.12D+02 6.09D+00.
 AX will form    12 AO Fock derivatives at one time.
     12 vectors produced by pass  1 Test12= 1.32D-14 6.67D-09 XBig12= 3.35D+01 1.19D+00.
     12 vectors produced by pass  2 Test12= 1.32D-14 6.67D-09 XBig12= 1.77D+00 4.01D-01.
     12 vectors produced by pass  3 Test12= 1.32D-14 6.67D-09 XBig12= 6.86D-02 5.47D-02.
     12 vectors produced by pass  4 Test12= 1.32D-14 6.67D-09 XBig12= 3.45D-04 5.07D-03.
     12 vectors produced by pass  5 Test12= 1.32D-14 6.67D-09 XBig12= 1.57D-06 3.50D-04.
     12 vectors produced by pass  6 Test12= 1.32D-14 6.67D-09 XBig12= 3.35D-09 1.24D-05.
      3 vectors produced by pass  7 Test12= 1.32D-14 6.67D-09 XBig12= 4.69D-12 4.29D-07.
      2 vectors produced by pass  8 Test12= 1.32D-14 6.67D-09 XBig12= 6.69D-15 1.68D-08.
 InvSVY:  IOpt=1 It=  1 EMax= 1.33D-15
 Solved reduced A of dimension    89 with    12 vectors.
 FullF1:  Do perturbations    1 to     3.
 Isotropic polarizability for W=    0.000000       43.38 Bohr**3.
 End of Minotr F.D. properties file   721 does not exist.
 End of Minotr F.D. properties file   722 does not exist.
 End of Minotr F.D. properties file   788 does not exist.
 Leave Link 1002 at Mon Oct 19 21:12:31 2015, MaxMem=   524288000 cpu:        43.5
 (Enter /opt/g09/l701.exe)
 Compute integral second derivatives.
 ... and contract with generalized density number  0.
 Leave Link  701 at Mon Oct 19 21:12:32 2015, MaxMem=   524288000 cpu:         2.1
 (Enter /opt/g09/l702.exe)
 L702 exits ... SP integral derivatives will be done elsewhere.
 Leave Link  702 at Mon Oct 19 21:12:32 2015, MaxMem=   524288000 cpu:         0.2
 (Enter /opt/g09/l703.exe)
 Compute integral second derivatives, UseDBF=F ICtDFT=           0.
 Integral derivatives from FoFJK, PRISM(SPDF).
 Calling FoFJK, ICntrl=    100127 FMM=F ISym2X=0 I1Cent= 0 IOpClX= 0 NMat=1 NMatS=1 NMatT=0.
 FoFJK:  IHMeth= 1 ICntrl=  100127 DoSepK=F KAlg= 0 I1Cent=   0 FoldK=F
 IRaf=         0 NMat=   1 IRICut=       1 DoRegI=T DoRafI=F ISym2E= 0.
 FoFCou: FMM=F IPFlag=           0 FMFlag=      100000 FMFlg1=         800
         NFxFlg=           0 DoJE=F BraDBF=F KetDBF=F FulRan=T
         wScrn=  0.000000 ICntrl=  100127 IOpCl=  0 I1Cent=           0 NGrid=           0
         NMat0=    1 NMatS0=      1 NMatT0=    0 NMatD0=    1 NMtDS0=    0 NMtDT0=    0
 Symmetry not used in FoFCou.
 Leave Link  703 at Mon Oct 19 21:12:41 2015, MaxMem=   524288000 cpu:        72.7
 (Enter /opt/g09/l716.exe)
 Dipole        = 1.09704690D-05-1.53583205D-01 2.81998831D-07
 Polarizability= 7.15426425D+01 1.21696608D-04 3.41704364D+01
                -1.89521333D+00-1.36861991D-05 2.44373383D+01
 -------------------------------------------------------------------
 Center     Atomic                   Forces (Hartrees/Bohr)
 Number     Number              X              Y              Z
 -------------------------------------------------------------------
      1       17           0.000000310    0.000000396    0.000003284
      2        8           0.000000008   -0.000000016    0.000000959
      3        8          -0.000001260    0.000000148   -0.000000863
      4       17           0.000000942   -0.000000528   -0.000003380
 -------------------------------------------------------------------
 Cartesian Forces:  Max     0.000003380 RMS     0.000001497
 Force constants in Cartesian coordinates: 
                1             2             3             4             5 
      1  0.676002D-01
      2  0.486727D-01  0.568806D-01
      3 -0.821562D-02 -0.213395D-01  0.225837D-01
      4 -0.601633D-02 -0.949262D-02  0.116089D-01  0.184698D+00
      5 -0.286141D-01 -0.602078D-01  0.409169D-01 -0.105667D-01  0.119309D+00
      6  0.394277D-01  0.562532D-01 -0.441206D-01  0.822647D-01 -0.758308D-01
      7 -0.604296D-01 -0.395993D-01 -0.645988D-02 -0.118252D+00  0.195407D-01
      8 -0.196395D-01 -0.228946D-02 -0.195801D-01 -0.195406D-01 -0.568115D-01
      9 -0.342787D-01 -0.349110D-01  0.232382D-01 -0.874135D-01  0.153335D-01
     10 -0.115425D-02  0.419179D-03  0.306661D-02 -0.604305D-01  0.196401D-01
     11 -0.419148D-03  0.561664D-02  0.267570D-05  0.396000D-01 -0.228952D-02
     12  0.306663D-02 -0.265305D-05 -0.170127D-02 -0.646010D-02  0.195803D-01
                6             7             8             9            10 
      6  0.187676D+00
      7 -0.874136D-01  0.184699D+00
      8 -0.153336D-01  0.105646D-01  0.119311D+00
      9 -0.166793D+00  0.822641D-01  0.758316D-01  0.187676D+00
     10 -0.342788D-01 -0.601745D-02  0.286156D-01  0.394281D-01  0.676022D-01
     11  0.349113D-01  0.949403D-02 -0.602097D-01 -0.562541D-01 -0.486749D-01
     12  0.232384D-01  0.116094D-01 -0.409178D-01 -0.441208D-01 -0.821595D-02
               11            12 
     11  0.568825D-01
     12  0.213402D-01  0.225837D-01
 FormGI is forming the generalized inverse of G from B-inverse, IUseBI=4.
 Force constants in internal coordinates: 
                1             2             3             4             5 
      1  0.115510D+00
      2  0.848858D-01  0.316758D+00
      3  0.393903D-02  0.848867D-01  0.115514D+00
      4  0.144378D-01  0.524443D-01 -0.766397D-02  0.308904D+00
      5 -0.766406D-02  0.524458D-01  0.144390D-01 -0.844835D-02  0.308908D+00
      6 -0.106086D-02  0.472932D-02 -0.106094D-02  0.806379D-02  0.806397D-02
                6 
      6  0.524867D-01
 Leave Link  716 at Mon Oct 19 21:12:41 2015, MaxMem=   524288000 cpu:         0.3
 (Enter /opt/g09/l103.exe)

 GradGradGradGradGradGradGradGradGradGradGradGradGradGradGradGradGradGrad
 Berny optimization.
 Red2BG is reusing G-inverse.
 Internal  Forces:  Max     0.000001163 RMS     0.000000838
 Search for a local minimum.
 Step number   1 out of a maximum of  100
 All quantities printed in internal units (Hartrees-Bohrs-Radians)
 RMS Force = .83787D-06 SwitMx=.10000D-02 MixMth= 2
 Mixed Optimization -- En-DIIS/RFO-DIIS
 Second derivative matrix not updated -- analytic derivatives used.
 The second derivative matrix:
                          R1        R2        R3        A1        A2
           R1           0.11551
           R2           0.08489   0.31676
           R3           0.00394   0.08489   0.11551
           A1           0.01444   0.05244  -0.00766   0.30890
           A2          -0.00766   0.05245   0.01444  -0.00845   0.30891
           D1          -0.00106   0.00473  -0.00106   0.00806   0.00806
                          D1
           D1           0.05249
 ITU=  0
     Eigenvalues ---    0.05139   0.06037   0.10923   0.26078   0.31970
     Eigenvalues ---    0.41661
 RFO step:  Lambda= 0.00000000D+00 EMin= 5.13883733D-02
 Linear search not attempted -- first point.
 Iteration  1 RMS(Cart)=  0.00001437 RMS(Int)=  0.00000000
 Iteration  2 RMS(Cart)=  0.00000000 RMS(Int)=  0.00000000
 ITry= 1 IFail=0 DXMaxC= 2.33D-05 DCOld= 1.00D+10 DXMaxT= 2.56D+00 DXLimC= 3.00D+00 Rises=F
 Variable       Old X    -DE/DX   Delta X   Delta X   Delta X     New X
                                 (Linear)    (Quad)   (Total)
    R1        3.42785   0.00000   0.00000   0.00000   0.00000   3.42785
    R2        2.48493   0.00000   0.00000  -0.00001  -0.00001   2.48492
    R3        3.42784   0.00000   0.00000   0.00002   0.00002   3.42785
    A1        1.96579   0.00000   0.00000   0.00000   0.00000   1.96579
    A2        1.96578   0.00000   0.00000   0.00000   0.00000   1.96579
    D1        1.48538   0.00000   0.00000   0.00002   0.00002   1.48540
         Item               Value     Threshold  Converged?
 Maximum Force            0.000001     0.000015     YES
 RMS     Force            0.000001     0.000010     YES
 Maximum Displacement     0.000023     0.000060     YES
 RMS     Displacement     0.000014     0.000040     YES
 Predicted change in Energy=-2.418771D-11
 Optimization completed.
    -- Stationary point found.
                           ----------------------------
                           !   Optimized Parameters   !
                           ! (Angstroms and Degrees)  !
 --------------------------                            --------------------------
 ! Name  Definition              Value          Derivative Info.                !
 --------------------------------------------------------------------------------
 ! R1    R(1,2)                  1.8139         -DE/DX =    0.0                 !
 ! R2    R(2,3)                  1.315          -DE/DX =    0.0                 !
 ! R3    R(3,4)                  1.8139         -DE/DX =    0.0                 !
 ! A1    A(1,2,3)              112.6313         -DE/DX =    0.0                 !
 ! A2    A(2,3,4)              112.6311         -DE/DX =    0.0                 !
 ! D1    D(1,2,3,4)             85.106          -DE/DX =    0.0                 !
 --------------------------------------------------------------------------------
 Lowest energy point so far.  Saving SCF results.
 GradGradGradGradGradGradGradGradGradGradGradGradGradGradGradGradGradGrad

 Largest change from initial coordinates is atom    0       0.000 Angstoms.
 Leave Link  103 at Mon Oct 19 21:12:41 2015, MaxMem=   524288000 cpu:         0.1
 (Enter /opt/g09/l202.exe)
                          Input orientation:                          
 ---------------------------------------------------------------------
 Center     Atomic      Atomic             Coordinates (Angstroms)
 Number     Number       Type             X           Y           Z
 ---------------------------------------------------------------------
      1         17           0       -1.765280   -0.394670    0.055930
      2          8           0       -0.517690    0.838680   -0.405310
      3          8           0        0.517700    0.838680    0.405310
      4         17           0        1.765280   -0.394670   -0.055930
 ---------------------------------------------------------------------
                    Distance matrix (angstroms):
                    1          2          3          4
     1  Cl   0.000000
     2  O    1.813939   0.000000
     3  O    2.618247   1.314967   0.000000
     4  Cl   3.532332   2.618238   1.813932   0.000000
 Symmetry turned off by external request.
 Stoichiometry    Cl2O2
 Framework group  C1[X(Cl2O2)]
 Deg. of freedom     6
 Full point group                 C1      NOp   1
 Rotational constants (GHZ):     13.0041652      2.1784677      1.9444863
 Leave Link  202 at Mon Oct 19 21:12:41 2015, MaxMem=   524288000 cpu:         0.1
 (Enter /opt/g09/l716.exe)
 Dipole        = 1.09704690D-05-1.53583205D-01 2.81998831D-07
 Polarizability= 7.15426425D+01 1.21696608D-04 3.41704364D+01
                -1.89521333D+00-1.36861991D-05 2.44373383D+01
 Full mass-weighted force constant matrix:
 Low frequencies ---   -5.3950   -0.0022    0.0013    0.0050    3.5569    8.7022
 Low frequencies ---  128.6284  313.1080  420.3574
 Diagonal vibrational polarizability:
       12.1705544       7.9796730       0.0515382
 Harmonic frequencies (cm**-1), IR intensities (KM/Mole), Raman scattering
 activities (A**4/AMU), depolarization ratios for plane and unpolarized
 incident light, reduced masses (AMU), force constants (mDyne/A),
 and normal coordinates:
                      1                      2                      3
                      A                      A                      A
 Frequencies --    128.6284               313.1080               420.3573
 Red. masses --     29.1317                20.6316                19.8949
 Frc consts  --      0.2840                 1.1917                 2.0712
 IR Inten    --      0.6158                 8.2098                45.2795
  Atom  AN      X      Y      Z        X      Y      Z        X      Y      Z
     1  17     0.56  -0.17  -0.03     0.26   0.24   0.04    -0.27  -0.17  -0.02
     2   8    -0.08   0.38   0.06     0.08  -0.51  -0.33     0.60  -0.19   0.05
     3   8     0.08   0.38  -0.06    -0.08  -0.51   0.33     0.60   0.19   0.05
     4  17    -0.56  -0.17   0.03    -0.25   0.23  -0.04    -0.27   0.17  -0.02
                      4                      5                      6
                      A                      A                      A
 Frequencies --    550.1146               602.6777               943.2196
 Red. masses --     16.7842                17.0351                16.3634
 Frc consts  --      2.9927                 3.6456                 8.5773
 IR Inten    --     33.1044                71.8861                58.8656
  Atom  AN      X      Y      Z        X      Y      Z        X      Y      Z
     1  17    -0.03  -0.09   0.11    -0.05  -0.12   0.10     0.07   0.07  -0.03
     2   8     0.56   0.20  -0.35     0.11   0.64  -0.22     0.43  -0.15   0.54
     3   8    -0.56   0.20   0.35     0.11  -0.64  -0.22    -0.43  -0.15  -0.54
     4  17     0.03  -0.09  -0.11    -0.05   0.12   0.10    -0.07   0.07   0.03

 -------------------
 - Thermochemistry -
 -------------------
 Temperature   298.150 Kelvin.  Pressure   1.00000 Atm.
 Atom     1 has atomic number 17 and mass  34.96885
 Atom     2 has atomic number  8 and mass  15.99491
 Atom     3 has atomic number  8 and mass  15.99491
 Atom     4 has atomic number 17 and mass  34.96885
 Molecular mass:   101.92753 amu.
 Principal axes and moments of inertia in atomic units:
                           1         2         3
     Eigenvalues --   138.78178 828.44526 928.13262
           X            1.00000   0.00000   0.00087
           Y            0.00000   1.00000   0.00000
           Z           -0.00087   0.00000   1.00000
 This molecule is an asymmetric top.
 Rotational symmetry number  1.
 Rotational temperatures (Kelvin)      0.62410     0.10455     0.09332
 Rotational constants (GHZ):          13.00417     2.17847     1.94449
 Zero-point vibrational energy      17693.4 (Joules/Mol)
                                    4.22882 (Kcal/Mol)
 Warning -- explicit consideration of   5 degrees of freedom as
           vibrations may cause significant error
 Vibrational temperatures:    185.07   450.49   604.80   791.49   867.12
          (Kelvin)           1357.08
 
 Zero-point correction=                           0.006739 (Hartree/Particle)
 Thermal correction to Energy=                    0.011341
 Thermal correction to Enthalpy=                  0.012285
 Thermal correction to Gibbs Free Energy=        -0.022046
 Sum of electronic and zero-point Energies=          -1070.555162
 Sum of electronic and thermal Energies=             -1070.550560
 Sum of electronic and thermal Enthalpies=           -1070.549616
 Sum of electronic and thermal Free Energies=        -1070.583947
 
                     E (Thermal)             CV                S
                      KCal/Mol        Cal/Mol-Kelvin    Cal/Mol-Kelvin
 Total                    7.117             13.570             72.255
 Electronic               0.000              0.000              0.000
 Translational            0.889              2.981             39.775
 Rotational               0.889              2.981             26.170
 Vibrational              5.339              7.608              6.310
 Vibration     1          0.611              1.925              2.966
 Vibration     2          0.701              1.649              1.346
 Vibration     3          0.783              1.426              0.891
 Vibration     4          0.905              1.139              0.544
 Vibration     5          0.961              1.026              0.445
                       Q            Log10(Q)             Ln(Q)
 Total Bot       0.138109D+11         10.140221         23.348723
 Total V=0       0.173767D+14         13.239968         30.486152
 Vib (Bot)       0.291998D-02         -2.534621         -5.836180
 Vib (Bot)    1  0.158546D+01          0.200155          0.460874
 Vib (Bot)    2  0.602829D+00         -0.219806         -0.506121
 Vib (Bot)    3  0.417601D+00         -0.379239         -0.873230
 Vib (Bot)    4  0.285241D+00         -0.544788         -1.254421
 Vib (Bot)    5  0.247078D+00         -0.607166         -1.398051
 Vib (V=0)       0.367388D+01          0.565125          1.301249
 Vib (V=0)    1  0.216243D+01          0.334942          0.771234
 Vib (V=0)    2  0.128320D+01          0.108295          0.249357
 Vib (V=0)    3  0.115145D+01          0.061246          0.141024
 Vib (V=0)    4  0.107564D+01          0.031667          0.072917
 Vib (V=0)    5  0.105772D+01          0.024369          0.056112
 Electronic      0.100000D+01          0.000000          0.000000
 Translational   0.404476D+08          7.606892         17.515517
 Rotational      0.116936D+06          5.067950         11.669385
 
                                                        ./00_00fine-ClOOCl.g09
                                                             IR Spectrum
 
                                                                                                                                     
     9                                             6      5                 4             3                        1                 
     4                                             0      5                 2             1                        2                 
     3                                             3      0                 0             3                        9                 
 
     X                                             X      X                 X             X                        X                 
     X                                             X      X                 X             X                                          
     X                                             X      X                 X                                                        
     X                                             X      X                 X                                                        
     X                                             X      X                 X                                                        
     X                                             X      X                 X                                                        
     X                                             X      X                 X                                                        
     X                                             X      X                 X                                                        
     X                                             X      X                 X                                                        
     X                                             X                        X                                                        
     X                                             X                        X                                                        
     X                                             X                        X                                                        
     X                                             X                        X                                                        
     X                                             X                                                                                 
     X                                             X                                                                                 
     X                                             X                                                                                 
                                                   X                                                                                 
                                                   X                                                                                 
                                                   X                                                                                 
                                                   X                                                                                 
 
 -------------------------------------------------------------------
 Center     Atomic                   Forces (Hartrees/Bohr)
 Number     Number              X              Y              Z
 -------------------------------------------------------------------
      1       17           0.000000310    0.000000396    0.000003284
      2        8           0.000000008   -0.000000016    0.000000959
      3        8          -0.000001260    0.000000148   -0.000000863
      4       17           0.000000942   -0.000000528   -0.000003380
 -------------------------------------------------------------------
 Cartesian Forces:  Max     0.000003380 RMS     0.000001497
 Force constants in Cartesian coordinates: 
                1             2             3             4             5 
      1  0.676002D-01
      2  0.486727D-01  0.568806D-01
      3 -0.821562D-02 -0.213395D-01  0.225837D-01
      4 -0.601633D-02 -0.949262D-02  0.116089D-01  0.184698D+00
      5 -0.286141D-01 -0.602078D-01  0.409169D-01 -0.105667D-01  0.119309D+00
      6  0.394277D-01  0.562532D-01 -0.441206D-01  0.822647D-01 -0.758308D-01
      7 -0.604296D-01 -0.395993D-01 -0.645988D-02 -0.118252D+00  0.195407D-01
      8 -0.196395D-01 -0.228946D-02 -0.195801D-01 -0.195406D-01 -0.568115D-01
      9 -0.342787D-01 -0.349110D-01  0.232382D-01 -0.874135D-01  0.153335D-01
     10 -0.115425D-02  0.419179D-03  0.306661D-02 -0.604305D-01  0.196401D-01
     11 -0.419148D-03  0.561664D-02  0.267570D-05  0.396000D-01 -0.228952D-02
     12  0.306663D-02 -0.265305D-05 -0.170127D-02 -0.646010D-02  0.195803D-01
                6             7             8             9            10 
      6  0.187676D+00
      7 -0.874136D-01  0.184699D+00
      8 -0.153336D-01  0.105646D-01  0.119311D+00
      9 -0.166793D+00  0.822641D-01  0.758316D-01  0.187676D+00
     10 -0.342788D-01 -0.601745D-02  0.286156D-01  0.394281D-01  0.676022D-01
     11  0.349113D-01  0.949403D-02 -0.602097D-01 -0.562541D-01 -0.486749D-01
     12  0.232384D-01  0.116094D-01 -0.409178D-01 -0.441208D-01 -0.821595D-02
               11            12 
     11  0.568825D-01
     12  0.213402D-01  0.225837D-01
 Red2BG is reusing G-inverse.
 Force constants in internal coordinates: 
                1             2             3             4             5 
      1  0.115510D+00
      2  0.848858D-01  0.316758D+00
      3  0.393903D-02  0.848867D-01  0.115514D+00
      4  0.144378D-01  0.524443D-01 -0.766397D-02  0.308904D+00
      5 -0.766406D-02  0.524458D-01  0.144390D-01 -0.844835D-02  0.308908D+00
      6 -0.106086D-02  0.472932D-02 -0.106094D-02  0.806379D-02  0.806397D-02
                6 
      6  0.524867D-01
 Leave Link  716 at Mon Oct 19 21:12:41 2015, MaxMem=   524288000 cpu:         0.2
 (Enter /opt/g09/l9999.exe)
 1\1\GINC-CONSTABLE\Freq\RB971\6-311+G(d,p)\Cl2O2\PB556\19-Oct-2015\0\\
 #p rB971/6-311+G(d,p) Opt=(Tight, CalcAll, MaxCycles=512, MaxStep=256)
  Freq GFInput Population=None Integral(Grid=UltraFine) SCF=XQC Guess=M
 IX NoSymmetry\\./00_00fine-ClOOCl.g09\\0,1\Cl,-1.76528,-0.39467,0.0559
 3\O,-0.51769,0.83868,-0.40531\O,0.5177,0.83868,0.40531\Cl,1.76528,-0.3
 9467,-0.05593\\Version=ES64L-G09RevD.01\HF=-1070.5619014\RMSD=4.744e-0
 9\RMSF=1.497e-06\ZeroPoint=0.0067391\Thermal=0.0113409\Dipole=0.000011
 ,-0.1535832,0.0000003\DipoleDeriv=-0.5715182,-0.1796825,-0.0154577,-0.
 5753422,-0.1399223,0.0109118,0.1976216,0.0804274,0.0081576,0.5715264,0
 .8012117,0.0154588,0.5219195,0.1399204,-0.0740186,-0.1976122,0.3723977
 ,-0.008159,0.5715023,-0.8012115,0.0154572,-0.5219193,0.1399222,0.07401
 81,-0.1976322,-0.3723973,-0.0081591,-0.5715105,0.1796823,-0.0154582,0.
 5753421,-0.1399203,-0.0109114,0.1976228,-0.0804277,0.0081606\Polar=71.
 5426425,0.0001217,34.1704364,-1.8952133,-0.0000137,24.4373383\PG=C01 [
 X(Cl2O2)]\NImag=0\\0.06760023,0.04867273,0.05688057,-0.00821562,-0.021
 33946,0.02258366,-0.00601633,-0.00949262,0.01160889,0.18469848,-0.0286
 1408,-0.06020775,0.04091691,-0.01056673,0.11930880,0.03942768,0.056253
 16,-0.04412063,0.08226471,-0.07583078,0.18767564,-0.06042965,-0.039599
 29,-0.00645988,-0.11825167,0.01954070,-0.08741363,0.18469877,-0.019639
 50,-0.00228946,-0.01958012,-0.01954061,-0.05681152,-0.01533364,0.01056
 456,0.11931065,-0.03427869,-0.03491105,0.02323824,-0.08741350,0.015333
 54,-0.16679338,0.08226409,0.07583160,0.18767593,-0.00115425,0.00041918
 ,0.00306661,-0.06043047,0.01964012,-0.03427876,-0.00601745,0.02861555,
 0.03942810,0.06760216,-0.00041915,0.00561664,0.00000268,0.03959997,-0.
 00228952,0.03491126,0.00949403,-0.06020967,-0.05625409,-0.04867485,0.0
 5688255,0.00306663,-0.00000265,-0.00170127,-0.00646010,0.01958033,0.02
 323837,0.01160942,-0.04091783,-0.04412078,-0.00821595,0.02134015,0.022
 58368\\-0.00000031,-0.00000040,-0.00000328,0.,0.00000002,-0.00000096,0
 .00000126,-0.00000015,0.00000086,-0.00000094,0.00000053,0.00000338\\\@


 CHARLIE BROWN -- WHICH DO YOU THINK LASTS LONGER IN LIFE, THE GOOD THINGS 
                  OR THE BAD THINGS?
 LINUS --         GOOD THINGS LAST EIGHT SECONDS ..
                  BAD THINGS LAST THREE WEEKS
 CHARLIE BROWN -- WHAT ABOUT IN BETWEEN?
 SNOOPY --        IN BETWEEN YOU SHOULD TAKE A NAP ...
 Leave Link 9999 at Mon Oct 19 21:12:41 2015, MaxMem=   524288000 cpu:         0.2
 Job cpu time:       0 days  0 hours  3 minutes  4.3 seconds.
 File lengths (MBytes):  RWF=     11 Int=      0 D2E=      0 Chk=      2 Scr=      1
 Normal termination of Gaussian 09 at Mon Oct 19 21:12:41 2015.
 (Enter /opt/g09/l1.exe)
 Link1:  Proceeding to internal job step number  2.
 ----------------------------------------------------------------------
 #P Geom=AllCheck Guess=TCheck SCRF=Check GenChk RB971/6-311+G(d,p) Fre
 q
 ----------------------------------------------------------------------
 1/6=512,7=10,8=256,10=4,29=7,30=1,38=1,40=1/1,3;
 2/12=2,15=1,40=1/2;
 3/5=4,6=6,7=111,11=2,14=-4,16=1,24=10,25=1,30=1,70=2,71=2,74=-20,75=-5,116=1,140=1/1,2,3;
 4/5=101/1;
 5/5=2,8=3,13=1,98=1/2,8;
 8/6=4,10=90,11=11/1;
 11/6=1,8=1,9=11,15=111,16=1,31=1/1,2,10;
 10/6=1,31=1/2;
 7/8=1,10=1,25=1,30=1/1,2,3,16;
 1/6=512,7=10,8=256,10=4,30=1/3;
 99//99;
 Leave Link    1 at Mon Oct 19 21:12:41 2015, MaxMem=   524288000 cpu:         0.3
 (Enter /opt/g09/l101.exe)
 Structure from the checkpoint file:  "/scratch/pb556/g09_run/ti_runs//Gau-17588.chk"
 ----------------------
 ./00_00fine-ClOOCl.g09
 ----------------------
 Charge =  0 Multiplicity = 1
 Redundant internal coordinates found in file.
 Cl,0,-1.76528,-0.39467,0.05593
 O,0,-0.51769,0.83868,-0.40531
 O,0,0.5177,0.83868,0.40531
 Cl,0,1.76528,-0.39467,-0.05593
 Recover connectivity data from disk.
 NAtoms=      4 NQM=        4 NQMF=       0 NMMI=      0 NMMIF=      0
                NMic=       0 NMicF=      0.
                    Isotopes and Nuclear Properties:
 (Nuclear quadrupole moments (NQMom) in fm**2, nuclear magnetic moments (NMagM)
  in nuclear magnetons)

  Atom         1           2           3           4
 IAtWgt=          35          16          16          35
 AtmWgt=  34.9688527  15.9949146  15.9949146  34.9688527
 NucSpn=           3           0           0           3
 AtZEff= -14.2400000  -5.6000000  -5.6000000 -14.2400000
 NQMom=   -8.1650000   0.0000000   0.0000000  -8.1650000
 NMagM=    0.8218740   0.0000000   0.0000000   0.8218740
 AtZNuc=  17.0000000   8.0000000   8.0000000  17.0000000
 Leave Link  101 at Mon Oct 19 21:12:41 2015, MaxMem=   524288000 cpu:         1.3
 (Enter /opt/g09/l103.exe)

 GradGradGradGradGradGradGradGradGradGradGradGradGradGradGradGradGradGrad
 Berny optimization.
 Initialization pass.
                           ----------------------------
                           !    Initial Parameters    !
                           ! (Angstroms and Degrees)  !
 --------------------------                            --------------------------
 ! Name  Definition              Value          Derivative Info.                !
 --------------------------------------------------------------------------------
 ! R1    R(1,2)                  1.8139         calculate D2E/DX2 analytically  !
 ! R2    R(2,3)                  1.315          calculate D2E/DX2 analytically  !
 ! R3    R(3,4)                  1.8139         calculate D2E/DX2 analytically  !
 ! A1    A(1,2,3)              112.6313         calculate D2E/DX2 analytically  !
 ! A2    A(2,3,4)              112.6311         calculate D2E/DX2 analytically  !
 ! D1    D(1,2,3,4)             85.106          calculate D2E/DX2 analytically  !
 --------------------------------------------------------------------------------
 Trust Radius=2.56D+00 FncErr=1.00D-07 GrdErr=1.00D-07
 Number of steps in this run=      2 maximum allowed number of steps=      2.
 GradGradGradGradGradGradGradGradGradGradGradGradGradGradGradGradGradGrad

 Leave Link  103 at Mon Oct 19 21:12:41 2015, MaxMem=   524288000 cpu:         0.1
 (Enter /opt/g09/l202.exe)
                          Input orientation:                          
 ---------------------------------------------------------------------
 Center     Atomic      Atomic             Coordinates (Angstroms)
 Number     Number       Type             X           Y           Z
 ---------------------------------------------------------------------
      1         17           0       -1.765280   -0.394670    0.055930
      2          8           0       -0.517690    0.838680   -0.405310
      3          8           0        0.517700    0.838680    0.405310
      4         17           0        1.765280   -0.394670   -0.055930
 ---------------------------------------------------------------------
                    Distance matrix (angstroms):
                    1          2          3          4
     1  Cl   0.000000
     2  O    1.813939   0.000000
     3  O    2.618247   1.314967   0.000000
     4  Cl   3.532332   2.618238   1.813932   0.000000
 Symmetry turned off by external request.
 Stoichiometry    Cl2O2
 Framework group  C1[X(Cl2O2)]
 Deg. of freedom     6
 Full point group                 C1      NOp   1
 Rotational constants (GHZ):     13.0041652      2.1784677      1.9444863
 Leave Link  202 at Mon Oct 19 21:12:41 2015, MaxMem=   524288000 cpu:         0.1
 (Enter /opt/g09/l301.exe)
 Standard basis: 6-311+G(d,p) (5D, 7F)
 Ernie: Thresh=  0.10000D-02 Tol=  0.10000D-05 Strict=F.
 AO basis set in the form of general basis input (Overlap normalization):
      1 0
 S   6 1.00       0.000000000000
      0.1058190000D+06  0.7380002465D-03
      0.1587200000D+05  0.5718001910D-02
      0.3619650000D+04  0.2949500985D-01
      0.1030800000D+04  0.1172860392D+00
      0.3399080000D+03  0.3629491212D+00
      0.1245380000D+03  0.5841491951D+00
 S   3 1.00       0.000000000000
      0.1245380000D+03  0.1341769734D+00
      0.4951350000D+02  0.6242498762D+00
      0.2080560000D+02  0.2917559421D+00
 S   1 1.00       0.000000000000
      0.6583460000D+01  0.1000000000D+01
 S   1 1.00       0.000000000000
      0.2564680000D+01  0.1000000000D+01
 S   1 1.00       0.000000000000
      0.5597630000D+00  0.1000000000D+01
 S   1 1.00       0.000000000000
      0.1832730000D+00  0.1000000000D+01
 SP   1 1.00       0.000000000000
      0.4830000000D-01  0.1000000000D+01  0.1000000000D+01
 P   5 1.00       0.000000000000
      0.5897760000D+03  0.3665569355D-02
      0.1398490000D+03  0.2836791942D-01
      0.4514130000D+02  0.1247566028D+00
      0.1687330000D+02  0.3396546305D+00
      0.2771520000D+01  0.7475859630D+00
 P   2 1.00       0.000000000000
      0.6741100000D+01 -0.1572243813D+01
      0.2771520000D+01  0.9923888817D+00
 P   1 1.00       0.000000000000
      0.1023870000D+01  0.1000000000D+01
 P   1 1.00       0.000000000000
      0.3813680000D+00  0.1000000000D+01
 P   1 1.00       0.000000000000
      0.1094370000D+00  0.1000000000D+01
 D   1 1.00       0.000000000000
      0.7500000000D+00  0.1000000000D+01
 ****
      2 0
 S   6 1.00       0.000000000000
      0.8588500000D+04  0.1895150083D-02
      0.1297230000D+04  0.1438590063D-01
      0.2992960000D+03  0.7073200310D-01
      0.8737710000D+02  0.2400010105D+00
      0.2567890000D+02  0.5947970261D+00
      0.3740040000D+01  0.2808020123D+00
 SP   3 1.00       0.000000000000
      0.4211750000D+02  0.1138890124D+00  0.3651139738D-01
      0.9628370000D+01  0.9208111006D+00  0.2371529830D+00
      0.2853320000D+01 -0.3274470358D-02  0.8197019412D+00
 SP   1 1.00       0.000000000000
      0.9056610000D+00  0.1000000000D+01  0.1000000000D+01
 SP   1 1.00       0.000000000000
      0.2556110000D+00  0.1000000000D+01  0.1000000000D+01
 SP   1 1.00       0.000000000000
      0.8450000000D-01  0.1000000000D+01  0.1000000000D+01
 D   1 1.00       0.000000000000
      0.1292000000D+01  0.1000000000D+01
 ****
      3 0
 S   6 1.00       0.000000000000
      0.8588500000D+04  0.1895150083D-02
      0.1297230000D+04  0.1438590063D-01
      0.2992960000D+03  0.7073200310D-01
      0.8737710000D+02  0.2400010105D+00
      0.2567890000D+02  0.5947970261D+00
      0.3740040000D+01  0.2808020123D+00
 SP   3 1.00       0.000000000000
      0.4211750000D+02  0.1138890124D+00  0.3651139738D-01
      0.9628370000D+01  0.9208111006D+00  0.2371529830D+00
      0.2853320000D+01 -0.3274470358D-02  0.8197019412D+00
 SP   1 1.00       0.000000000000
      0.9056610000D+00  0.1000000000D+01  0.1000000000D+01
 SP   1 1.00       0.000000000000
      0.2556110000D+00  0.1000000000D+01  0.1000000000D+01
 SP   1 1.00       0.000000000000
      0.8450000000D-01  0.1000000000D+01  0.1000000000D+01
 D   1 1.00       0.000000000000
      0.1292000000D+01  0.1000000000D+01
 ****
      4 0
 S   6 1.00       0.000000000000
      0.1058190000D+06  0.7380002465D-03
      0.1587200000D+05  0.5718001910D-02
      0.3619650000D+04  0.2949500985D-01
      0.1030800000D+04  0.1172860392D+00
      0.3399080000D+03  0.3629491212D+00
      0.1245380000D+03  0.5841491951D+00
 S   3 1.00       0.000000000000
      0.1245380000D+03  0.1341769734D+00
      0.4951350000D+02  0.6242498762D+00
      0.2080560000D+02  0.2917559421D+00
 S   1 1.00       0.000000000000
      0.6583460000D+01  0.1000000000D+01
 S   1 1.00       0.000000000000
      0.2564680000D+01  0.1000000000D+01
 S   1 1.00       0.000000000000
      0.5597630000D+00  0.1000000000D+01
 S   1 1.00       0.000000000000
      0.1832730000D+00  0.1000000000D+01
 SP   1 1.00       0.000000000000
      0.4830000000D-01  0.1000000000D+01  0.1000000000D+01
 P   5 1.00       0.000000000000
      0.5897760000D+03  0.3665569355D-02
      0.1398490000D+03  0.2836791942D-01
      0.4514130000D+02  0.1247566028D+00
      0.1687330000D+02  0.3396546305D+00
      0.2771520000D+01  0.7475859630D+00
 P   2 1.00       0.000000000000
      0.6741100000D+01 -0.1572243813D+01
      0.2771520000D+01  0.9923888817D+00
 P   1 1.00       0.000000000000
      0.1023870000D+01  0.1000000000D+01
 P   1 1.00       0.000000000000
      0.3813680000D+00  0.1000000000D+01
 P   1 1.00       0.000000000000
      0.1094370000D+00  0.1000000000D+01
 D   1 1.00       0.000000000000
      0.7500000000D+00  0.1000000000D+01
 ****

   104 basis functions,   178 primitive gaussians,   108 cartesian basis functions
    25 alpha electrons       25 beta electrons
       nuclear repulsion energy       203.3748416421 Hartrees.
 IExCor= 1614 DFT=T Ex+Corr=B971 ExCW=0 ScaHFX=  0.210000
 ScaDFX=  1.000000  1.000000  1.000000  1.000000 ScalE2=  1.000000  1.000000
 IRadAn=      5 IRanWt=     -1 IRanGd=            0 ICorTp=0 IEmpDi=  4
 NAtoms=    4 NActive=    4 NUniq=    4 SFac= 1.00D+00 NAtFMM=   60 NAOKFM=F Big=F
 Integral buffers will be    131072 words long.
 Raffenetti 2 integral format.
 Two-electron integral symmetry is turned off.
 Leave Link  301 at Mon Oct 19 21:12:41 2015, MaxMem=   524288000 cpu:         0.4
 (Enter /opt/g09/l302.exe)
 NPDir=0 NMtPBC=     1 NCelOv=     1 NCel=       1 NClECP=     1 NCelD=      1
         NCelK=      1 NCelE2=     1 NClLst=     1 CellRange=     0.0.
 One-electron integrals computed using PRISM.
 NBasis=   104 RedAO= T EigKep=  9.09D-04  NBF=   104
 NBsUse=   104 1.00D-06 EigRej= -1.00D+00 NBFU=   104
 Precomputing XC quadrature grid using
 IXCGrd= 4 IRadAn=           5 IRanWt=          -1 IRanGd=           0 AccXCQ= 0.00D+00.
 Generated NRdTot=       0 NPtTot=           0 NUsed=           0 NTot=          32
 NSgBfM=   106   106   106   106   106 MxSgAt=     4 MxSgA2=     4.
 Leave Link  302 at Mon Oct 19 21:12:42 2015, MaxMem=   524288000 cpu:         1.2
 (Enter /opt/g09/l303.exe)
 DipDrv:  MaxL=1.
 Leave Link  303 at Mon Oct 19 21:12:42 2015, MaxMem=   524288000 cpu:         0.2
 (Enter /opt/g09/l401.exe)
 Initial guess from the checkpoint file:  "/scratch/pb556/g09_run/ti_runs//Gau-17588.chk"
 B after Tr=     0.000000    0.000000    0.000000
         Rot=    1.000000    0.000000    0.000000    0.000000 Ang=   0.00 deg.
 Guess basis will be translated and rotated to current coordinates.
 JPrj=2 DoOrth=T DoCkMO=T.
 Leave Link  401 at Mon Oct 19 21:12:42 2015, MaxMem=   524288000 cpu:         0.8
 (Enter /opt/g09/l502.exe)
 Closed shell SCF:
 Using DIIS extrapolation, IDIIS=  1040.
 Two-electron integral symmetry not used.
 Keep R1 ints in memory in canonical form, NReq=15884578.
 IVT=       42454 IEndB=       42454 NGot=   524288000 MDV=   509337017
 LenX=   509337017 LenY=   509324912
 Requested convergence on RMS density matrix=1.00D-08 within  64 cycles.
 Requested convergence on MAX density matrix=1.00D-06.
 Requested convergence on             energy=1.00D-06.
 No special actions if energy rises.
 FoFCou: FMM=F IPFlag=           0 FMFlag=           0 FMFlg1=           0
         NFxFlg=           0 DoJE=F BraDBF=F KetDBF=F FulRan=T
         wScrn=  0.000000 ICntrl=     600 IOpCl=  0 I1Cent=           0 NGrid=           0
         NMat0=    1 NMatS0=   5460 NMatT0=    0 NMatD0=    1 NMtDS0=    0 NMtDT0=    0
 Symmetry not used in FoFCou.

 Cycle   1  Pass 1  IDiag  1:
 E= -1070.56190138370    
 DIIS: error= 3.03D-09 at cycle   1 NSaved=   1.
 NSaved= 1 IEnMin= 1 EnMin= -1070.56190138370     IErMin= 1 ErrMin= 3.03D-09
 ErrMax= 3.03D-09  0.00D+00 EMaxC= 1.00D-01 BMatC= 2.32D-15 BMatP= 2.32D-15
 IDIUse=1 WtCom= 1.00D+00 WtEn= 0.00D+00
 Coeff-Com:  0.100D+01
 Coeff:      0.100D+01
 Gap=     0.181 Goal=   None    Shift=    0.000
 RMSDP=1.44D-09 MaxDP=3.26D-08              OVMax= 3.73D-08

 SCF Done:  E(RB971) =  -1070.56190138     A.U. after    1 cycles
            NFock=  1  Conv=0.14D-08     -V/T= 2.0021
 KE= 1.068332648691D+03 PE=-2.949639448285D+03 EE= 6.073700565685D+02
 Leave Link  502 at Mon Oct 19 21:12:42 2015, MaxMem=   524288000 cpu:         4.9
 (Enter /opt/g09/l508.exe)
 QCSCF skips out because SCF is already converged.
 Leave Link  508 at Mon Oct 19 21:12:42 2015, MaxMem=   524288000 cpu:         0.0
 (Enter /opt/g09/l801.exe)
 DoSCS=F DFT=T ScalE2(SS,OS)=  1.000000  1.000000
 Range of M.O.s used for correlation:     1   104
 NBasis=   104 NAE=    25 NBE=    25 NFC=     0 NFV=     0
 NROrb=    104 NOA=    25 NOB=    25 NVA=    79 NVB=    79

 **** Warning!!: The largest alpha MO coefficient is  0.11973622D+02

 Leave Link  801 at Mon Oct 19 21:12:42 2015, MaxMem=   524288000 cpu:         0.2
 (Enter /opt/g09/l1101.exe)
 Using compressed storage, NAtomX=     4.
 Will process      5 centers per pass.
 Leave Link 1101 at Mon Oct 19 21:12:43 2015, MaxMem=   524288000 cpu:         1.3
 (Enter /opt/g09/l1102.exe)
 Symmetrizing basis deriv contribution to polar:
 IMax=3 JMax=2 DiffMx= 0.00D+00
 Leave Link 1102 at Mon Oct 19 21:12:43 2015, MaxMem=   524288000 cpu:         0.2
 (Enter /opt/g09/l1110.exe)
 Forming Gx(P) for the SCF density, NAtomX=     4.
 Integral derivatives from FoFJK, PRISM(SPDF).
 Do as many integral derivatives as possible in FoFJK.
 G2DrvN: MDV=     524287864.
 G2DrvN: will do     5 centers at a time, making    1 passes.
 Calling FoFCou, ICntrl=  3107 FMM=F I1Cent=   0 AccDes= 0.00D+00.
 FoFJK:  IHMeth= 1 ICntrl=    3107 DoSepK=F KAlg= 0 I1Cent=   0 FoldK=F
 IRaf=         0 NMat=   1 IRICut=       1 DoRegI=T DoRafI=F ISym2E= 0.
 FoFCou: FMM=F IPFlag=           0 FMFlag=      100000 FMFlg1=           0
         NFxFlg=           0 DoJE=F BraDBF=F KetDBF=F FulRan=T
         wScrn=  0.000000 ICntrl=    3107 IOpCl=  0 I1Cent=           0 NGrid=           0
         NMat0=    1 NMatS0=      1 NMatT0=    0 NMatD0=    1 NMtDS0=    0 NMtDT0=    0
 Symmetry not used in FoFCou.
 End of G2Drv F.D. properties file   721 does not exist.
 End of G2Drv F.D. properties file   722 does not exist.
 End of G2Drv F.D. properties file   788 does not exist.
 Leave Link 1110 at Mon Oct 19 21:12:46 2015, MaxMem=   524288000 cpu:        29.4
 (Enter /opt/g09/l1002.exe)
 Minotr:  Closed shell wavefunction.
          IDoAtm=1111
          Direct CPHF calculation.
          Differentiating once with respect to electric field.
                with respect to dipole field.
          Differentiating once with respect to nuclear coordinates.
          Requested convergence is 1.0D-08 RMS, and 1.0D-07 maximum.
          Secondary convergence is 1.0D-12 RMS, and 1.0D-12 maximum.
          NewPWx=T KeepS1=F KeepF1=F KeepIn=T MapXYZ=F SortEE=F KeepMc=T.
          MDV=     524287852 using IRadAn=       1.
 Generate precomputed XC quadrature information.
 Keep R1 ints in memory in canonical form, NReq=15841025.
 FoFCou: FMM=F IPFlag=           0 FMFlag=           0 FMFlg1=           0
         NFxFlg=           0 DoJE=F BraDBF=F KetDBF=F FulRan=T
         wScrn=  0.000000 ICntrl=     600 IOpCl=  0 I1Cent=           0 NGrid=           0
         NMat0=    1 NMatS0=   5460 NMatT0=    0 NMatD0=    1 NMtDS0=    0 NMtDT0=    0
 Symmetry not used in FoFCou.
          Solving linear equations simultaneously, MaxMat=       0.
          There are    15 degrees of freedom in the 1st order CPHF.  IDoFFX=6 NUNeed=     3.
     12 vectors produced by pass  0 Test12= 1.32D-14 6.67D-09 XBig12= 1.12D+02 6.09D+00.
 AX will form    12 AO Fock derivatives at one time.
     12 vectors produced by pass  1 Test12= 1.32D-14 6.67D-09 XBig12= 3.35D+01 1.19D+00.
     12 vectors produced by pass  2 Test12= 1.32D-14 6.67D-09 XBig12= 1.77D+00 4.01D-01.
     12 vectors produced by pass  3 Test12= 1.32D-14 6.67D-09 XBig12= 6.86D-02 5.47D-02.
     12 vectors produced by pass  4 Test12= 1.32D-14 6.67D-09 XBig12= 3.45D-04 5.07D-03.
     12 vectors produced by pass  5 Test12= 1.32D-14 6.67D-09 XBig12= 1.57D-06 3.50D-04.
     12 vectors produced by pass  6 Test12= 1.32D-14 6.67D-09 XBig12= 3.35D-09 1.24D-05.
      3 vectors produced by pass  7 Test12= 1.32D-14 6.67D-09 XBig12= 4.69D-12 4.29D-07.
      2 vectors produced by pass  8 Test12= 1.32D-14 6.67D-09 XBig12= 6.69D-15 1.68D-08.
 InvSVY:  IOpt=1 It=  1 EMax= 1.33D-15
 Solved reduced A of dimension    89 with    12 vectors.
 FullF1:  Do perturbations    1 to     3.
 Isotropic polarizability for W=    0.000000       43.38 Bohr**3.
 End of Minotr F.D. properties file   721 does not exist.
 End of Minotr F.D. properties file   722 does not exist.
 End of Minotr F.D. properties file   788 does not exist.
 Leave Link 1002 at Mon Oct 19 21:12:52 2015, MaxMem=   524288000 cpu:        43.4
 (Enter /opt/g09/l701.exe)
 Compute integral second derivatives.
 ... and contract with generalized density number  0.
 Leave Link  701 at Mon Oct 19 21:12:52 2015, MaxMem=   524288000 cpu:         2.0
 (Enter /opt/g09/l702.exe)
 L702 exits ... SP integral derivatives will be done elsewhere.
 Leave Link  702 at Mon Oct 19 21:12:52 2015, MaxMem=   524288000 cpu:         0.2
 (Enter /opt/g09/l703.exe)
 Compute integral second derivatives, UseDBF=F ICtDFT=           0.
 Integral derivatives from FoFJK, PRISM(SPDF).
 Calling FoFJK, ICntrl=    100127 FMM=F ISym2X=0 I1Cent= 0 IOpClX= 0 NMat=1 NMatS=1 NMatT=0.
 FoFJK:  IHMeth= 1 ICntrl=  100127 DoSepK=F KAlg= 0 I1Cent=   0 FoldK=F
 IRaf=         0 NMat=   1 IRICut=       1 DoRegI=T DoRafI=F ISym2E= 0.
 FoFCou: FMM=F IPFlag=           0 FMFlag=      100000 FMFlg1=         800
         NFxFlg=           0 DoJE=F BraDBF=F KetDBF=F FulRan=T
         wScrn=  0.000000 ICntrl=  100127 IOpCl=  0 I1Cent=           0 NGrid=           0
         NMat0=    1 NMatS0=      1 NMatT0=    0 NMatD0=    1 NMtDS0=    0 NMtDT0=    0
 Symmetry not used in FoFCou.
 Leave Link  703 at Mon Oct 19 21:13:01 2015, MaxMem=   524288000 cpu:        72.8
 (Enter /opt/g09/l716.exe)
 Dipole        = 1.05459647D-05-1.53583179D-01 3.03552368D-07
 Polarizability= 7.15426400D+01 1.21124157D-04 3.41704363D+01
                -1.89521338D+00-1.36589274D-05 2.44373380D+01
 Full mass-weighted force constant matrix:
 Low frequencies ---   -5.3950   -0.0032   -0.0024   -0.0011    3.5568    8.7020
 Low frequencies ---  128.6284  313.1080  420.3574
 Diagonal vibrational polarizability:
       12.1705537       7.9796774       0.0515383
 Harmonic frequencies (cm**-1), IR intensities (KM/Mole), Raman scattering
 activities (A**4/AMU), depolarization ratios for plane and unpolarized
 incident light, reduced masses (AMU), force constants (mDyne/A),
 and normal coordinates:
                      1                      2                      3
                      A                      A                      A
 Frequencies --    128.6284               313.1080               420.3573
 Red. masses --     29.1317                20.6316                19.8949
 Frc consts  --      0.2840                 1.1917                 2.0712
 IR Inten    --      0.6158                 8.2098                45.2795
  Atom  AN      X      Y      Z        X      Y      Z        X      Y      Z
     1  17     0.56  -0.17  -0.03     0.26   0.24   0.04    -0.27  -0.17  -0.02
     2   8    -0.08   0.38   0.06     0.08  -0.51  -0.33     0.60  -0.19   0.05
     3   8     0.08   0.38  -0.06    -0.08  -0.51   0.33     0.60   0.19   0.05
     4  17    -0.56  -0.17   0.03    -0.25   0.23  -0.04    -0.27   0.17  -0.02
                      4                      5                      6
                      A                      A                      A
 Frequencies --    550.1146               602.6777               943.2195
 Red. masses --     16.7842                17.0351                16.3634
 Frc consts  --      2.9927                 3.6456                 8.5773
 IR Inten    --     33.1044                71.8861                58.8656
  Atom  AN      X      Y      Z        X      Y      Z        X      Y      Z
     1  17    -0.03  -0.09   0.11    -0.05  -0.12   0.10     0.07   0.07  -0.03
     2   8     0.56   0.20  -0.35     0.11   0.64  -0.22     0.43  -0.15   0.54
     3   8    -0.56   0.20   0.35     0.11  -0.64  -0.22    -0.43  -0.15  -0.54
     4  17     0.03  -0.09  -0.11    -0.05   0.12   0.10    -0.07   0.07   0.03

 -------------------
 - Thermochemistry -
 -------------------
 Temperature   298.150 Kelvin.  Pressure   1.00000 Atm.
 Atom     1 has atomic number 17 and mass  34.96885
 Atom     2 has atomic number  8 and mass  15.99491
 Atom     3 has atomic number  8 and mass  15.99491
 Atom     4 has atomic number 17 and mass  34.96885
 Molecular mass:   101.92753 amu.
 Principal axes and moments of inertia in atomic units:
                           1         2         3
     Eigenvalues --   138.78178 828.44526 928.13262
           X            1.00000   0.00000   0.00087
           Y            0.00000   1.00000   0.00000
           Z           -0.00087   0.00000   1.00000
 This molecule is an asymmetric top.
 Rotational symmetry number  1.
 Rotational temperatures (Kelvin)      0.62410     0.10455     0.09332
 Rotational constants (GHZ):          13.00417     2.17847     1.94449
 Zero-point vibrational energy      17693.4 (Joules/Mol)
                                    4.22882 (Kcal/Mol)
 Warning -- explicit consideration of   5 degrees of freedom as
           vibrations may cause significant error
 Vibrational temperatures:    185.07   450.49   604.80   791.49   867.12
          (Kelvin)           1357.08
 
 Zero-point correction=                           0.006739 (Hartree/Particle)
 Thermal correction to Energy=                    0.011341
 Thermal correction to Enthalpy=                  0.012285
 Thermal correction to Gibbs Free Energy=        -0.022046
 Sum of electronic and zero-point Energies=          -1070.555162
 Sum of electronic and thermal Energies=             -1070.550560
 Sum of electronic and thermal Enthalpies=           -1070.549616
 Sum of electronic and thermal Free Energies=        -1070.583947
 
                     E (Thermal)             CV                S
                      KCal/Mol        Cal/Mol-Kelvin    Cal/Mol-Kelvin
 Total                    7.117             13.570             72.255
 Electronic               0.000              0.000              0.000
 Translational            0.889              2.981             39.775
 Rotational               0.889              2.981             26.170
 Vibrational              5.339              7.608              6.310
 Vibration     1          0.611              1.925              2.966
 Vibration     2          0.701              1.649              1.346
 Vibration     3          0.783              1.426              0.891
 Vibration     4          0.905              1.139              0.544
 Vibration     5          0.961              1.026              0.445
                       Q            Log10(Q)             Ln(Q)
 Total Bot       0.138109D+11         10.140222         23.348723
 Total V=0       0.173767D+14         13.239968         30.486152
 Vib (Bot)       0.291998D-02         -2.534621         -5.836179
 Vib (Bot)    1  0.158546D+01          0.200155          0.460874
 Vib (Bot)    2  0.602829D+00         -0.219806         -0.506121
 Vib (Bot)    3  0.417601D+00         -0.379239         -0.873230
 Vib (Bot)    4  0.285241D+00         -0.544788         -1.254421
 Vib (Bot)    5  0.247078D+00         -0.607166         -1.398051
 Vib (V=0)       0.367388D+01          0.565125          1.301249
 Vib (V=0)    1  0.216243D+01          0.334942          0.771234
 Vib (V=0)    2  0.128320D+01          0.108295          0.249357
 Vib (V=0)    3  0.115145D+01          0.061246          0.141024
 Vib (V=0)    4  0.107564D+01          0.031667          0.072917
 Vib (V=0)    5  0.105772D+01          0.024369          0.056112
 Electronic      0.100000D+01          0.000000          0.000000
 Translational   0.404476D+08          7.606892         17.515517
 Rotational      0.116936D+06          5.067950         11.669385
 
                                                        ./00_00fine-ClOOCl.g09
                                                             IR Spectrum
 
                                                                                                                                     
     9                                             6      5                 4             3                        1                 
     4                                             0      5                 2             1                        2                 
     3                                             3      0                 0             3                        9                 
 
     X                                             X      X                 X             X                        X                 
     X                                             X      X                 X             X                                          
     X                                             X      X                 X                                                        
     X                                             X      X                 X                                                        
     X                                             X      X                 X                                                        
     X                                             X      X                 X                                                        
     X                                             X      X                 X                                                        
     X                                             X      X                 X                                                        
     X                                             X      X                 X                                                        
     X                                             X                        X                                                        
     X                                             X                        X                                                        
     X                                             X                        X                                                        
     X                                             X                        X                                                        
     X                                             X                                                                                 
     X                                             X                                                                                 
     X                                             X                                                                                 
                                                   X                                                                                 
                                                   X                                                                                 
                                                   X                                                                                 
                                                   X                                                                                 
 
 -------------------------------------------------------------------
 Center     Atomic                   Forces (Hartrees/Bohr)
 Number     Number              X              Y              Z
 -------------------------------------------------------------------
      1       17           0.000000311    0.000000399    0.000003281
      2        8           0.000000025   -0.000000021    0.000000973
      3        8          -0.000001286    0.000000158   -0.000000873
      4       17           0.000000950   -0.000000535   -0.000003380
 -------------------------------------------------------------------
 Cartesian Forces:  Max     0.000003380 RMS     0.000001501
 Force constants in Cartesian coordinates: 
                1             2             3             4             5 
      1  0.676002D-01
      2  0.486727D-01  0.568806D-01
      3 -0.821562D-02 -0.213395D-01  0.225837D-01
      4 -0.601633D-02 -0.949262D-02  0.116089D-01  0.184698D+00
      5 -0.286141D-01 -0.602078D-01  0.409169D-01 -0.105667D-01  0.119309D+00
      6  0.394277D-01  0.562532D-01 -0.441206D-01  0.822647D-01 -0.758308D-01
      7 -0.604297D-01 -0.395993D-01 -0.645988D-02 -0.118252D+00  0.195407D-01
      8 -0.196395D-01 -0.228946D-02 -0.195801D-01 -0.195406D-01 -0.568115D-01
      9 -0.342787D-01 -0.349110D-01  0.232382D-01 -0.874135D-01  0.153335D-01
     10 -0.115425D-02  0.419180D-03  0.306661D-02 -0.604305D-01  0.196401D-01
     11 -0.419148D-03  0.561664D-02  0.267514D-05  0.396000D-01 -0.228952D-02
     12  0.306663D-02 -0.265374D-05 -0.170127D-02 -0.646010D-02  0.195803D-01
                6             7             8             9            10 
      6  0.187676D+00
      7 -0.874136D-01  0.184699D+00
      8 -0.153336D-01  0.105646D-01  0.119311D+00
      9 -0.166793D+00  0.822641D-01  0.758316D-01  0.187676D+00
     10 -0.342788D-01 -0.601744D-02  0.286155D-01  0.394281D-01  0.676022D-01
     11  0.349113D-01  0.949402D-02 -0.602097D-01 -0.562541D-01 -0.486749D-01
     12  0.232384D-01  0.116094D-01 -0.409178D-01 -0.441208D-01 -0.821595D-02
               11            12 
     11  0.568825D-01
     12  0.213402D-01  0.225837D-01
 FormGI is forming the generalized inverse of G from B-inverse, IUseBI=4.
 Force constants in internal coordinates: 
                1             2             3             4             5 
      1  0.115510D+00
      2  0.848858D-01  0.316758D+00
      3  0.393903D-02  0.848867D-01  0.115514D+00
      4  0.144378D-01  0.524443D-01 -0.766398D-02  0.308904D+00
      5 -0.766406D-02  0.524459D-01  0.144390D-01 -0.844835D-02  0.308908D+00
      6 -0.106087D-02  0.472932D-02 -0.106094D-02  0.806379D-02  0.806398D-02
                6 
      6  0.524867D-01
 Leave Link  716 at Mon Oct 19 21:13:01 2015, MaxMem=   524288000 cpu:         0.3
 (Enter /opt/g09/l103.exe)

 GradGradGradGradGradGradGradGradGradGradGradGradGradGradGradGradGradGrad
 Berny optimization.
 Red2BG is reusing G-inverse.
 Internal  Forces:  Max     0.000001175 RMS     0.000000845
 Search for a local minimum.
 Step number   1 out of a maximum of    2
 All quantities printed in internal units (Hartrees-Bohrs-Radians)
 Second derivative matrix not updated -- analytic derivatives used.
 The second derivative matrix:
                          R1        R2        R3        A1        A2
           R1           0.11551
           R2           0.08489   0.31676
           R3           0.00394   0.08489   0.11551
           A1           0.01444   0.05244  -0.00766   0.30890
           A2          -0.00766   0.05245   0.01444  -0.00845   0.30891
           D1          -0.00106   0.00473  -0.00106   0.00806   0.00806
                          D1
           D1           0.05249
 ITU=  0
     Eigenvalues ---    0.05139   0.06037   0.10923   0.26078   0.31970
     Eigenvalues ---    0.41661
 Angle between quadratic step and forces=  31.61 degrees.
 Linear search not attempted -- first point.
 Iteration  1 RMS(Cart)=  0.00001443 RMS(Int)=  0.00000000
 Iteration  2 RMS(Cart)=  0.00000000 RMS(Int)=  0.00000000
 ITry= 1 IFail=0 DXMaxC= 2.34D-05 DCOld= 1.00D+10 DXMaxT= 2.56D+00 DXLimC= 3.00D+00 Rises=F
 Variable       Old X    -DE/DX   Delta X   Delta X   Delta X     New X
                                 (Linear)    (Quad)   (Total)
    R1        3.42785   0.00000   0.00000   0.00000   0.00000   3.42785
    R2        2.48493   0.00000   0.00000  -0.00001  -0.00001   2.48492
    R3        3.42784   0.00000   0.00000   0.00002   0.00002   3.42785
    A1        1.96579   0.00000   0.00000   0.00000   0.00000   1.96579
    A2        1.96578   0.00000   0.00000   0.00000   0.00000   1.96579
    D1        1.48538   0.00000   0.00000   0.00002   0.00002   1.48540
         Item               Value     Threshold  Converged?
 Maximum Force            0.000001     0.000015     YES
 RMS     Force            0.000001     0.000010     YES
 Maximum Displacement     0.000023     0.000060     YES
 RMS     Displacement     0.000014     0.000040     YES
 Predicted change in Energy=-2.458006D-11
 Optimization completed.
    -- Stationary point found.
                           ----------------------------
                           !   Optimized Parameters   !
                           ! (Angstroms and Degrees)  !
 --------------------------                            --------------------------
 ! Name  Definition              Value          Derivative Info.                !
 --------------------------------------------------------------------------------
 ! R1    R(1,2)                  1.8139         -DE/DX =    0.0                 !
 ! R2    R(2,3)                  1.315          -DE/DX =    0.0                 !
 ! R3    R(3,4)                  1.8139         -DE/DX =    0.0                 !
 ! A1    A(1,2,3)              112.6313         -DE/DX =    0.0                 !
 ! A2    A(2,3,4)              112.6311         -DE/DX =    0.0                 !
 ! D1    D(1,2,3,4)             85.106          -DE/DX =    0.0                 !
 --------------------------------------------------------------------------------
 GradGradGradGradGradGradGradGradGradGradGradGradGradGradGradGradGradGrad

 Leave Link  103 at Mon Oct 19 21:13:01 2015, MaxMem=   524288000 cpu:         0.1
 (Enter /opt/g09/l9999.exe)
 1\1\GINC-CONSTABLE\Freq\RB971\6-311+G(d,p)\Cl2O2\PB556\19-Oct-2015\0\\
 #P Geom=AllCheck Guess=TCheck SCRF=Check GenChk RB971/6-311+G(d,p) Fre
 q\\./00_00fine-ClOOCl.g09\\0,1\Cl,-1.76528,-0.39467,0.05593\O,-0.51769
 ,0.83868,-0.40531\O,0.5177,0.83868,0.40531\Cl,1.76528,-0.39467,-0.0559
 3\\Version=ES64L-G09RevD.01\HF=-1070.5619014\RMSD=1.442e-09\RMSF=1.501
 e-06\ZeroPoint=0.0067391\Thermal=0.0113409\Dipole=0.0000105,-0.1535832
 ,0.0000003\DipoleDeriv=-0.5715181,-0.1796825,-0.0154577,-0.5753422,-0.
 1399223,0.0109118,0.1976216,0.0804274,0.0081576,0.5715262,0.8012117,0.
 0154588,0.5219194,0.1399204,-0.0740187,-0.1976122,0.3723977,-0.0081589
 ,0.5715025,-0.8012117,0.0154571,-0.5219194,0.1399223,0.0740182,-0.1976
 322,-0.3723973,-0.0081592,-0.5715106,0.1796824,-0.0154582,0.5753422,-0
 .1399204,-0.0109114,0.1976228,-0.0804278,0.0081606\Polar=71.54264,0.00
 01211,34.1704363,-1.8952134,-0.0000137,24.437338\PG=C01 [X(Cl2O2)]\NIm
 ag=0\\0.06760024,0.04867274,0.05688058,-0.00821562,-0.02133946,0.02258
 366,-0.00601633,-0.00949262,0.01160889,0.18469845,-0.02861408,-0.06020
 776,0.04091691,-0.01056673,0.11930881,0.03942768,0.05625316,-0.0441206
 3,0.08226468,-0.07583078,0.18767562,-0.06042965,-0.03959929,-0.0064598
 8,-0.11825164,0.01954070,-0.08741359,0.18469873,-0.01963951,-0.0022894
 6,-0.01958012,-0.01954062,-0.05681152,-0.01533364,0.01056457,0.1193106
 5,-0.03427869,-0.03491105,0.02323824,-0.08741348,0.01533353,-0.1667933
 6,0.08226406,0.07583161,0.18767591,-0.00115425,0.00041918,0.00306661,-
 0.06043048,0.01964012,-0.03427876,-0.00601744,0.02861555,0.03942810,0.
 06760216,-0.00041915,0.00561664,0.00000268,0.03959998,-0.00228952,0.03
 491126,0.00949402,-0.06020966,-0.05625409,-0.04867485,0.05688254,0.003
 06663,-0.00000265,-0.00170127,-0.00646010,0.01958034,0.02323838,0.0116
 0942,-0.04091784,-0.04412078,-0.00821595,0.02134015,0.02258368\\-0.000
 00031,-0.00000040,-0.00000328,-0.00000002,0.00000002,-0.00000097,0.000
 00129,-0.00000016,0.00000087,-0.00000095,0.00000054,0.00000338\\\@


 THE NUMBERS ARE MEANINGLESS, BUT THE TRENDS ARE IMPORTANT.
     -- LARRY BURGGRAF
 Job cpu time:       0 days  0 hours  2 minutes 39.8 seconds.
 File lengths (MBytes):  RWF=     11 Int=      0 D2E=      0 Chk=      2 Scr=      1
 Normal termination of Gaussian 09 at Mon Oct 19 21:13:01 2015.
