 Entering Gaussian System, Link 0=g09
 Input=0_0-freq-verify-Cl2OTi.gau
 Output=0_0-freq-verify-Cl2OTi.log
 Initial command:
 /opt/g09/l1.exe "/scratch/pb556/g09_run/ti_runs//Gau-11247.inp" -scrdir="/scratch/pb556/g09_run/ti_runs//"
 Entering Link 1 = /opt/g09/l1.exe PID=     11248.
  
 Copyright (c) 1988,1990,1992,1993,1995,1998,2003,2009,2013,
            Gaussian, Inc.  All Rights Reserved.
  
 This is part of the Gaussian(R) 09 program.  It is based on
 the Gaussian(R) 03 system (copyright 2003, Gaussian, Inc.),
 the Gaussian(R) 98 system (copyright 1998, Gaussian, Inc.),
 the Gaussian(R) 94 system (copyright 1995, Gaussian, Inc.),
 the Gaussian 92(TM) system (copyright 1992, Gaussian, Inc.),
 the Gaussian 90(TM) system (copyright 1990, Gaussian, Inc.),
 the Gaussian 88(TM) system (copyright 1988, Gaussian, Inc.),
 the Gaussian 86(TM) system (copyright 1986, Carnegie Mellon
 University), and the Gaussian 82(TM) system (copyright 1983,
 Carnegie Mellon University). Gaussian is a federally registered
 trademark of Gaussian, Inc.
  
 This software contains proprietary and confidential information,
 including trade secrets, belonging to Gaussian, Inc.
  
 This software is provided under written license and may be
 used, copied, transmitted, or stored only in accord with that
 written license.
  
 The following legend is applicable only to US Government
 contracts under FAR:
  
                    RESTRICTED RIGHTS LEGEND
  
 Use, reproduction and disclosure by the US Government is
 subject to restrictions as set forth in subparagraphs (a)
 and (c) of the Commercial Computer Software - Restricted
 Rights clause in FAR 52.227-19.
  
 Gaussian, Inc.
 340 Quinnipiac St., Bldg. 40, Wallingford CT 06492
  
  
 ---------------------------------------------------------------
 Warning -- This program may not be used in any manner that
 competes with the business of Gaussian, Inc. or will provide
 assistance to any competitor of Gaussian, Inc.  The licensee
 of this program is prohibited from giving any competitor of
 Gaussian, Inc. access to this program.  By using this program,
 the user acknowledges that Gaussian, Inc. is engaged in the
 business of creating and licensing software in the field of
 computational chemistry and represents and warrants to the
 licensee that it is not a competitor of Gaussian, Inc. and that
 it will not use this program in any manner prohibited above.
 ---------------------------------------------------------------
  

 Cite this work as:
 Gaussian 09, Revision D.01,
 M. J. Frisch, G. W. Trucks, H. B. Schlegel, G. E. Scuseria, 
 M. A. Robb, J. R. Cheeseman, G. Scalmani, V. Barone, B. Mennucci, 
 G. A. Petersson, H. Nakatsuji, M. Caricato, X. Li, H. P. Hratchian, 
 A. F. Izmaylov, J. Bloino, G. Zheng, J. L. Sonnenberg, M. Hada, 
 M. Ehara, K. Toyota, R. Fukuda, J. Hasegawa, M. Ishida, T. Nakajima, 
 Y. Honda, O. Kitao, H. Nakai, T. Vreven, J. A. Montgomery, Jr., 
 J. E. Peralta, F. Ogliaro, M. Bearpark, J. J. Heyd, E. Brothers, 
 K. N. Kudin, V. N. Staroverov, T. Keith, R. Kobayashi, J. Normand, 
 K. Raghavachari, A. Rendell, J. C. Burant, S. S. Iyengar, J. Tomasi, 
 M. Cossi, N. Rega, J. M. Millam, M. Klene, J. E. Knox, J. B. Cross, 
 V. Bakken, C. Adamo, J. Jaramillo, R. Gomperts, R. E. Stratmann, 
 O. Yazyev, A. J. Austin, R. Cammi, C. Pomelli, J. W. Ochterski, 
 R. L. Martin, K. Morokuma, V. G. Zakrzewski, G. A. Voth, 
 P. Salvador, J. J. Dannenberg, S. Dapprich, A. D. Daniels, 
 O. Farkas, J. B. Foresman, J. V. Ortiz, J. Cioslowski, 
 and D. J. Fox, Gaussian, Inc., Wallingford CT, 2013.
 
 ******************************************
 Gaussian 09:  ES64L-G09RevD.01 24-Apr-2013
                19-Jul-2016 
 ******************************************
 %NProcShared=8
 Will use up to    8 processors via shared memory.
 %Mem=500MW
 ----------------------------------------------------------------------
 #p rB971/6-311+G(d,p) Opt=(Tight, CalcAll, MaxCycles=512, MaxStep=256)
  Freq GFInput Population=None Integral(Grid=UltraFine) Geom=Connectivi
 ty SCF=XQC Guess=MIX NoSymmetry
 ----------------------------------------------------------------------
 1/6=512,7=10,8=256,10=4,14=-1,18=20,19=15,26=4,38=1,57=2/1,3;
 2/9=110,12=2,15=1,17=6,18=5,40=1/2;
 3/5=4,6=6,7=111,11=2,16=1,24=10,25=1,30=1,71=2,74=-20,75=-5,116=1,140=1/1,2,3;
 4/13=-1/1;
 5/5=2,8=3,13=1,38=5/2,8;
 8/6=4,10=90,11=11/1;
 11/6=1,8=1,9=11,15=111,16=1,31=1/1,2,10;
 10/6=1,31=1/2;
 7/10=1,25=1,30=1/1,2,3,16;
 1/6=512,7=10,8=256,10=4,14=-1,18=20,19=15,26=4/3(3);
 2/9=110,15=1/2;
 7/8=1,9=1,25=1,30=1,44=-1/16;
 99//99;
 2/9=110,15=1/2;
 3/5=4,6=6,7=111,11=2,16=1,25=1,30=1,71=2,74=-20,75=-5,116=1,140=1/1,2,3;
 4/5=5,16=3,69=1/1;
 5/5=2,8=3,13=1,38=5/2,8;
 8/6=4,10=90,11=11/1;
 11/6=1,8=1,9=11,15=111,16=1,31=1/1,2,10;
 10/6=1,31=1/2;
 7/10=1,25=1,30=1/1,2,3,16;
 1/6=512,7=10,8=256,10=4,14=-1,18=20,19=15,26=4/3(-8);
 2/9=110,15=1/2;
 7/8=1,9=1,25=1,30=1,44=-1/16;
 99//99;
 Leave Link    1 at Tue Jul 19 06:22:26 2016, MaxMem=   524288000 cpu:         0.6
 (Enter /opt/g09/l101.exe)
 -----------------------
 ./0_0-verify-Cl2OTi.g09
 -----------------------
 Symbolic Z-matrix:
 Charge =  0 Multiplicity = 1
 O                    -1.22907   1.72055   0.04287 
 Cl                   -2.89642   0.85884  -2.61389 
 Ti                   -1.30877   0.58819  -1.06627 
 Cl                    0.16676  -1.07588  -0.85921 
 
 NAtoms=      4 NQM=        4 NQMF=       0 NMMI=      0 NMMIF=      0
                NMic=       0 NMicF=      0.
                    Isotopes and Nuclear Properties:
 (Nuclear quadrupole moments (NQMom) in fm**2, nuclear magnetic moments (NMagM)
  in nuclear magnetons)

  Atom         1           2           3           4
 IAtWgt=          16          35          48          35
 AtmWgt=  15.9949146  34.9688527  47.9479467  34.9688527
 NucSpn=           0           3           0           3
 AtZEff=   0.0000000   0.0000000   0.0000000   0.0000000
 NQMom=    0.0000000  -8.1650000   0.0000000  -8.1650000
 NMagM=    0.0000000   0.8218740   0.0000000   0.8218740
 AtZNuc=   8.0000000  17.0000000  22.0000000  17.0000000
 Leave Link  101 at Tue Jul 19 06:22:27 2016, MaxMem=   524288000 cpu:         1.3
 (Enter /opt/g09/l103.exe)

 GradGradGradGradGradGradGradGradGradGradGradGradGradGradGradGradGradGrad
 Berny optimization.
 Initialization pass.
                           ----------------------------
                           !    Initial Parameters    !
                           ! (Angstroms and Degrees)  !
 --------------------------                            --------------------------
 ! Name  Definition              Value          Derivative Info.                !
 --------------------------------------------------------------------------------
 ! R1    R(1,3)                  1.5871         calculate D2E/DX2 analytically  !
 ! R2    R(2,3)                  2.2336         calculate D2E/DX2 analytically  !
 ! R3    R(3,4)                  2.2336         calculate D2E/DX2 analytically  !
 ! A1    A(1,3,2)              115.6877         calculate D2E/DX2 analytically  !
 ! A2    A(1,3,4)              115.6958         calculate D2E/DX2 analytically  !
 ! A3    A(2,3,4)              128.6126         calculate D2E/DX2 analytically  !
 ! D1    D(1,3,4,2)            179.2496         calculate D2E/DX2 analytically  !
 --------------------------------------------------------------------------------
 Trust Radius=2.56D+00 FncErr=1.00D-07 GrdErr=1.00D-06
 Number of steps in this run=    100 maximum allowed number of steps=    100.
 GradGradGradGradGradGradGradGradGradGradGradGradGradGradGradGradGradGrad

 Leave Link  103 at Tue Jul 19 06:22:27 2016, MaxMem=   524288000 cpu:         0.1
 (Enter /opt/g09/l202.exe)
                          Input orientation:                          
 ---------------------------------------------------------------------
 Center     Atomic      Atomic             Coordinates (Angstroms)
 Number     Number       Type             X           Y           Z
 ---------------------------------------------------------------------
      1          8           0       -1.229070    1.720550    0.042870
      2         17           0       -2.896420    0.858840   -2.613890
      3         22           0       -1.308770    0.588190   -1.066270
      4         17           0        0.166760   -1.075880   -0.859210
 ---------------------------------------------------------------------
                    Distance matrix (angstroms):
                    1          2          3          4
     1  O    0.000000
     2  Cl   3.252841   0.000000
     3  Ti   1.587067   2.233610   0.000000
     4  Cl   3.253016   4.025558   2.233650   0.000000
 Symmetry turned off by external request.
 Stoichiometry    Cl2OTi
 Framework group  C1[X(Cl2OTi)]
 Deg. of freedom     6
 Full point group                 C1      NOp   1
 Rotational constants (GHZ):      5.4645758      1.7836577      1.3447423
 Leave Link  202 at Tue Jul 19 06:22:27 2016, MaxMem=   524288000 cpu:         0.1
 (Enter /opt/g09/l301.exe)
 Standard basis: 6-311+G(d,p) (5D, 7F)
 Ernie: Thresh=  0.10000D-02 Tol=  0.10000D-05 Strict=F.
 AO basis set in the form of general basis input (Overlap normalization):
      1 0
 S   6 1.00       0.000000000000
      0.8588500000D+04  0.1895150083D-02
      0.1297230000D+04  0.1438590063D-01
      0.2992960000D+03  0.7073200310D-01
      0.8737710000D+02  0.2400010105D+00
      0.2567890000D+02  0.5947970261D+00
      0.3740040000D+01  0.2808020123D+00
 SP   3 1.00       0.000000000000
      0.4211750000D+02  0.1138890124D+00  0.3651139738D-01
      0.9628370000D+01  0.9208111006D+00  0.2371529830D+00
      0.2853320000D+01 -0.3274470358D-02  0.8197019412D+00
 SP   1 1.00       0.000000000000
      0.9056610000D+00  0.1000000000D+01  0.1000000000D+01
 SP   1 1.00       0.000000000000
      0.2556110000D+00  0.1000000000D+01  0.1000000000D+01
 SP   1 1.00       0.000000000000
      0.8450000000D-01  0.1000000000D+01  0.1000000000D+01
 D   1 1.00       0.000000000000
      0.1292000000D+01  0.1000000000D+01
 ****
      2 0
 S   6 1.00       0.000000000000
      0.1058190000D+06  0.7380002465D-03
      0.1587200000D+05  0.5718001910D-02
      0.3619650000D+04  0.2949500985D-01
      0.1030800000D+04  0.1172860392D+00
      0.3399080000D+03  0.3629491212D+00
      0.1245380000D+03  0.5841491951D+00
 S   3 1.00       0.000000000000
      0.1245380000D+03  0.1341769734D+00
      0.4951350000D+02  0.6242498762D+00
      0.2080560000D+02  0.2917559421D+00
 S   1 1.00       0.000000000000
      0.6583460000D+01  0.1000000000D+01
 S   1 1.00       0.000000000000
      0.2564680000D+01  0.1000000000D+01
 S   1 1.00       0.000000000000
      0.5597630000D+00  0.1000000000D+01
 S   1 1.00       0.000000000000
      0.1832730000D+00  0.1000000000D+01
 SP   1 1.00       0.000000000000
      0.4830000000D-01  0.1000000000D+01  0.1000000000D+01
 P   5 1.00       0.000000000000
      0.5897760000D+03  0.3665569355D-02
      0.1398490000D+03  0.2836791942D-01
      0.4514130000D+02  0.1247566028D+00
      0.1687330000D+02  0.3396546305D+00
      0.2771520000D+01  0.7475859630D+00
 P   2 1.00       0.000000000000
      0.6741100000D+01 -0.1572243813D+01
      0.2771520000D+01  0.9923888817D+00
 P   1 1.00       0.000000000000
      0.1023870000D+01  0.1000000000D+01
 P   1 1.00       0.000000000000
      0.3813680000D+00  0.1000000000D+01
 P   1 1.00       0.000000000000
      0.1094370000D+00  0.1000000000D+01
 D   1 1.00       0.000000000000
      0.7500000000D+00  0.1000000000D+01
 ****
      3 0
 S   6 1.00       0.000000000000
      0.2060820000D+06  0.5673151380D-03
      0.3122680000D+05  0.4379672866D-02
      0.7199320000D+04  0.2242029425D-01
      0.2048750000D+04  0.9063426645D-01
      0.6707900000D+03  0.2890357165D+00
      0.2436500000D+03  0.6803470061D+00
 S   1 1.00       0.000000000000
      0.9592500000D+02  0.1000000000D+01
 S   1 1.00       0.000000000000
      0.3981010000D+02  0.1000000000D+01
 S   1 1.00       0.000000000000
      0.1222050000D+02  0.1000000000D+01
 S   1 1.00       0.000000000000
      0.5008820000D+01  0.1000000000D+01
 S   1 1.00       0.000000000000
      0.1285690000D+01  0.1000000000D+01
 S   1 1.00       0.000000000000
      0.5128060000D+00  0.1000000000D+01
 S   1 1.00       0.000000000000
      0.8557600000D-01  0.1000000000D+01
 S   1 1.00       0.000000000000
      0.3330200000D-01  0.1000000000D+01
 S   1 1.00       0.000000000000
      0.9991000000D-02  0.1000000000D+01
 P   5 1.00       0.000000000000
      0.1264700000D+04  0.3122017423D-02
      0.3012300000D+03  0.2516579464D-01
      0.9697770000D+02  0.1184178291D+00
      0.3637270000D+02  0.3522190030D+00
      0.1478140000D+02  0.6219379661D+00
 P   1 1.00       0.000000000000
      0.6274650000D+01  0.1000000000D+01
 P   1 1.00       0.000000000000
      0.2478780000D+01  0.1000000000D+01
 P   1 1.00       0.000000000000
      0.1016180000D+01  0.1000000000D+01
 P   1 1.00       0.000000000000
      0.3981620000D+00  0.1000000000D+01
 P   1 1.00       0.000000000000
      0.1015610000D+00  0.1000000000D+01
 P   1 1.00       0.000000000000
      0.3405400000D-01  0.1000000000D+01
 D   3 1.00       0.000000000000
      0.2599240000D+02  0.5411706153D-01
      0.7086340000D+01  0.2873032281D+00
      0.2348710000D+01  0.7854540223D+00
 D   1 1.00       0.000000000000
      0.8001980000D+00  0.1000000000D+01
 D   1 1.00       0.000000000000
      0.2620490000D+00  0.1000000000D+01
 D   1 1.00       0.000000000000
      0.7200000000D-01  0.1000000000D+01
 F   1 1.00       0.000000000000
      0.6900000000D+00  0.1000000000D+01
 ****
      4 0
 S   6 1.00       0.000000000000
      0.1058190000D+06  0.7380002465D-03
      0.1587200000D+05  0.5718001910D-02
      0.3619650000D+04  0.2949500985D-01
      0.1030800000D+04  0.1172860392D+00
      0.3399080000D+03  0.3629491212D+00
      0.1245380000D+03  0.5841491951D+00
 S   3 1.00       0.000000000000
      0.1245380000D+03  0.1341769734D+00
      0.4951350000D+02  0.6242498762D+00
      0.2080560000D+02  0.2917559421D+00
 S   1 1.00       0.000000000000
      0.6583460000D+01  0.1000000000D+01
 S   1 1.00       0.000000000000
      0.2564680000D+01  0.1000000000D+01
 S   1 1.00       0.000000000000
      0.5597630000D+00  0.1000000000D+01
 S   1 1.00       0.000000000000
      0.1832730000D+00  0.1000000000D+01
 SP   1 1.00       0.000000000000
      0.4830000000D-01  0.1000000000D+01  0.1000000000D+01
 P   5 1.00       0.000000000000
      0.5897760000D+03  0.3665569355D-02
      0.1398490000D+03  0.2836791942D-01
      0.4514130000D+02  0.1247566028D+00
      0.1687330000D+02  0.3396546305D+00
      0.2771520000D+01  0.7475859630D+00
 P   2 1.00       0.000000000000
      0.6741100000D+01 -0.1572243813D+01
      0.2771520000D+01  0.9923888817D+00
 P   1 1.00       0.000000000000
      0.1023870000D+01  0.1000000000D+01
 P   1 1.00       0.000000000000
      0.3813680000D+00  0.1000000000D+01
 P   1 1.00       0.000000000000
      0.1094370000D+00  0.1000000000D+01
 D   1 1.00       0.000000000000
      0.7500000000D+00  0.1000000000D+01
 ****

   140 basis functions,   236 primitive gaussians,   150 cartesian basis functions
    32 alpha electrons       32 beta electrons
       nuclear repulsion energy       318.1336980256 Hartrees.
 IExCor= 1614 DFT=T Ex+Corr=B971 ExCW=0 ScaHFX=  0.210000
 ScaDFX=  1.000000  1.000000  1.000000  1.000000 ScalE2=  1.000000  1.000000
 IRadAn=      5 IRanWt=     -1 IRanGd=            0 ICorTp=0 IEmpDi=  4
 NAtoms=    4 NActive=    4 NUniq=    4 SFac= 1.00D+00 NAtFMM=   60 NAOKFM=F Big=F
 Integral buffers will be    131072 words long.
 Raffenetti 2 integral format.
 Two-electron integral symmetry is turned off.
 Leave Link  301 at Tue Jul 19 06:22:27 2016, MaxMem=   524288000 cpu:         0.4
 (Enter /opt/g09/l302.exe)
 NPDir=0 NMtPBC=     1 NCelOv=     1 NCel=       1 NClECP=     1 NCelD=      1
         NCelK=      1 NCelE2=     1 NClLst=     1 CellRange=     0.0.
 One-electron integrals computed using PRISM.
 NBasis=   140 RedAO= T EigKep=  1.03D-03  NBF=   140
 NBsUse=   140 1.00D-06 EigRej= -1.00D+00 NBFU=   140
 Precomputing XC quadrature grid using
 IXCGrd= 4 IRadAn=           5 IRanWt=          -1 IRanGd=           0 AccXCQ= 0.00D+00.
 Generated NRdTot=       0 NPtTot=           0 NUsed=           0 NTot=          32
 NSgBfM=   144   144   144   144   144 MxSgAt=     4 MxSgA2=     4.
 Leave Link  302 at Tue Jul 19 06:22:27 2016, MaxMem=   524288000 cpu:         1.6
 (Enter /opt/g09/l303.exe)
 DipDrv:  MaxL=1.
 Leave Link  303 at Tue Jul 19 06:22:27 2016, MaxMem=   524288000 cpu:         0.2
 (Enter /opt/g09/l401.exe)
 ExpMin= 9.99D-03 ExpMax= 2.06D+05 ExpMxC= 7.20D+03 IAcc=3 IRadAn=         5 AccDes= 0.00D+00
 Harris functional with IExCor= 1614 and IRadAn=       5 diagonalized for initial guess.
 HarFok:  IExCor= 1614 AccDes= 0.00D+00 IRadAn=         5 IDoV= 1 UseB2=F ITyADJ=14
 ICtDFT=  3500011 ScaDFX=  1.000000  1.000000  1.000000  1.000000
 FoFCou: FMM=F IPFlag=           0 FMFlag=      100000 FMFlg1=           0
         NFxFlg=           0 DoJE=T BraDBF=F KetDBF=T FulRan=T
         wScrn=  0.000000 ICntrl=     500 IOpCl=  0 I1Cent=   200000004 NGrid=           0
         NMat0=    1 NMatS0=      1 NMatT0=    0 NMatD0=    1 NMtDS0=    0 NMtDT0=    0
 Symmetry not used in FoFCou.
 Harris En= -1823.33867167168    
 JPrj=0 DoOrth=F DoCkMO=T.
 Mixing orbitals, IMix= 1 IMixAn=  0 NRI=1 NE=   32 Coef=  7.07106781D-01  7.07106781D-01
 Leave Link  401 at Tue Jul 19 06:22:27 2016, MaxMem=   524288000 cpu:         3.3
 (Enter /opt/g09/l502.exe)
 Closed shell SCF:
 Using DIIS extrapolation, IDIIS=  1040.
 Two-electron integral symmetry not used.
 Keep R1 ints in memory in canonical form, NReq=50800383.
 IVT=       75550 IEndB=       75550 NGot=   524288000 MDV=   475499066
 LenX=   475499066 LenY=   475476125
 Requested convergence on RMS density matrix=1.00D-08 within  64 cycles.
 Requested convergence on MAX density matrix=1.00D-06.
 Requested convergence on             energy=1.00D-06.
 No special actions if energy rises.
 FoFCou: FMM=F IPFlag=           0 FMFlag=           0 FMFlg1=           0
         NFxFlg=           0 DoJE=F BraDBF=F KetDBF=F FulRan=T
         wScrn=  0.000000 ICntrl=     600 IOpCl=  0 I1Cent=           0 NGrid=           0
         NMat0=    1 NMatS0=   9870 NMatT0=    0 NMatD0=    1 NMtDS0=    0 NMtDT0=    0
 Symmetry not used in FoFCou.

 Cycle   1  Pass 1  IDiag  1:
 E= -1844.23330257839    
 DIIS: error= 1.64D-01 at cycle   1 NSaved=   1.
 NSaved= 1 IEnMin= 1 EnMin= -1844.23330257839     IErMin= 1 ErrMin= 1.64D-01
 ErrMax= 1.64D-01  0.00D+00 EMaxC= 1.00D-01 BMatC= 4.49D+00 BMatP= 4.49D+00
 IDIUse=3 WtCom= 0.00D+00 WtEn= 1.00D+00
 Coeff-Com:  0.100D+01
 Coeff-En:   0.100D+01
 Coeff:      0.100D+01
 Gap=     0.039 Goal=   None    Shift=    0.000
 GapD=    0.039 DampG=0.250 DampE=0.125 DampFc=0.1250 IDamp=-1.
 Damping current iteration by 1.25D-01
 RMSDP=1.23D-02 MaxDP=2.46D-01              OVMax= 9.90D-01

 Cycle   2  Pass 1  IDiag  1:
 E= -1844.38079153555     Delta-E=       -0.147488957164 Rises=F Damp=T
 DIIS: error= 1.42D-01 at cycle   2 NSaved=   2.
 NSaved= 2 IEnMin= 2 EnMin= -1844.38079153555     IErMin= 2 ErrMin= 1.42D-01
 ErrMax= 1.42D-01  0.00D+00 EMaxC= 1.00D-01 BMatC= 2.86D+00 BMatP= 4.49D+00
 IDIUse=3 WtCom= 0.00D+00 WtEn= 1.00D+00
 Coeff-Com: -0.167D+01 0.267D+01
 Coeff-En:   0.171D+00 0.829D+00
 Coeff:      0.171D+00 0.829D+00
 Gap=    -0.036 Goal=   None    Shift=    0.000
 RMSDP=7.14D-03 MaxDP=1.46D-01 DE=-1.47D-01 OVMax= 9.84D-01

 Cycle   3  Pass 1  IDiag  1:
 E= -1844.60177065987     Delta-E=       -0.220979124322 Rises=F Damp=F
 DIIS: error= 1.03D-01 at cycle   3 NSaved=   3.
 NSaved= 3 IEnMin= 3 EnMin= -1844.60177065987     IErMin= 3 ErrMin= 1.03D-01
 ErrMax= 1.03D-01  0.00D+00 EMaxC= 1.00D-01 BMatC= 7.80D-01 BMatP= 2.86D+00
 IDIUse=3 WtCom= 0.00D+00 WtEn= 1.00D+00
 EnCoef did   100 forward-backward iterations
 Coeff-Com:  0.882D+00-0.777D+00 0.895D+00
 Coeff-En:   0.370D+00 0.565D-02 0.625D+00
 Coeff:      0.370D+00 0.565D-02 0.625D+00
 Gap=     0.294 Goal=   None    Shift=    0.000
 RMSDP=5.47D-03 MaxDP=1.25D-01 DE=-2.21D-01 OVMax= 3.05D-01

 Cycle   4  Pass 1  IDiag  1:
 E= -1844.87158899101     Delta-E=       -0.269818331140 Rises=F Damp=F
 DIIS: error= 6.51D-02 at cycle   4 NSaved=   4.
 NSaved= 4 IEnMin= 4 EnMin= -1844.87158899101     IErMin= 4 ErrMin= 6.51D-02
 ErrMax= 6.51D-02  0.00D+00 EMaxC= 1.00D-01 BMatC= 3.02D-01 BMatP= 7.80D-01
 IDIUse=3 WtCom= 3.49D-01 WtEn= 6.51D-01
 Coeff-Com: -0.175D+00 0.295D+00 0.304D+00 0.576D+00
 Coeff-En:   0.000D+00 0.000D+00 0.360D+00 0.640D+00
 Coeff:     -0.611D-01 0.103D+00 0.341D+00 0.617D+00
 Gap=     0.179 Goal=   None    Shift=    0.000
 RMSDP=2.72D-03 MaxDP=8.09D-02 DE=-2.70D-01 OVMax= 1.97D-01

 Cycle   5  Pass 1  IDiag  1:
 E= -1845.04377380700     Delta-E=       -0.172184815986 Rises=F Damp=F
 DIIS: error= 4.19D-02 at cycle   5 NSaved=   5.
 NSaved= 5 IEnMin= 5 EnMin= -1845.04377380700     IErMin= 5 ErrMin= 4.19D-02
 ErrMax= 4.19D-02  0.00D+00 EMaxC= 1.00D-01 BMatC= 9.59D-02 BMatP= 3.02D-01
 IDIUse=3 WtCom= 5.81D-01 WtEn= 4.19D-01
 Coeff-Com:  0.249D-01-0.216D-01 0.945D-01 0.371D+00 0.531D+00
 Coeff-En:   0.000D+00 0.000D+00 0.000D+00 0.282D+00 0.718D+00
 Coeff:      0.144D-01-0.125D-01 0.549D-01 0.334D+00 0.609D+00
 Gap=     0.201 Goal=   None    Shift=    0.000
 RMSDP=1.30D-03 MaxDP=3.80D-02 DE=-1.72D-01 OVMax= 9.47D-02

 Cycle   6  Pass 1  IDiag  1:
 E= -1845.09768657601     Delta-E=       -0.053912769017 Rises=F Damp=F
 DIIS: error= 1.61D-02 at cycle   6 NSaved=   6.
 NSaved= 6 IEnMin= 6 EnMin= -1845.09768657601     IErMin= 6 ErrMin= 1.61D-02
 ErrMax= 1.61D-02  0.00D+00 EMaxC= 1.00D-01 BMatC= 1.42D-02 BMatP= 9.59D-02
 IDIUse=3 WtCom= 8.39D-01 WtEn= 1.61D-01
 Coeff-Com: -0.103D+00 0.120D+00-0.289D-02 0.156D+00 0.302D+00 0.528D+00
 Coeff-En:   0.000D+00 0.000D+00 0.000D+00 0.000D+00 0.189D+00 0.811D+00
 Coeff:     -0.868D-01 0.101D+00-0.243D-02 0.131D+00 0.284D+00 0.574D+00
 Gap=     0.170 Goal=   None    Shift=    0.000
 RMSDP=7.66D-04 MaxDP=2.25D-02 DE=-5.39D-02 OVMax= 4.01D-02

 Cycle   7  Pass 1  IDiag  1:
 E= -1845.10771415469     Delta-E=       -0.010027578674 Rises=F Damp=F
 DIIS: error= 2.78D-03 at cycle   7 NSaved=   7.
 NSaved= 7 IEnMin= 7 EnMin= -1845.10771415469     IErMin= 7 ErrMin= 2.78D-03
 ErrMax= 2.78D-03  0.00D+00 EMaxC= 1.00D-01 BMatC= 9.27D-04 BMatP= 1.42D-02
 IDIUse=3 WtCom= 9.72D-01 WtEn= 2.78D-02
 Coeff-Com: -0.824D-02 0.938D-02 0.303D-02-0.344D-02 0.869D-01 0.232D+00
 Coeff-Com:  0.680D+00
 Coeff-En:   0.000D+00 0.000D+00 0.000D+00 0.000D+00 0.000D+00 0.000D+00
 Coeff-En:   0.100D+01
 Coeff:     -0.801D-02 0.912D-02 0.295D-02-0.335D-02 0.845D-01 0.226D+00
 Coeff:      0.689D+00
 Gap=     0.178 Goal=   None    Shift=    0.000
 RMSDP=2.84D-04 MaxDP=7.50D-03 DE=-1.00D-02 OVMax= 1.33D-02

 Cycle   8  Pass 1  IDiag  1:
 E= -1845.10872029879     Delta-E=       -0.001006144099 Rises=F Damp=F
 DIIS: error= 4.89D-04 at cycle   8 NSaved=   8.
 NSaved= 8 IEnMin= 8 EnMin= -1845.10872029879     IErMin= 8 ErrMin= 4.89D-04
 ErrMax= 4.89D-04  0.00D+00 EMaxC= 1.00D-01 BMatC= 2.26D-05 BMatP= 9.27D-04
 IDIUse=3 WtCom= 9.95D-01 WtEn= 4.89D-03
 Coeff-Com: -0.147D-04 0.554D-04 0.816D-03-0.291D-02 0.425D-02 0.144D-01
 Coeff-Com:  0.189D+00 0.794D+00
 Coeff-En:   0.000D+00 0.000D+00 0.000D+00 0.000D+00 0.000D+00 0.000D+00
 Coeff-En:   0.000D+00 0.100D+01
 Coeff:     -0.147D-04 0.552D-04 0.812D-03-0.290D-02 0.423D-02 0.144D-01
 Coeff:      0.188D+00 0.795D+00
 Gap=     0.177 Goal=   None    Shift=    0.000
 RMSDP=5.46D-05 MaxDP=1.58D-03 DE=-1.01D-03 OVMax= 2.26D-03

 Cycle   9  Pass 1  IDiag  1:
 E= -1845.10874457145     Delta-E=       -0.000024272662 Rises=F Damp=F
 DIIS: error= 1.80D-04 at cycle   9 NSaved=   9.
 NSaved= 9 IEnMin= 9 EnMin= -1845.10874457145     IErMin= 9 ErrMin= 1.80D-04
 ErrMax= 1.80D-04  0.00D+00 EMaxC= 1.00D-01 BMatC= 2.21D-06 BMatP= 2.26D-05
 IDIUse=3 WtCom= 9.98D-01 WtEn= 1.80D-03
 Coeff-Com:  0.455D-03-0.535D-03-0.176D-03-0.561D-03-0.350D-02-0.585D-02
 Coeff-Com:  0.366D-01 0.358D+00 0.615D+00
 Coeff-En:   0.000D+00 0.000D+00 0.000D+00 0.000D+00 0.000D+00 0.000D+00
 Coeff-En:   0.000D+00 0.000D+00 0.100D+01
 Coeff:      0.454D-03-0.534D-03-0.175D-03-0.560D-03-0.349D-02-0.584D-02
 Coeff:      0.365D-01 0.357D+00 0.616D+00
 Gap=     0.177 Goal=   None    Shift=    0.000
 RMSDP=1.18D-05 MaxDP=2.83D-04 DE=-2.43D-05 OVMax= 6.83D-04

 Cycle  10  Pass 1  IDiag  1:
 E= -1845.10874659064     Delta-E=       -0.000002019194 Rises=F Damp=F
 DIIS: error= 4.68D-05 at cycle  10 NSaved=  10.
 NSaved=10 IEnMin=10 EnMin= -1845.10874659064     IErMin=10 ErrMin= 4.68D-05
 ErrMax= 4.68D-05  0.00D+00 EMaxC= 1.00D-01 BMatC= 2.17D-07 BMatP= 2.21D-06
 IDIUse=1 WtCom= 1.00D+00 WtEn= 0.00D+00
 Coeff-Com:  0.281D-03-0.344D-03-0.183D-03-0.119D-03-0.126D-02-0.110D-02
 Coeff-Com:  0.707D-02 0.111D+00 0.301D+00 0.583D+00
 Coeff:      0.281D-03-0.344D-03-0.183D-03-0.119D-03-0.126D-02-0.110D-02
 Coeff:      0.707D-02 0.111D+00 0.301D+00 0.583D+00
 Gap=     0.177 Goal=   None    Shift=    0.000
 RMSDP=3.96D-06 MaxDP=8.68D-05 DE=-2.02D-06 OVMax= 1.82D-04

 Cycle  11  Pass 1  IDiag  1:
 E= -1845.10874682406     Delta-E=       -0.000000233418 Rises=F Damp=F
 DIIS: error= 9.91D-06 at cycle  11 NSaved=  11.
 NSaved=11 IEnMin=11 EnMin= -1845.10874682406     IErMin=11 ErrMin= 9.91D-06
 ErrMax= 9.91D-06  0.00D+00 EMaxC= 1.00D-01 BMatC= 7.72D-09 BMatP= 2.17D-07
 IDIUse=1 WtCom= 1.00D+00 WtEn= 0.00D+00
 Coeff-Com:  0.883D-04-0.105D-03-0.176D-04-0.875D-04 0.115D-03 0.890D-03
 Coeff-Com: -0.991D-03-0.141D-01-0.126D-01 0.846D-01 0.942D+00
 Coeff:      0.883D-04-0.105D-03-0.176D-04-0.875D-04 0.115D-03 0.890D-03
 Coeff:     -0.991D-03-0.141D-01-0.126D-01 0.846D-01 0.942D+00
 Gap=     0.177 Goal=   None    Shift=    0.000
 RMSDP=1.03D-06 MaxDP=1.36D-05 DE=-2.33D-07 OVMax= 1.27D-04

 Cycle  12  Pass 1  IDiag  1:
 E= -1845.10874683476     Delta-E=       -0.000000010695 Rises=F Damp=F
 DIIS: error= 1.01D-05 at cycle  12 NSaved=  12.
 NSaved=12 IEnMin=12 EnMin= -1845.10874683476     IErMin=11 ErrMin= 9.91D-06
 ErrMax= 1.01D-05  0.00D+00 EMaxC= 1.00D-01 BMatC= 3.96D-09 BMatP= 7.72D-09
 IDIUse=1 WtCom= 1.00D+00 WtEn= 0.00D+00
 Coeff-Com:  0.268D-05-0.485D-05-0.169D-04 0.963D-05 0.800D-04 0.351D-03
 Coeff-Com: -0.409D-04-0.567D-02-0.215D-01-0.481D-01 0.411D-01 0.103D+01
 Coeff:      0.268D-05-0.485D-05-0.169D-04 0.963D-05 0.800D-04 0.351D-03
 Coeff:     -0.409D-04-0.567D-02-0.215D-01-0.481D-01 0.411D-01 0.103D+01
 Gap=     0.177 Goal=   None    Shift=    0.000
 RMSDP=3.54D-07 MaxDP=5.90D-06 DE=-1.07D-08 OVMax= 3.68D-05

 Cycle  13  Pass 1  IDiag  1:
 E= -1845.10874683821     Delta-E=       -0.000000003449 Rises=F Damp=F
 DIIS: error= 8.56D-07 at cycle  13 NSaved=  13.
 NSaved=13 IEnMin=13 EnMin= -1845.10874683821     IErMin=13 ErrMin= 8.56D-07
 ErrMax= 8.56D-07  0.00D+00 EMaxC= 1.00D-01 BMatC= 3.79D-11 BMatP= 3.96D-09
 IDIUse=1 WtCom= 1.00D+00 WtEn= 0.00D+00
 Coeff-Com: -0.178D-05 0.166D-05-0.521D-05 0.665D-05 0.243D-04 0.109D-03
 Coeff-Com:  0.495D-04-0.113D-02-0.606D-02-0.174D-01-0.164D-01 0.312D+00
 Coeff-Com:  0.729D+00
 Coeff:     -0.178D-05 0.166D-05-0.521D-05 0.665D-05 0.243D-04 0.109D-03
 Coeff:      0.495D-04-0.113D-02-0.606D-02-0.174D-01-0.164D-01 0.312D+00
 Coeff:      0.729D+00
 Gap=     0.177 Goal=   None    Shift=    0.000
 RMSDP=4.08D-08 MaxDP=8.24D-07 DE=-3.45D-09 OVMax= 2.35D-06

 Cycle  14  Pass 1  IDiag  1:
 E= -1845.10874683824     Delta-E=       -0.000000000031 Rises=F Damp=F
 DIIS: error= 9.52D-08 at cycle  14 NSaved=  14.
 NSaved=14 IEnMin=14 EnMin= -1845.10874683824     IErMin=14 ErrMin= 9.52D-08
 ErrMax= 9.52D-08  0.00D+00 EMaxC= 1.00D-01 BMatC= 1.11D-12 BMatP= 3.79D-11
 IDIUse=1 WtCom= 1.00D+00 WtEn= 0.00D+00
 Coeff-Com: -0.398D-06 0.520D-06 0.110D-07 0.800D-06-0.791D-06 0.254D-05
 Coeff-Com: -0.860D-05 0.941D-04-0.133D-04-0.521D-03-0.625D-02 0.117D-02
 Coeff-Com:  0.161D+00 0.845D+00
 Coeff:     -0.398D-06 0.520D-06 0.110D-07 0.800D-06-0.791D-06 0.254D-05
 Coeff:     -0.860D-05 0.941D-04-0.133D-04-0.521D-03-0.625D-02 0.117D-02
 Coeff:      0.161D+00 0.845D+00
 Gap=     0.177 Goal=   None    Shift=    0.000
 RMSDP=1.36D-08 MaxDP=3.03D-07 DE=-3.09D-11 OVMax= 7.18D-07

 Cycle  15  Pass 1  IDiag  1:
 E= -1845.10874683824     Delta-E=       -0.000000000005 Rises=F Damp=F
 DIIS: error= 2.85D-08 at cycle  15 NSaved=  15.
 NSaved=15 IEnMin=15 EnMin= -1845.10874683824     IErMin=15 ErrMin= 2.85D-08
 ErrMax= 2.85D-08  0.00D+00 EMaxC= 1.00D-01 BMatC= 9.12D-14 BMatP= 1.11D-12
 IDIUse=1 WtCom= 1.00D+00 WtEn= 0.00D+00
 Coeff-Com: -0.585D-07 0.108D-06 0.339D-06-0.554D-07-0.171D-05-0.734D-05
 Coeff-Com: -0.813D-05 0.757D-04 0.326D-03 0.891D-03-0.557D-03-0.173D-01
 Coeff-Com: -0.585D-02 0.203D+00 0.819D+00
 Coeff:     -0.585D-07 0.108D-06 0.339D-06-0.554D-07-0.171D-05-0.734D-05
 Coeff:     -0.813D-05 0.757D-04 0.326D-03 0.891D-03-0.557D-03-0.173D-01
 Coeff:     -0.585D-02 0.203D+00 0.819D+00
 Gap=     0.177 Goal=   None    Shift=    0.000
 RMSDP=2.69D-09 MaxDP=3.67D-08 DE=-5.46D-12 OVMax= 1.98D-07

 SCF Done:  E(RB971) =  -1845.10874684     A.U. after   15 cycles
            NFock= 15  Conv=0.27D-08     -V/T= 2.0016
 KE= 1.842234454566D+03 PE=-5.014185828563D+03 EE= 1.008708929133D+03
 Leave Link  502 at Tue Jul 19 06:22:37 2016, MaxMem=   524288000 cpu:        54.0
 (Enter /opt/g09/l508.exe)
 QCSCF skips out because SCF is already converged.
 Leave Link  508 at Tue Jul 19 06:22:37 2016, MaxMem=   524288000 cpu:         0.0
 (Enter /opt/g09/l801.exe)
 DoSCS=F DFT=T ScalE2(SS,OS)=  1.000000  1.000000
 Range of M.O.s used for correlation:     1   140
 NBasis=   140 NAE=    32 NBE=    32 NFC=     0 NFV=     0
 NROrb=    140 NOA=    32 NOB=    32 NVA=   108 NVB=   108

 **** Warning!!: The largest alpha MO coefficient is  0.13340144D+02

 Leave Link  801 at Tue Jul 19 06:22:37 2016, MaxMem=   524288000 cpu:         0.2
 (Enter /opt/g09/l1101.exe)
 Using compressed storage, NAtomX=     4.
 Will process      5 centers per pass.
 Leave Link 1101 at Tue Jul 19 06:22:37 2016, MaxMem=   524288000 cpu:         2.2
 (Enter /opt/g09/l1102.exe)
 Symmetrizing basis deriv contribution to polar:
 IMax=3 JMax=2 DiffMx= 0.00D+00
 Leave Link 1102 at Tue Jul 19 06:22:37 2016, MaxMem=   524288000 cpu:         0.2
 (Enter /opt/g09/l1110.exe)
 Forming Gx(P) for the SCF density, NAtomX=     4.
 Integral derivatives from FoFJK, PRISM(SPDF).
 Do as many integral derivatives as possible in FoFJK.
 G2DrvN: MDV=     524287864.
 G2DrvN: will do     5 centers at a time, making    1 passes.
 Calling FoFCou, ICntrl=  3107 FMM=F I1Cent=   0 AccDes= 0.00D+00.
 FoFJK:  IHMeth= 1 ICntrl=    3107 DoSepK=F KAlg= 0 I1Cent=   0 FoldK=F
 IRaf=         0 NMat=   1 IRICut=       1 DoRegI=T DoRafI=F ISym2E= 0.
 FoFCou: FMM=F IPFlag=           0 FMFlag=      100000 FMFlg1=           0
         NFxFlg=           0 DoJE=F BraDBF=F KetDBF=F FulRan=T
         wScrn=  0.000000 ICntrl=    3107 IOpCl=  0 I1Cent=           0 NGrid=           0
         NMat0=    1 NMatS0=      1 NMatT0=    0 NMatD0=    1 NMtDS0=    0 NMtDT0=    0
 Symmetry not used in FoFCou.
 End of G2Drv F.D. properties file   721 does not exist.
 End of G2Drv F.D. properties file   722 does not exist.
 End of G2Drv F.D. properties file   788 does not exist.
 Leave Link 1110 at Tue Jul 19 06:22:46 2016, MaxMem=   524288000 cpu:        66.7
 (Enter /opt/g09/l1002.exe)
 Minotr:  Closed shell wavefunction.
          IDoAtm=1111
          Direct CPHF calculation.
          Differentiating once with respect to electric field.
                with respect to dipole field.
          Differentiating once with respect to nuclear coordinates.
          Requested convergence is 1.0D-08 RMS, and 1.0D-07 maximum.
          Secondary convergence is 1.0D-12 RMS, and 1.0D-12 maximum.
          NewPWx=T KeepS1=F KeepF1=F KeepIn=T MapXYZ=F SortEE=F KeepMc=T.
          MDV=     524287816 using IRadAn=       1.
 Generate precomputed XC quadrature information.
 Keep R1 ints in memory in canonical form, NReq=50750964.
 FoFCou: FMM=F IPFlag=           0 FMFlag=           0 FMFlg1=           0
         NFxFlg=           0 DoJE=F BraDBF=F KetDBF=F FulRan=T
         wScrn=  0.000000 ICntrl=     600 IOpCl=  0 I1Cent=           0 NGrid=           0
         NMat0=    1 NMatS0=   9870 NMatT0=    0 NMatD0=    1 NMtDS0=    0 NMtDT0=    0
 Symmetry not used in FoFCou.
          Solving linear equations simultaneously, MaxMat=       0.
          There are    15 degrees of freedom in the 1st order CPHF.  IDoFFX=6 NUNeed=     3.
     12 vectors produced by pass  0 Test12= 2.30D-14 6.67D-09 XBig12= 6.67D+01 4.30D+00.
 AX will form    12 AO Fock derivatives at one time.
     12 vectors produced by pass  1 Test12= 2.30D-14 6.67D-09 XBig12= 7.29D+01 2.75D+00.
     12 vectors produced by pass  2 Test12= 2.30D-14 6.67D-09 XBig12= 1.61D+01 9.01D-01.
     12 vectors produced by pass  3 Test12= 2.30D-14 6.67D-09 XBig12= 7.18D-01 3.38D-01.
     12 vectors produced by pass  4 Test12= 2.30D-14 6.67D-09 XBig12= 1.21D-02 5.66D-02.
     12 vectors produced by pass  5 Test12= 2.30D-14 6.67D-09 XBig12= 2.59D-04 4.80D-03.
     12 vectors produced by pass  6 Test12= 2.30D-14 6.67D-09 XBig12= 1.97D-06 3.38D-04.
      9 vectors produced by pass  7 Test12= 2.30D-14 6.67D-09 XBig12= 8.99D-09 2.91D-05.
      4 vectors produced by pass  8 Test12= 2.30D-14 6.67D-09 XBig12= 4.17D-11 1.85D-06.
      2 vectors produced by pass  9 Test12= 2.30D-14 6.67D-09 XBig12= 2.71D-13 1.92D-07.
      1 vectors produced by pass 10 Test12= 2.30D-14 6.67D-09 XBig12= 1.46D-15 8.91D-09.
 InvSVY:  IOpt=1 It=  1 EMax= 2.00D-15
 Solved reduced A of dimension   100 with    12 vectors.
 FullF1:  Do perturbations    1 to     3.
 Isotropic polarizability for W=    0.000000       58.69 Bohr**3.
 End of Minotr F.D. properties file   721 does not exist.
 End of Minotr F.D. properties file   722 does not exist.
 End of Minotr F.D. properties file   788 does not exist.
 Leave Link 1002 at Tue Jul 19 06:22:59 2016, MaxMem=   524288000 cpu:       103.8
 (Enter /opt/g09/l701.exe)
 Compute integral second derivatives.
 ... and contract with generalized density number  0.
 Leave Link  701 at Tue Jul 19 06:23:00 2016, MaxMem=   524288000 cpu:         3.9
 (Enter /opt/g09/l702.exe)
 L702 exits ... SP integral derivatives will be done elsewhere.
 Leave Link  702 at Tue Jul 19 06:23:00 2016, MaxMem=   524288000 cpu:         0.2
 (Enter /opt/g09/l703.exe)
 Compute integral second derivatives, UseDBF=F ICtDFT=           0.
 Integral derivatives from FoFJK, PRISM(SPDF).
 Calling FoFJK, ICntrl=    100127 FMM=F ISym2X=0 I1Cent= 0 IOpClX= 0 NMat=1 NMatS=1 NMatT=0.
 FoFJK:  IHMeth= 1 ICntrl=  100127 DoSepK=F KAlg= 0 I1Cent=   0 FoldK=F
 IRaf=         0 NMat=   1 IRICut=       1 DoRegI=T DoRafI=F ISym2E= 0.
 FoFCou: FMM=F IPFlag=           0 FMFlag=      100000 FMFlg1=         800
         NFxFlg=           0 DoJE=F BraDBF=F KetDBF=F FulRan=T
         wScrn=  0.000000 ICntrl=  100127 IOpCl=  0 I1Cent=           0 NGrid=           0
         NMat0=    1 NMatS0=      1 NMatT0=    0 NMatD0=    1 NMtDS0=    0 NMtDT0=    0
 Symmetry not used in FoFCou.
 Leave Link  703 at Tue Jul 19 06:23:22 2016, MaxMem=   524288000 cpu:       177.3
 (Enter /opt/g09/l716.exe)
 Dipole        = 8.86640807D-04-1.46432220D-01-1.63062611D-01
 Polarizability= 6.14842279D+01-1.47541726D+01 5.84913337D+01
                 1.50540805D+01 2.67207171D+00 5.60915617D+01
 -------------------------------------------------------------------
 Center     Atomic                   Forces (Hartrees/Bohr)
 Number     Number              X              Y              Z
 -------------------------------------------------------------------
      1        8           0.000000927   -0.000008374   -0.000007948
      2       17          -0.000000591    0.000001833    0.000000382
      3       22           0.000003025    0.000006455    0.000009152
      4       17          -0.000003361    0.000000086   -0.000001586
 -------------------------------------------------------------------
 Cartesian Forces:  Max     0.000009152 RMS     0.000004885
 Force constants in Cartesian coordinates: 
                1             2             3             4             5 
      1  0.147722D-01
      2  0.108429D-01  0.281273D+00
      3  0.265276D-01  0.265445D+00  0.269172D+00
      4  0.412422D-02 -0.139915D-01 -0.799539D-02  0.775621D-01
      5 -0.551574D-02  0.843370D-02  0.131630D-02 -0.155993D-01  0.814201D-02
      6 -0.381493D-03 -0.827463D-02 -0.780196D-02  0.734809D-01 -0.102828D-01
      7 -0.248288D-01 -0.417762D-02 -0.318755D-01 -0.783336D-01  0.214990D-01
      8 -0.422282D-02 -0.281174D+00 -0.257787D+00  0.244099D-01 -0.182734D-01
      9 -0.319267D-01 -0.257875D+00 -0.268733D+00 -0.661926D-01  0.795813D-02
     10  0.593241D-02  0.732623D-02  0.133433D-01 -0.335272D-02 -0.383949D-03
     11 -0.110437D-02 -0.853278D-02 -0.897400D-02  0.518101D-02  0.169771D-02
     12  0.578064D-02  0.704688D-03  0.736255D-02  0.707111D-03  0.100833D-02
                6             7             8             9            10 
      6  0.735985D-01
      7 -0.689338D-01  0.173578D+00
      8  0.112828D-01 -0.865798D-01  0.377702D+00
      9 -0.675200D-01  0.119595D+00  0.239984D+00  0.352133D+00
     10 -0.416560D-02 -0.704155D-01  0.663928D-01 -0.214759D-01  0.678358D-01
     11  0.727463D-02  0.692584D-01 -0.782544D-01  0.993295D-02 -0.733351D-01
     12  0.172341D-02 -0.187860D-01  0.652056D-02 -0.158802D-01  0.122983D-01
               11            12 
     11  0.850895D-01
     12 -0.823358D-02  0.679420D-02
 FormGI is forming the generalized inverse of G from B-inverse, IUseBI=4.
 Force constants in internal coordinates: 
                1             2             3             4             5 
      1  0.542048D+00
      2  0.196077D-01  0.151433D+00
      3  0.196113D-01  0.964923D-02  0.151714D+00
      4 -0.724272D-02 -0.707141D-02  0.992320D-02  0.618604D-01
      5 -0.692083D-02  0.991967D-02 -0.705910D-02 -0.420925D-01  0.619526D-01
      6  0.141625D-01 -0.284840D-02 -0.286530D-02 -0.197712D-01 -0.198572D-01
      7 -0.174202D-03 -0.526403D-04 -0.484698D-04  0.113839D-03  0.587964D-04
                6             7 
      6  0.396288D-01
      7 -0.168144D-03  0.440021D-03
 Leave Link  716 at Tue Jul 19 06:23:22 2016, MaxMem=   524288000 cpu:         0.3
 (Enter /opt/g09/l103.exe)

 GradGradGradGradGradGradGradGradGradGradGradGradGradGradGradGradGradGrad
 Berny optimization.
 Red2BG is reusing G-inverse.
 Internal  Forces:  Max     0.000011480 RMS     0.000004472
 Search for a local minimum.
 Step number   1 out of a maximum of  100
 All quantities printed in internal units (Hartrees-Bohrs-Radians)
 RMS Force = .44716D-05 SwitMx=.10000D-02 MixMth= 2
 Mixed Optimization -- En-DIIS/RFO-DIIS
 Second derivative matrix not updated -- analytic derivatives used.
 The second derivative matrix:
                          R1        R2        R3        A1        A2
           R1           0.54205
           R2           0.01961   0.15143
           R3           0.01961   0.00965   0.15171
           A1          -0.00724  -0.00707   0.00992   0.06186
           A2          -0.00692   0.00992  -0.00706  -0.04209   0.06195
           A3           0.01416  -0.00285  -0.00287  -0.01977  -0.01986
           D1          -0.00017  -0.00005  -0.00005   0.00011   0.00006
                          A3        D1
           A3           0.03963
           D1          -0.00017   0.00044
 ITU=  0
     Eigenvalues ---    0.00044   0.05847   0.09750   0.14842   0.15959
     Eigenvalues ---    0.54465
 RFO step:  Lambda= 0.00000000D+00 EMin= 4.39222506D-04
 Linear search not attempted -- first point.
 Iteration  1 RMS(Cart)=  0.00002520 RMS(Int)=  0.00000000
 Iteration  2 RMS(Cart)=  0.00000000 RMS(Int)=  0.00000000
 ITry= 1 IFail=0 DXMaxC= 4.02D-05 DCOld= 1.00D+10 DXMaxT= 2.56D+00 DXLimC= 3.00D+00 Rises=F
 Variable       Old X    -DE/DX   Delta X   Delta X   Delta X     New X
                                 (Linear)    (Quad)   (Total)
    R1        2.99912  -0.00001   0.00000  -0.00002  -0.00002   2.99910
    R2        4.22091   0.00000   0.00000   0.00001   0.00001   4.22092
    R3        4.22099   0.00000   0.00000  -0.00001  -0.00001   4.22097
    A1        2.01913   0.00000   0.00000   0.00000   0.00000   2.01913
    A2        2.01927   0.00000   0.00000   0.00001   0.00001   2.01928
    A3        2.24471   0.00000   0.00000  -0.00001  -0.00001   2.24470
    D1        3.12850   0.00000   0.00000  -0.00007  -0.00007   3.12843
         Item               Value     Threshold  Converged?
 Maximum Force            0.000011     0.000015     YES
 RMS     Force            0.000004     0.000010     YES
 Maximum Displacement     0.000040     0.000060     YES
 RMS     Displacement     0.000025     0.000040     YES
 Predicted change in Energy=-1.462319D-10
 Optimization completed.
    -- Stationary point found.
                           ----------------------------
                           !   Optimized Parameters   !
                           ! (Angstroms and Degrees)  !
 --------------------------                            --------------------------
 ! Name  Definition              Value          Derivative Info.                !
 --------------------------------------------------------------------------------
 ! R1    R(1,3)                  1.5871         -DE/DX =    0.0                 !
 ! R2    R(2,3)                  2.2336         -DE/DX =    0.0                 !
 ! R3    R(3,4)                  2.2336         -DE/DX =    0.0                 !
 ! A1    A(1,3,2)              115.6877         -DE/DX =    0.0                 !
 ! A2    A(1,3,4)              115.6958         -DE/DX =    0.0                 !
 ! A3    A(2,3,4)              128.6126         -DE/DX =    0.0                 !
 ! D1    D(1,3,4,2)            179.2496         -DE/DX =    0.0                 !
 --------------------------------------------------------------------------------
 Lowest energy point so far.  Saving SCF results.
 GradGradGradGradGradGradGradGradGradGradGradGradGradGradGradGradGradGrad

 Largest change from initial coordinates is atom    0       0.000 Angstoms.
 Leave Link  103 at Tue Jul 19 06:23:22 2016, MaxMem=   524288000 cpu:         0.1
 (Enter /opt/g09/l202.exe)
                          Input orientation:                          
 ---------------------------------------------------------------------
 Center     Atomic      Atomic             Coordinates (Angstroms)
 Number     Number       Type             X           Y           Z
 ---------------------------------------------------------------------
      1          8           0       -1.229070    1.720550    0.042870
      2         17           0       -2.896420    0.858840   -2.613890
      3         22           0       -1.308770    0.588190   -1.066270
      4         17           0        0.166760   -1.075880   -0.859210
 ---------------------------------------------------------------------
                    Distance matrix (angstroms):
                    1          2          3          4
     1  O    0.000000
     2  Cl   3.252841   0.000000
     3  Ti   1.587067   2.233610   0.000000
     4  Cl   3.253016   4.025558   2.233650   0.000000
 Symmetry turned off by external request.
 Stoichiometry    Cl2OTi
 Framework group  C1[X(Cl2OTi)]
 Deg. of freedom     6
 Full point group                 C1      NOp   1
 Rotational constants (GHZ):      5.4645758      1.7836577      1.3447423
 Leave Link  202 at Tue Jul 19 06:23:22 2016, MaxMem=   524288000 cpu:         0.1
 (Enter /opt/g09/l716.exe)
 Dipole        = 8.86640807D-04-1.46432220D-01-1.63062611D-01
 Polarizability= 6.14842279D+01-1.47541726D+01 5.84913337D+01
                 1.50540805D+01 2.67207171D+00 5.60915617D+01
 Full mass-weighted force constant matrix:
 Low frequencies ---   -7.2917   -4.1559   -0.8266    0.0017    0.0023    0.0040
 Low frequencies ---   20.1148  112.2154  212.1532
 Diagonal vibrational polarizability:
     2073.4511335    1298.9659596    1594.0884421
 Harmonic frequencies (cm**-1), IR intensities (KM/Mole), Raman scattering
 activities (A**4/AMU), depolarization ratios for plane and unpolarized
 incident light, reduced masses (AMU), force constants (mDyne/A),
 and normal coordinates:
                      1                      2                      3
                      A                      A                      A
 Frequencies --     20.0454               112.2150               212.1531
 Red. masses --     30.6332                33.5542                19.1510
 Frc consts  --      0.0073                 0.2489                 0.5079
 IR Inten    --     73.5969                 3.4458                 0.0033
  Atom  AN      X      Y      Z        X      Y      Z        X      Y      Z
     1   8    -0.45  -0.36   0.40    -0.03  -0.32  -0.30     0.70  -0.44   0.40
     2  17    -0.16  -0.14   0.15    -0.30   0.47   0.08    -0.12  -0.10  -0.23
     3  22     0.40   0.31  -0.35    -0.02  -0.29  -0.29    -0.07   0.05  -0.04
     4  17    -0.17  -0.13   0.14     0.34   0.07   0.45    -0.10   0.24   0.10
                      4                      5                      6
                      A                      A                      A
 Frequencies --    386.7821               518.0693              1093.9819
 Red. masses --     34.2993                40.4086                19.3288
 Frc consts  --      3.0232                 6.3900                13.6294
 IR Inten    --     24.3100               199.1847               256.0652
  Atom  AN      X      Y      Z        X      Y      Z        X      Y      Z
     1   8    -0.02  -0.23  -0.23    -0.19   0.12  -0.11     0.05   0.68   0.66
     2  17     0.44  -0.06   0.45    -0.34   0.09  -0.30     0.00   0.01   0.00
     3  22    -0.02  -0.23  -0.22     0.54  -0.34   0.31    -0.02  -0.23  -0.23
     4  17    -0.41   0.48  -0.04    -0.32   0.33  -0.08     0.00   0.00   0.01

 -------------------
 - Thermochemistry -
 -------------------
 Temperature   298.150 Kelvin.  Pressure   1.00000 Atm.
 Atom     1 has atomic number  8 and mass  15.99491
 Atom     2 has atomic number 17 and mass  34.96885
 Atom     3 has atomic number 22 and mass  47.94795
 Atom     4 has atomic number 17 and mass  34.96885
 Molecular mass:   133.88057 amu.
 Principal axes and moments of inertia in atomic units:
                           1         2         3
     Eigenvalues --   330.261901011.820401342.07212
           X            0.76093   0.05394   0.64659
           Y           -0.48063   0.71631   0.50587
           Z            0.43587   0.69570  -0.57099
 This molecule is an asymmetric top.
 Rotational symmetry number  1.
 Rotational temperatures (Kelvin)      0.26226     0.08560     0.06454
 Rotational constants (GHZ):           5.46458     1.78366     1.34474
 Zero-point vibrational energy      14015.7 (Joules/Mol)
                                    3.34984 (Kcal/Mol)
 Warning -- explicit consideration of   5 degrees of freedom as
           vibrations may cause significant error
 Vibrational temperatures:     28.84   161.45   305.24   556.49   745.39
          (Kelvin)           1573.99
 
 Zero-point correction=                           0.005338 (Hartree/Particle)
 Thermal correction to Energy=                    0.010883
 Thermal correction to Enthalpy=                  0.011827
 Thermal correction to Gibbs Free Energy=        -0.027020
 Sum of electronic and zero-point Energies=          -1845.103409
 Sum of electronic and thermal Energies=             -1845.097864
 Sum of electronic and thermal Enthalpies=           -1845.096920
 Sum of electronic and thermal Free Energies=        -1845.135767
 
                     E (Thermal)             CV                S
                      KCal/Mol        Cal/Mol-Kelvin    Cal/Mol-Kelvin
 Total                    6.829             14.703             81.761
 Electronic               0.000              0.000              0.000
 Translational            0.889              2.981             40.588
 Rotational               0.889              2.981             27.597
 Vibrational              5.051              8.741             13.576
 Vibration     1          0.593              1.986              6.630
 Vibration     2          0.607              1.939              3.230
 Vibration     3          0.643              1.822              2.025
 Vibration     4          0.755              1.498              1.013
 Vibration     5          0.873              1.210              0.614
                       Q            Log10(Q)             Ln(Q)
 Total Bot       0.268186D+13         12.428436         28.617531
 Total V=0       0.765389D+15         14.883882         34.271406
 Vib (Bot)       0.183734D+00         -0.735811         -1.694267
 Vib (Bot)    1  0.103337D+02          1.014257          2.335414
 Vib (Bot)    2  0.182431D+01          0.261098          0.601199
 Vib (Bot)    3  0.935382D+00         -0.029011         -0.066801
 Vib (Bot)    4  0.465232D+00         -0.332330         -0.765219
 Vib (Bot)    5  0.312119D+00         -0.505679         -1.164370
 Vib (V=0)       0.524367D+02          1.719636          3.959607
 Vib (V=0)    1  0.108458D+02          1.035263          2.383780
 Vib (V=0)    2  0.239158D+01          0.378686          0.871956
 Vib (V=0)    3  0.156063D+01          0.193300          0.445090
 Vib (V=0)    4  0.118296D+01          0.072972          0.168024
 Vib (V=0)    5  0.108942D+01          0.037196          0.085647
 Electronic      0.100000D+01          0.000000          0.000000
 Translational   0.608880D+08          7.784532         17.924546
 Rotational      0.239726D+06          5.379715         12.387252
 
                                                       ./0_0-verify-Cl2OTi.g09
                                                             IR Spectrum
 
     1                                                                                                                               
     0                                                                  5               3                   2          1             
     9                                                                  1               8                   1          1          2  
     4                                                                  8               7                   2          2          0  
 
     X                                                                  X               X                              X          X  
     X                                                                  X               X                                         X  
     X                                                                  X                                                         X  
     X                                                                  X                                                         X  
     X                                                                  X                                                         X  
     X                                                                  X                                                         X  
     X                                                                  X                                                            
     X                                                                  X                                                            
     X                                                                  X                                                            
     X                                                                  X                                                            
     X                                                                  X                                                            
     X                                                                  X                                                            
     X                                                                  X                                                            
     X                                                                  X                                                            
     X                                                                  X                                                            
     X                                                                  X                                                            
     X                                                                                                                               
     X                                                                                                                               
     X                                                                                                                               
     X                                                                                                                               
 
 -------------------------------------------------------------------
 Center     Atomic                   Forces (Hartrees/Bohr)
 Number     Number              X              Y              Z
 -------------------------------------------------------------------
      1        8           0.000000927   -0.000008374   -0.000007948
      2       17          -0.000000591    0.000001833    0.000000382
      3       22           0.000003025    0.000006455    0.000009152
      4       17          -0.000003361    0.000000086   -0.000001586
 -------------------------------------------------------------------
 Cartesian Forces:  Max     0.000009152 RMS     0.000004885
 Force constants in Cartesian coordinates: 
                1             2             3             4             5 
      1  0.147722D-01
      2  0.108429D-01  0.281273D+00
      3  0.265276D-01  0.265445D+00  0.269172D+00
      4  0.412422D-02 -0.139915D-01 -0.799539D-02  0.775621D-01
      5 -0.551574D-02  0.843370D-02  0.131630D-02 -0.155993D-01  0.814201D-02
      6 -0.381493D-03 -0.827463D-02 -0.780196D-02  0.734809D-01 -0.102828D-01
      7 -0.248288D-01 -0.417762D-02 -0.318755D-01 -0.783336D-01  0.214990D-01
      8 -0.422282D-02 -0.281174D+00 -0.257787D+00  0.244099D-01 -0.182734D-01
      9 -0.319267D-01 -0.257875D+00 -0.268733D+00 -0.661926D-01  0.795813D-02
     10  0.593241D-02  0.732623D-02  0.133433D-01 -0.335272D-02 -0.383949D-03
     11 -0.110437D-02 -0.853278D-02 -0.897400D-02  0.518101D-02  0.169771D-02
     12  0.578064D-02  0.704688D-03  0.736255D-02  0.707111D-03  0.100833D-02
                6             7             8             9            10 
      6  0.735985D-01
      7 -0.689338D-01  0.173578D+00
      8  0.112828D-01 -0.865798D-01  0.377702D+00
      9 -0.675200D-01  0.119595D+00  0.239984D+00  0.352133D+00
     10 -0.416560D-02 -0.704155D-01  0.663928D-01 -0.214759D-01  0.678358D-01
     11  0.727463D-02  0.692584D-01 -0.782544D-01  0.993295D-02 -0.733351D-01
     12  0.172341D-02 -0.187860D-01  0.652056D-02 -0.158802D-01  0.122983D-01
               11            12 
     11  0.850895D-01
     12 -0.823358D-02  0.679420D-02
 Red2BG is reusing G-inverse.
 Force constants in internal coordinates: 
                1             2             3             4             5 
      1  0.542048D+00
      2  0.196077D-01  0.151433D+00
      3  0.196113D-01  0.964923D-02  0.151714D+00
      4 -0.724272D-02 -0.707141D-02  0.992320D-02  0.618604D-01
      5 -0.692083D-02  0.991967D-02 -0.705910D-02 -0.420925D-01  0.619526D-01
      6  0.141625D-01 -0.284840D-02 -0.286530D-02 -0.197712D-01 -0.198572D-01
      7 -0.174202D-03 -0.526403D-04 -0.484698D-04  0.113839D-03  0.587964D-04
                6             7 
      6  0.396288D-01
      7 -0.168144D-03  0.440021D-03
 Leave Link  716 at Tue Jul 19 06:23:22 2016, MaxMem=   524288000 cpu:         0.2
 (Enter /opt/g09/l9999.exe)
 1\1\GINC-GAUGUIN\Freq\RB971\6-311+G(d,p)\Cl2O1Ti1\PB556\19-Jul-2016\0\
 \#p rB971/6-311+G(d,p) Opt=(Tight, CalcAll, MaxCycles=512, MaxStep=256
 ) Freq GFInput Population=None Integral(Grid=UltraFine) Geom=Connectiv
 ity SCF=XQC Guess=MIX NoSymmetry\\./0_0-verify-Cl2OTi.g09\\0,1\O,-1.22
 907,1.72055,0.04287\Cl,-2.89642,0.85884,-2.61389\Ti,-1.30877,0.58819,-
 1.06627\Cl,0.16676,-1.07588,-0.85921\\Version=ES64L-G09RevD.01\HF=-184
 5.1087468\RMSD=2.686e-09\RMSF=4.885e-06\ZeroPoint=0.0053383\Thermal=0.
 0108826\Dipole=0.0008866,-0.1464322,-0.1630626\DipoleDeriv=-0.4180104,
 -0.1466582,0.066783,-0.1479669,-1.0129758,-0.5418785,0.0653137,-0.5442
 176,-1.0011243,-0.8319111,0.0512823,-0.4152828,0.0094167,-0.3072801,0.
 1160684,-0.4503763,0.1631862,-0.7904486,2.0162531,-0.3235684,0.3630222
 ,-0.3229561,2.171612,0.2802284,0.3638544,0.2813682,2.1038849,-0.766331
 6,0.4189444,-0.0145224,0.4615063,-0.8513561,0.1455817,0.0212082,0.0996
 632,-0.3123121\Polar=61.4842279,-14.7541726,58.4913337,15.0540805,2.67
 20717,56.0915617\PG=C01 [X(Cl2O1Ti1)]\NImag=0\\0.01477220,0.01084293,0
 .28127280,0.02652758,0.26544460,0.26917239,0.00412422,-0.01399154,-0.0
 0799539,0.07756215,-0.00551574,0.00843370,0.00131630,-0.01559932,0.008
 14201,-0.00038149,-0.00827463,-0.00780196,0.07348089,-0.01028276,0.073
 59851,-0.02482883,-0.00417762,-0.03187547,-0.07833365,0.02149902,-0.06
 893380,0.17357795,-0.00422282,-0.28117372,-0.25778690,0.02440985,-0.01
 827342,0.01128277,-0.08657984,0.37770156,-0.03192673,-0.25787465,-0.26
 873297,-0.06619261,0.00795813,-0.06751995,0.11959528,0.23998357,0.3521
 3308,0.00593241,0.00732623,0.01334329,-0.00335272,-0.00038395,-0.00416
 560,-0.07041547,0.06639281,-0.02147594,0.06783578,-0.00110437,-0.00853
 278,-0.00897400,0.00518101,0.00169771,0.00727463,0.06925845,-0.0782544
 2,0.00993295,-0.07333509,0.08508948,0.00578064,0.00070469,0.00736255,0
 .00070711,0.00100833,0.00172341,-0.01878601,0.00652056,-0.01588016,0.0
 1229825,-0.00823358,0.00679420\\-0.00000093,0.00000837,0.00000795,0.00
 000059,-0.00000183,-0.00000038,-0.00000303,-0.00000646,-0.00000915,0.0
 0000336,-0.00000009,0.00000159\\\@


 MOST BUREAUCRACIES FUNCTION LIKE A SEPTIC TANK.
 THE LARGE CHUNKS RISE TO THE TOP.
 Leave Link 9999 at Tue Jul 19 06:23:22 2016, MaxMem=   524288000 cpu:         0.2
 Job cpu time:       0 days  0 hours  6 minutes 57.3 seconds.
 File lengths (MBytes):  RWF=     17 Int=      0 D2E=      0 Chk=      2 Scr=      1
 Normal termination of Gaussian 09 at Tue Jul 19 06:23:22 2016.
 (Enter /opt/g09/l1.exe)
 Link1:  Proceeding to internal job step number  2.
 ----------------------------------------------------------------------
 #P Geom=AllCheck Guess=TCheck SCRF=Check GenChk RB971/6-311+G(d,p) Fre
 q
 ----------------------------------------------------------------------
 1/6=512,7=10,8=256,10=4,29=7,30=1,38=1,40=1/1,3;
 2/12=2,15=1,40=1/2;
 3/5=4,6=6,7=111,11=2,14=-4,16=1,24=10,25=1,30=1,70=2,71=2,74=-20,75=-5,116=1,140=1/1,2,3;
 4/5=101/1;
 5/5=2,8=3,13=1,98=1/2,8;
 8/6=4,10=90,11=11/1;
 11/6=1,8=1,9=11,15=111,16=1,31=1/1,2,10;
 10/6=1,31=1/2;
 7/8=1,10=1,25=1,30=1/1,2,3,16;
 1/6=512,7=10,8=256,10=4,30=1/3;
 99//99;
 Leave Link    1 at Tue Jul 19 06:23:22 2016, MaxMem=   524288000 cpu:         0.4
 (Enter /opt/g09/l101.exe)
 Structure from the checkpoint file:  "/scratch/pb556/g09_run/ti_runs//Gau-11248.chk"
 -----------------------
 ./0_0-verify-Cl2OTi.g09
 -----------------------
 Charge =  0 Multiplicity = 1
 Redundant internal coordinates found in file.
 O,0,-1.22907,1.72055,0.04287
 Cl,0,-2.89642,0.85884,-2.61389
 Ti,0,-1.30877,0.58819,-1.06627
 Cl,0,0.16676,-1.07588,-0.85921
 Recover connectivity data from disk.
 NAtoms=      4 NQM=        4 NQMF=       0 NMMI=      0 NMMIF=      0
                NMic=       0 NMicF=      0.
                    Isotopes and Nuclear Properties:
 (Nuclear quadrupole moments (NQMom) in fm**2, nuclear magnetic moments (NMagM)
  in nuclear magnetons)

  Atom         1           2           3           4
 IAtWgt=          16          35          48          35
 AtmWgt=  15.9949146  34.9688527  47.9479467  34.9688527
 NucSpn=           0           3           0           3
 AtZEff=  -5.6000000 -14.2400000 -23.9800000 -14.2400000
 NQMom=    0.0000000  -8.1650000   0.0000000  -8.1650000
 NMagM=    0.0000000   0.8218740   0.0000000   0.8218740
 AtZNuc=   8.0000000  17.0000000  22.0000000  17.0000000
 Leave Link  101 at Tue Jul 19 06:23:22 2016, MaxMem=   524288000 cpu:         1.3
 (Enter /opt/g09/l103.exe)

 GradGradGradGradGradGradGradGradGradGradGradGradGradGradGradGradGradGrad
 Berny optimization.
 Initialization pass.
                           ----------------------------
                           !    Initial Parameters    !
                           ! (Angstroms and Degrees)  !
 --------------------------                            --------------------------
 ! Name  Definition              Value          Derivative Info.                !
 --------------------------------------------------------------------------------
 ! R1    R(1,3)                  1.5871         calculate D2E/DX2 analytically  !
 ! R2    R(2,3)                  2.2336         calculate D2E/DX2 analytically  !
 ! R3    R(3,4)                  2.2336         calculate D2E/DX2 analytically  !
 ! A1    A(1,3,2)              115.6877         calculate D2E/DX2 analytically  !
 ! A2    A(1,3,4)              115.6958         calculate D2E/DX2 analytically  !
 ! A3    A(2,3,4)              128.6126         calculate D2E/DX2 analytically  !
 ! D1    D(1,3,4,2)            179.2496         calculate D2E/DX2 analytically  !
 --------------------------------------------------------------------------------
 Trust Radius=2.56D+00 FncErr=1.00D-07 GrdErr=1.00D-07
 Number of steps in this run=      2 maximum allowed number of steps=      2.
 GradGradGradGradGradGradGradGradGradGradGradGradGradGradGradGradGradGrad

 Leave Link  103 at Tue Jul 19 06:23:22 2016, MaxMem=   524288000 cpu:         0.1
 (Enter /opt/g09/l202.exe)
                          Input orientation:                          
 ---------------------------------------------------------------------
 Center     Atomic      Atomic             Coordinates (Angstroms)
 Number     Number       Type             X           Y           Z
 ---------------------------------------------------------------------
      1          8           0       -1.229070    1.720550    0.042870
      2         17           0       -2.896420    0.858840   -2.613890
      3         22           0       -1.308770    0.588190   -1.066270
      4         17           0        0.166760   -1.075880   -0.859210
 ---------------------------------------------------------------------
                    Distance matrix (angstroms):
                    1          2          3          4
     1  O    0.000000
     2  Cl   3.252841   0.000000
     3  Ti   1.587067   2.233610   0.000000
     4  Cl   3.253016   4.025558   2.233650   0.000000
 Symmetry turned off by external request.
 Stoichiometry    Cl2OTi
 Framework group  C1[X(Cl2OTi)]
 Deg. of freedom     6
 Full point group                 C1      NOp   1
 Rotational constants (GHZ):      5.4645758      1.7836577      1.3447423
 Leave Link  202 at Tue Jul 19 06:23:22 2016, MaxMem=   524288000 cpu:         0.0
 (Enter /opt/g09/l301.exe)
 Standard basis: 6-311+G(d,p) (5D, 7F)
 Ernie: Thresh=  0.10000D-02 Tol=  0.10000D-05 Strict=F.
 AO basis set in the form of general basis input (Overlap normalization):
      1 0
 S   6 1.00       0.000000000000
      0.8588500000D+04  0.1895150083D-02
      0.1297230000D+04  0.1438590063D-01
      0.2992960000D+03  0.7073200310D-01
      0.8737710000D+02  0.2400010105D+00
      0.2567890000D+02  0.5947970261D+00
      0.3740040000D+01  0.2808020123D+00
 SP   3 1.00       0.000000000000
      0.4211750000D+02  0.1138890124D+00  0.3651139738D-01
      0.9628370000D+01  0.9208111006D+00  0.2371529830D+00
      0.2853320000D+01 -0.3274470358D-02  0.8197019412D+00
 SP   1 1.00       0.000000000000
      0.9056610000D+00  0.1000000000D+01  0.1000000000D+01
 SP   1 1.00       0.000000000000
      0.2556110000D+00  0.1000000000D+01  0.1000000000D+01
 SP   1 1.00       0.000000000000
      0.8450000000D-01  0.1000000000D+01  0.1000000000D+01
 D   1 1.00       0.000000000000
      0.1292000000D+01  0.1000000000D+01
 ****
      2 0
 S   6 1.00       0.000000000000
      0.1058190000D+06  0.7380002465D-03
      0.1587200000D+05  0.5718001910D-02
      0.3619650000D+04  0.2949500985D-01
      0.1030800000D+04  0.1172860392D+00
      0.3399080000D+03  0.3629491212D+00
      0.1245380000D+03  0.5841491951D+00
 S   3 1.00       0.000000000000
      0.1245380000D+03  0.1341769734D+00
      0.4951350000D+02  0.6242498762D+00
      0.2080560000D+02  0.2917559421D+00
 S   1 1.00       0.000000000000
      0.6583460000D+01  0.1000000000D+01
 S   1 1.00       0.000000000000
      0.2564680000D+01  0.1000000000D+01
 S   1 1.00       0.000000000000
      0.5597630000D+00  0.1000000000D+01
 S   1 1.00       0.000000000000
      0.1832730000D+00  0.1000000000D+01
 SP   1 1.00       0.000000000000
      0.4830000000D-01  0.1000000000D+01  0.1000000000D+01
 P   5 1.00       0.000000000000
      0.5897760000D+03  0.3665569355D-02
      0.1398490000D+03  0.2836791942D-01
      0.4514130000D+02  0.1247566028D+00
      0.1687330000D+02  0.3396546305D+00
      0.2771520000D+01  0.7475859630D+00
 P   2 1.00       0.000000000000
      0.6741100000D+01 -0.1572243813D+01
      0.2771520000D+01  0.9923888817D+00
 P   1 1.00       0.000000000000
      0.1023870000D+01  0.1000000000D+01
 P   1 1.00       0.000000000000
      0.3813680000D+00  0.1000000000D+01
 P   1 1.00       0.000000000000
      0.1094370000D+00  0.1000000000D+01
 D   1 1.00       0.000000000000
      0.7500000000D+00  0.1000000000D+01
 ****
      3 0
 S   6 1.00       0.000000000000
      0.2060820000D+06  0.5673151380D-03
      0.3122680000D+05  0.4379672866D-02
      0.7199320000D+04  0.2242029425D-01
      0.2048750000D+04  0.9063426645D-01
      0.6707900000D+03  0.2890357165D+00
      0.2436500000D+03  0.6803470061D+00
 S   1 1.00       0.000000000000
      0.9592500000D+02  0.1000000000D+01
 S   1 1.00       0.000000000000
      0.3981010000D+02  0.1000000000D+01
 S   1 1.00       0.000000000000
      0.1222050000D+02  0.1000000000D+01
 S   1 1.00       0.000000000000
      0.5008820000D+01  0.1000000000D+01
 S   1 1.00       0.000000000000
      0.1285690000D+01  0.1000000000D+01
 S   1 1.00       0.000000000000
      0.5128060000D+00  0.1000000000D+01
 S   1 1.00       0.000000000000
      0.8557600000D-01  0.1000000000D+01
 S   1 1.00       0.000000000000
      0.3330200000D-01  0.1000000000D+01
 S   1 1.00       0.000000000000
      0.9991000000D-02  0.1000000000D+01
 P   5 1.00       0.000000000000
      0.1264700000D+04  0.3122017423D-02
      0.3012300000D+03  0.2516579464D-01
      0.9697770000D+02  0.1184178291D+00
      0.3637270000D+02  0.3522190030D+00
      0.1478140000D+02  0.6219379661D+00
 P   1 1.00       0.000000000000
      0.6274650000D+01  0.1000000000D+01
 P   1 1.00       0.000000000000
      0.2478780000D+01  0.1000000000D+01
 P   1 1.00       0.000000000000
      0.1016180000D+01  0.1000000000D+01
 P   1 1.00       0.000000000000
      0.3981620000D+00  0.1000000000D+01
 P   1 1.00       0.000000000000
      0.1015610000D+00  0.1000000000D+01
 P   1 1.00       0.000000000000
      0.3405400000D-01  0.1000000000D+01
 D   3 1.00       0.000000000000
      0.2599240000D+02  0.5411706153D-01
      0.7086340000D+01  0.2873032281D+00
      0.2348710000D+01  0.7854540223D+00
 D   1 1.00       0.000000000000
      0.8001980000D+00  0.1000000000D+01
 D   1 1.00       0.000000000000
      0.2620490000D+00  0.1000000000D+01
 D   1 1.00       0.000000000000
      0.7200000000D-01  0.1000000000D+01
 F   1 1.00       0.000000000000
      0.6900000000D+00  0.1000000000D+01
 ****
      4 0
 S   6 1.00       0.000000000000
      0.1058190000D+06  0.7380002465D-03
      0.1587200000D+05  0.5718001910D-02
      0.3619650000D+04  0.2949500985D-01
      0.1030800000D+04  0.1172860392D+00
      0.3399080000D+03  0.3629491212D+00
      0.1245380000D+03  0.5841491951D+00
 S   3 1.00       0.000000000000
      0.1245380000D+03  0.1341769734D+00
      0.4951350000D+02  0.6242498762D+00
      0.2080560000D+02  0.2917559421D+00
 S   1 1.00       0.000000000000
      0.6583460000D+01  0.1000000000D+01
 S   1 1.00       0.000000000000
      0.2564680000D+01  0.1000000000D+01
 S   1 1.00       0.000000000000
      0.5597630000D+00  0.1000000000D+01
 S   1 1.00       0.000000000000
      0.1832730000D+00  0.1000000000D+01
 SP   1 1.00       0.000000000000
      0.4830000000D-01  0.1000000000D+01  0.1000000000D+01
 P   5 1.00       0.000000000000
      0.5897760000D+03  0.3665569355D-02
      0.1398490000D+03  0.2836791942D-01
      0.4514130000D+02  0.1247566028D+00
      0.1687330000D+02  0.3396546305D+00
      0.2771520000D+01  0.7475859630D+00
 P   2 1.00       0.000000000000
      0.6741100000D+01 -0.1572243813D+01
      0.2771520000D+01  0.9923888817D+00
 P   1 1.00       0.000000000000
      0.1023870000D+01  0.1000000000D+01
 P   1 1.00       0.000000000000
      0.3813680000D+00  0.1000000000D+01
 P   1 1.00       0.000000000000
      0.1094370000D+00  0.1000000000D+01
 D   1 1.00       0.000000000000
      0.7500000000D+00  0.1000000000D+01
 ****

   140 basis functions,   236 primitive gaussians,   150 cartesian basis functions
    32 alpha electrons       32 beta electrons
       nuclear repulsion energy       318.1336980256 Hartrees.
 IExCor= 1614 DFT=T Ex+Corr=B971 ExCW=0 ScaHFX=  0.210000
 ScaDFX=  1.000000  1.000000  1.000000  1.000000 ScalE2=  1.000000  1.000000
 IRadAn=      5 IRanWt=     -1 IRanGd=            0 ICorTp=0 IEmpDi=  4
 NAtoms=    4 NActive=    4 NUniq=    4 SFac= 1.00D+00 NAtFMM=   60 NAOKFM=F Big=F
 Integral buffers will be    131072 words long.
 Raffenetti 2 integral format.
 Two-electron integral symmetry is turned off.
 Leave Link  301 at Tue Jul 19 06:23:22 2016, MaxMem=   524288000 cpu:         0.4
 (Enter /opt/g09/l302.exe)
 NPDir=0 NMtPBC=     1 NCelOv=     1 NCel=       1 NClECP=     1 NCelD=      1
         NCelK=      1 NCelE2=     1 NClLst=     1 CellRange=     0.0.
 One-electron integrals computed using PRISM.
 NBasis=   140 RedAO= T EigKep=  1.03D-03  NBF=   140
 NBsUse=   140 1.00D-06 EigRej= -1.00D+00 NBFU=   140
 Precomputing XC quadrature grid using
 IXCGrd= 4 IRadAn=           5 IRanWt=          -1 IRanGd=           0 AccXCQ= 0.00D+00.
 Generated NRdTot=       0 NPtTot=           0 NUsed=           0 NTot=          32
 NSgBfM=   144   144   144   144   144 MxSgAt=     4 MxSgA2=     4.
 Leave Link  302 at Tue Jul 19 06:23:23 2016, MaxMem=   524288000 cpu:         1.6
 (Enter /opt/g09/l303.exe)
 DipDrv:  MaxL=1.
 Leave Link  303 at Tue Jul 19 06:23:23 2016, MaxMem=   524288000 cpu:         0.2
 (Enter /opt/g09/l401.exe)
 Initial guess from the checkpoint file:  "/scratch/pb556/g09_run/ti_runs//Gau-11248.chk"
 B after Tr=     0.000000    0.000000    0.000000
         Rot=    1.000000    0.000000    0.000000    0.000000 Ang=   0.00 deg.
 Guess basis will be translated and rotated to current coordinates.
 JPrj=2 DoOrth=T DoCkMO=T.
 Leave Link  401 at Tue Jul 19 06:23:23 2016, MaxMem=   524288000 cpu:         0.9
 (Enter /opt/g09/l502.exe)
 Closed shell SCF:
 Using DIIS extrapolation, IDIIS=  1040.
 Two-electron integral symmetry not used.
 Keep R1 ints in memory in canonical form, NReq=50800383.
 IVT=       75550 IEndB=       75550 NGot=   524288000 MDV=   475499066
 LenX=   475499066 LenY=   475476125
 Requested convergence on RMS density matrix=1.00D-08 within  64 cycles.
 Requested convergence on MAX density matrix=1.00D-06.
 Requested convergence on             energy=1.00D-06.
 No special actions if energy rises.
 FoFCou: FMM=F IPFlag=           0 FMFlag=           0 FMFlg1=           0
         NFxFlg=           0 DoJE=F BraDBF=F KetDBF=F FulRan=T
         wScrn=  0.000000 ICntrl=     600 IOpCl=  0 I1Cent=           0 NGrid=           0
         NMat0=    1 NMatS0=   9870 NMatT0=    0 NMatD0=    1 NMtDS0=    0 NMtDT0=    0
 Symmetry not used in FoFCou.

 Cycle   1  Pass 1  IDiag  1:
 E= -1845.10874683825    
 DIIS: error= 1.67D-08 at cycle   1 NSaved=   1.
 NSaved= 1 IEnMin= 1 EnMin= -1845.10874683825     IErMin= 1 ErrMin= 1.67D-08
 ErrMax= 1.67D-08  0.00D+00 EMaxC= 1.00D-01 BMatC= 1.76D-14 BMatP= 1.76D-14
 IDIUse=1 WtCom= 1.00D+00 WtEn= 0.00D+00
 Coeff-Com:  0.100D+01
 Coeff:      0.100D+01
 Gap=     0.177 Goal=   None    Shift=    0.000
 RMSDP=2.89D-09 MaxDP=8.02D-08              OVMax= 1.51D-07

 SCF Done:  E(RB971) =  -1845.10874684     A.U. after    1 cycles
            NFock=  1  Conv=0.29D-08     -V/T= 2.0016
 KE= 1.842234455362D+03 PE=-5.014185829764D+03 EE= 1.008708929539D+03
 Leave Link  502 at Tue Jul 19 06:23:25 2016, MaxMem=   524288000 cpu:        14.0
 (Enter /opt/g09/l508.exe)
 QCSCF skips out because SCF is already converged.
 Leave Link  508 at Tue Jul 19 06:23:25 2016, MaxMem=   524288000 cpu:         0.0
 (Enter /opt/g09/l801.exe)
 DoSCS=F DFT=T ScalE2(SS,OS)=  1.000000  1.000000
 Range of M.O.s used for correlation:     1   140
 NBasis=   140 NAE=    32 NBE=    32 NFC=     0 NFV=     0
 NROrb=    140 NOA=    32 NOB=    32 NVA=   108 NVB=   108

 **** Warning!!: The largest alpha MO coefficient is  0.13340145D+02

 Leave Link  801 at Tue Jul 19 06:23:25 2016, MaxMem=   524288000 cpu:         0.2
 (Enter /opt/g09/l1101.exe)
 Using compressed storage, NAtomX=     4.
 Will process      5 centers per pass.
 Leave Link 1101 at Tue Jul 19 06:23:25 2016, MaxMem=   524288000 cpu:         2.1
 (Enter /opt/g09/l1102.exe)
 Symmetrizing basis deriv contribution to polar:
 IMax=3 JMax=2 DiffMx= 0.00D+00
 Leave Link 1102 at Tue Jul 19 06:23:25 2016, MaxMem=   524288000 cpu:         0.2
 (Enter /opt/g09/l1110.exe)
 Forming Gx(P) for the SCF density, NAtomX=     4.
 Integral derivatives from FoFJK, PRISM(SPDF).
 Do as many integral derivatives as possible in FoFJK.
 G2DrvN: MDV=     524287864.
 G2DrvN: will do     5 centers at a time, making    1 passes.
 Calling FoFCou, ICntrl=  3107 FMM=F I1Cent=   0 AccDes= 0.00D+00.
 FoFJK:  IHMeth= 1 ICntrl=    3107 DoSepK=F KAlg= 0 I1Cent=   0 FoldK=F
 IRaf=         0 NMat=   1 IRICut=       1 DoRegI=T DoRafI=F ISym2E= 0.
 FoFCou: FMM=F IPFlag=           0 FMFlag=      100000 FMFlg1=           0
         NFxFlg=           0 DoJE=F BraDBF=F KetDBF=F FulRan=T
         wScrn=  0.000000 ICntrl=    3107 IOpCl=  0 I1Cent=           0 NGrid=           0
         NMat0=    1 NMatS0=      1 NMatT0=    0 NMatD0=    1 NMtDS0=    0 NMtDT0=    0
 Symmetry not used in FoFCou.
 End of G2Drv F.D. properties file   721 does not exist.
 End of G2Drv F.D. properties file   722 does not exist.
 End of G2Drv F.D. properties file   788 does not exist.
 Leave Link 1110 at Tue Jul 19 06:23:33 2016, MaxMem=   524288000 cpu:        66.6
 (Enter /opt/g09/l1002.exe)
 Minotr:  Closed shell wavefunction.
          IDoAtm=1111
          Direct CPHF calculation.
          Differentiating once with respect to electric field.
                with respect to dipole field.
          Differentiating once with respect to nuclear coordinates.
          Requested convergence is 1.0D-08 RMS, and 1.0D-07 maximum.
          Secondary convergence is 1.0D-12 RMS, and 1.0D-12 maximum.
          NewPWx=T KeepS1=F KeepF1=F KeepIn=T MapXYZ=F SortEE=F KeepMc=T.
          MDV=     524287816 using IRadAn=       1.
 Generate precomputed XC quadrature information.
 Keep R1 ints in memory in canonical form, NReq=50750964.
 FoFCou: FMM=F IPFlag=           0 FMFlag=           0 FMFlg1=           0
         NFxFlg=           0 DoJE=F BraDBF=F KetDBF=F FulRan=T
         wScrn=  0.000000 ICntrl=     600 IOpCl=  0 I1Cent=           0 NGrid=           0
         NMat0=    1 NMatS0=   9870 NMatT0=    0 NMatD0=    1 NMtDS0=    0 NMtDT0=    0
 Symmetry not used in FoFCou.
          Solving linear equations simultaneously, MaxMat=       0.
          There are    15 degrees of freedom in the 1st order CPHF.  IDoFFX=6 NUNeed=     3.
     12 vectors produced by pass  0 Test12= 2.30D-14 6.67D-09 XBig12= 6.67D+01 4.30D+00.
 AX will form    12 AO Fock derivatives at one time.
     12 vectors produced by pass  1 Test12= 2.30D-14 6.67D-09 XBig12= 7.29D+01 2.75D+00.
     12 vectors produced by pass  2 Test12= 2.30D-14 6.67D-09 XBig12= 1.61D+01 9.01D-01.
     12 vectors produced by pass  3 Test12= 2.30D-14 6.67D-09 XBig12= 7.18D-01 3.38D-01.
     12 vectors produced by pass  4 Test12= 2.30D-14 6.67D-09 XBig12= 1.21D-02 5.66D-02.
     12 vectors produced by pass  5 Test12= 2.30D-14 6.67D-09 XBig12= 2.59D-04 4.80D-03.
     12 vectors produced by pass  6 Test12= 2.30D-14 6.67D-09 XBig12= 1.97D-06 3.38D-04.
      9 vectors produced by pass  7 Test12= 2.30D-14 6.67D-09 XBig12= 8.99D-09 2.91D-05.
      4 vectors produced by pass  8 Test12= 2.30D-14 6.67D-09 XBig12= 4.17D-11 1.85D-06.
      2 vectors produced by pass  9 Test12= 2.30D-14 6.67D-09 XBig12= 2.71D-13 1.92D-07.
      1 vectors produced by pass 10 Test12= 2.30D-14 6.67D-09 XBig12= 1.46D-15 8.91D-09.
 InvSVY:  IOpt=1 It=  1 EMax= 1.67D-15
 Solved reduced A of dimension   100 with    12 vectors.
 FullF1:  Do perturbations    1 to     3.
 Isotropic polarizability for W=    0.000000       58.69 Bohr**3.
 End of Minotr F.D. properties file   721 does not exist.
 End of Minotr F.D. properties file   722 does not exist.
 End of Minotr F.D. properties file   788 does not exist.
 Leave Link 1002 at Tue Jul 19 06:23:47 2016, MaxMem=   524288000 cpu:       103.9
 (Enter /opt/g09/l701.exe)
 Compute integral second derivatives.
 ... and contract with generalized density number  0.
 Leave Link  701 at Tue Jul 19 06:23:47 2016, MaxMem=   524288000 cpu:         3.8
 (Enter /opt/g09/l702.exe)
 L702 exits ... SP integral derivatives will be done elsewhere.
 Leave Link  702 at Tue Jul 19 06:23:47 2016, MaxMem=   524288000 cpu:         0.2
 (Enter /opt/g09/l703.exe)
 Compute integral second derivatives, UseDBF=F ICtDFT=           0.
 Integral derivatives from FoFJK, PRISM(SPDF).
 Calling FoFJK, ICntrl=    100127 FMM=F ISym2X=0 I1Cent= 0 IOpClX= 0 NMat=1 NMatS=1 NMatT=0.
 FoFJK:  IHMeth= 1 ICntrl=  100127 DoSepK=F KAlg= 0 I1Cent=   0 FoldK=F
 IRaf=         0 NMat=   1 IRICut=       1 DoRegI=T DoRafI=F ISym2E= 0.
 FoFCou: FMM=F IPFlag=           0 FMFlag=      100000 FMFlg1=         800
         NFxFlg=           0 DoJE=F BraDBF=F KetDBF=F FulRan=T
         wScrn=  0.000000 ICntrl=  100127 IOpCl=  0 I1Cent=           0 NGrid=           0
         NMat0=    1 NMatS0=      1 NMatT0=    0 NMatD0=    1 NMtDS0=    0 NMtDT0=    0
 Symmetry not used in FoFCou.
 Leave Link  703 at Tue Jul 19 06:24:10 2016, MaxMem=   524288000 cpu:       178.1
 (Enter /opt/g09/l716.exe)
 Dipole        = 8.86540119D-04-1.46431554D-01-1.63062079D-01
 Polarizability= 6.14842418D+01-1.47541785D+01 5.84913431D+01
                 1.50540871D+01 2.67207038D+00 5.60915714D+01
 Full mass-weighted force constant matrix:
 Low frequencies ---   -7.2908   -4.1545   -0.8195    0.0028    0.0053    0.0061
 Low frequencies ---   20.1150  112.2154  212.1532
 Diagonal vibrational polarizability:
     2073.4044327    1298.9368251    1594.0525971
 Harmonic frequencies (cm**-1), IR intensities (KM/Mole), Raman scattering
 activities (A**4/AMU), depolarization ratios for plane and unpolarized
 incident light, reduced masses (AMU), force constants (mDyne/A),
 and normal coordinates:
                      1                      2                      3
                      A                      A                      A
 Frequencies --     20.0456               112.2151               212.1531
 Red. masses --     30.6332                33.5542                19.1510
 Frc consts  --      0.0073                 0.2489                 0.5079
 IR Inten    --     73.5968                 3.4458                 0.0033
  Atom  AN      X      Y      Z        X      Y      Z        X      Y      Z
     1   8    -0.45  -0.36   0.40    -0.03  -0.32  -0.30     0.70  -0.44   0.40
     2  17    -0.16  -0.14   0.15    -0.30   0.47   0.08    -0.12  -0.10  -0.23
     3  22     0.40   0.31  -0.35    -0.02  -0.29  -0.29    -0.07   0.05  -0.04
     4  17    -0.17  -0.13   0.14     0.34   0.07   0.45    -0.10   0.24   0.10
                      4                      5                      6
                      A                      A                      A
 Frequencies --    386.7820               518.0693              1093.9817
 Red. masses --     34.2993                40.4086                19.3288
 Frc consts  --      3.0232                 6.3900                13.6294
 IR Inten    --     24.3100               199.1846               256.0649
  Atom  AN      X      Y      Z        X      Y      Z        X      Y      Z
     1   8    -0.02  -0.23  -0.23    -0.19   0.12  -0.11     0.05   0.68   0.66
     2  17     0.44  -0.06   0.45    -0.34   0.09  -0.30     0.00   0.01   0.00
     3  22    -0.02  -0.23  -0.22     0.54  -0.34   0.31    -0.02  -0.23  -0.23
     4  17    -0.41   0.48  -0.04    -0.32   0.33  -0.08     0.00   0.00   0.01

 -------------------
 - Thermochemistry -
 -------------------
 Temperature   298.150 Kelvin.  Pressure   1.00000 Atm.
 Atom     1 has atomic number  8 and mass  15.99491
 Atom     2 has atomic number 17 and mass  34.96885
 Atom     3 has atomic number 22 and mass  47.94795
 Atom     4 has atomic number 17 and mass  34.96885
 Molecular mass:   133.88057 amu.
 Principal axes and moments of inertia in atomic units:
                           1         2         3
     Eigenvalues --   330.261901011.820401342.07212
           X            0.76093   0.05394   0.64659
           Y           -0.48063   0.71631   0.50587
           Z            0.43587   0.69570  -0.57099
 This molecule is an asymmetric top.
 Rotational symmetry number  1.
 Rotational temperatures (Kelvin)      0.26226     0.08560     0.06454
 Rotational constants (GHZ):           5.46458     1.78366     1.34474
 Zero-point vibrational energy      14015.7 (Joules/Mol)
                                    3.34984 (Kcal/Mol)
 Warning -- explicit consideration of   5 degrees of freedom as
           vibrations may cause significant error
 Vibrational temperatures:     28.84   161.45   305.24   556.49   745.39
          (Kelvin)           1573.99
 
 Zero-point correction=                           0.005338 (Hartree/Particle)
 Thermal correction to Energy=                    0.010883
 Thermal correction to Enthalpy=                  0.011827
 Thermal correction to Gibbs Free Energy=        -0.027020
 Sum of electronic and zero-point Energies=          -1845.103409
 Sum of electronic and thermal Energies=             -1845.097864
 Sum of electronic and thermal Enthalpies=           -1845.096920
 Sum of electronic and thermal Free Energies=        -1845.135767
 
                     E (Thermal)             CV                S
                      KCal/Mol        Cal/Mol-Kelvin    Cal/Mol-Kelvin
 Total                    6.829             14.703             81.761
 Electronic               0.000              0.000              0.000
 Translational            0.889              2.981             40.588
 Rotational               0.889              2.981             27.597
 Vibrational              5.051              8.741             13.576
 Vibration     1          0.593              1.986              6.630
 Vibration     2          0.607              1.939              3.230
 Vibration     3          0.643              1.822              2.025
 Vibration     4          0.755              1.498              1.013
 Vibration     5          0.873              1.210              0.614
                       Q            Log10(Q)             Ln(Q)
 Total Bot       0.268183D+13         12.428432         28.617521
 Total V=0       0.765382D+15         14.883878         34.271396
 Vib (Bot)       0.183732D+00         -0.735815         -1.694277
 Vib (Bot)    1  0.103336D+02          1.014253          2.335403
 Vib (Bot)    2  0.182430D+01          0.261097          0.601199
 Vib (Bot)    3  0.935382D+00         -0.029011         -0.066801
 Vib (Bot)    4  0.465232D+00         -0.332330         -0.765218
 Vib (Bot)    5  0.312119D+00         -0.505679         -1.164370
 Vib (V=0)       0.524362D+02          1.719631          3.959597
 Vib (V=0)    1  0.108457D+02          1.035258          2.383770
 Vib (V=0)    2  0.239158D+01          0.378686          0.871956
 Vib (V=0)    3  0.156063D+01          0.193300          0.445090
 Vib (V=0)    4  0.118296D+01          0.072972          0.168024
 Vib (V=0)    5  0.108942D+01          0.037196          0.085647
 Electronic      0.100000D+01          0.000000          0.000000
 Translational   0.608880D+08          7.784532         17.924546
 Rotational      0.239726D+06          5.379715         12.387252
 
                                                       ./0_0-verify-Cl2OTi.g09
                                                             IR Spectrum
 
     1                                                                                                                               
     0                                                                  5               3                   2          1             
     9                                                                  1               8                   1          1          2  
     4                                                                  8               7                   2          2          0  
 
     X                                                                  X               X                              X          X  
     X                                                                  X               X                                         X  
     X                                                                  X                                                         X  
     X                                                                  X                                                         X  
     X                                                                  X                                                         X  
     X                                                                  X                                                         X  
     X                                                                  X                                                            
     X                                                                  X                                                            
     X                                                                  X                                                            
     X                                                                  X                                                            
     X                                                                  X                                                            
     X                                                                  X                                                            
     X                                                                  X                                                            
     X                                                                  X                                                            
     X                                                                  X                                                            
     X                                                                  X                                                            
     X                                                                                                                               
     X                                                                                                                               
     X                                                                                                                               
     X                                                                                                                               
 
 -------------------------------------------------------------------
 Center     Atomic                   Forces (Hartrees/Bohr)
 Number     Number              X              Y              Z
 -------------------------------------------------------------------
      1        8           0.000000921   -0.000008432   -0.000008007
      2       17          -0.000000592    0.000001834    0.000000382
      3       22           0.000003034    0.000006512    0.000009212
      4       17          -0.000003363    0.000000086   -0.000001587
 -------------------------------------------------------------------
 Cartesian Forces:  Max     0.000009212 RMS     0.000004918
 Force constants in Cartesian coordinates: 
                1             2             3             4             5 
      1  0.147722D-01
      2  0.108429D-01  0.281273D+00
      3  0.265276D-01  0.265444D+00  0.269172D+00
      4  0.412422D-02 -0.139915D-01 -0.799539D-02  0.775621D-01
      5 -0.551574D-02  0.843369D-02  0.131630D-02 -0.155993D-01  0.814201D-02
      6 -0.381491D-03 -0.827463D-02 -0.780196D-02  0.734809D-01 -0.102828D-01
      7 -0.248288D-01 -0.417761D-02 -0.318755D-01 -0.783336D-01  0.214990D-01
      8 -0.422281D-02 -0.281174D+00 -0.257787D+00  0.244098D-01 -0.182734D-01
      9 -0.319267D-01 -0.257875D+00 -0.268733D+00 -0.661926D-01  0.795812D-02
     10  0.593240D-02  0.732622D-02  0.133433D-01 -0.335272D-02 -0.383950D-03
     11 -0.110437D-02 -0.853277D-02 -0.897400D-02  0.518101D-02  0.169771D-02
     12  0.578064D-02  0.704689D-03  0.736255D-02  0.707112D-03  0.100833D-02
                6             7             8             9            10 
      6  0.735985D-01
      7 -0.689338D-01  0.173578D+00
      8  0.112828D-01 -0.865798D-01  0.377701D+00
      9 -0.675199D-01  0.119595D+00  0.239983D+00  0.352133D+00
     10 -0.416559D-02 -0.704154D-01  0.663928D-01 -0.214759D-01  0.678358D-01
     11  0.727462D-02  0.692584D-01 -0.782544D-01  0.993295D-02 -0.733351D-01
     12  0.172341D-02 -0.187860D-01  0.652055D-02 -0.158802D-01  0.122982D-01
               11            12 
     11  0.850895D-01
     12 -0.823357D-02  0.679420D-02
 FormGI is forming the generalized inverse of G from B-inverse, IUseBI=4.
 Force constants in internal coordinates: 
                1             2             3             4             5 
      1  0.542048D+00
      2  0.196077D-01  0.151433D+00
      3  0.196113D-01  0.964923D-02  0.151714D+00
      4 -0.724272D-02 -0.707140D-02  0.992320D-02  0.618604D-01
      5 -0.692084D-02  0.991966D-02 -0.705909D-02 -0.420924D-01  0.619525D-01
      6  0.141625D-01 -0.284840D-02 -0.286530D-02 -0.197712D-01 -0.198572D-01
      7 -0.174202D-03 -0.526403D-04 -0.484698D-04  0.113840D-03  0.587962D-04
                6             7 
      6  0.396288D-01
      7 -0.168144D-03  0.440008D-03
 Leave Link  716 at Tue Jul 19 06:24:10 2016, MaxMem=   524288000 cpu:         0.3
 (Enter /opt/g09/l103.exe)

 GradGradGradGradGradGradGradGradGradGradGradGradGradGradGradGradGradGrad
 Berny optimization.
 Red2BG is reusing G-inverse.
 Internal  Forces:  Max     0.000011563 RMS     0.000004502
 Search for a local minimum.
 Step number   1 out of a maximum of    2
 All quantities printed in internal units (Hartrees-Bohrs-Radians)
 Second derivative matrix not updated -- analytic derivatives used.
 The second derivative matrix:
                          R1        R2        R3        A1        A2
           R1           0.54205
           R2           0.01961   0.15143
           R3           0.01961   0.00965   0.15171
           A1          -0.00724  -0.00707   0.00992   0.06186
           A2          -0.00692   0.00992  -0.00706  -0.04209   0.06195
           A3           0.01416  -0.00285  -0.00287  -0.01977  -0.01986
           D1          -0.00017  -0.00005  -0.00005   0.00011   0.00006
                          A3        D1
           A3           0.03963
           D1          -0.00017   0.00044
 ITU=  0
     Eigenvalues ---    0.00044   0.05847   0.09750   0.14842   0.15959
     Eigenvalues ---    0.54465
 Angle between quadratic step and forces=  70.84 degrees.
 Linear search not attempted -- first point.
 Iteration  1 RMS(Cart)=  0.00002554 RMS(Int)=  0.00000000
 Iteration  2 RMS(Cart)=  0.00000000 RMS(Int)=  0.00000000
 ITry= 1 IFail=0 DXMaxC= 4.08D-05 DCOld= 1.00D+10 DXMaxT= 2.56D+00 DXLimC= 3.00D+00 Rises=F
 Variable       Old X    -DE/DX   Delta X   Delta X   Delta X     New X
                                 (Linear)    (Quad)   (Total)
    R1        2.99912  -0.00001   0.00000  -0.00002  -0.00002   2.99910
    R2        4.22091   0.00000   0.00000   0.00001   0.00001   4.22092
    R3        4.22099   0.00000   0.00000  -0.00001  -0.00001   4.22097
    A1        2.01913   0.00000   0.00000   0.00000   0.00000   2.01913
    A2        2.01927   0.00000   0.00000   0.00001   0.00001   2.01928
    A3        2.24471   0.00000   0.00000  -0.00001  -0.00001   2.24470
    D1        3.12850   0.00000   0.00000  -0.00007  -0.00007   3.12843
         Item               Value     Threshold  Converged?
 Maximum Force            0.000012     0.000015     YES
 RMS     Force            0.000005     0.000010     YES
 Maximum Displacement     0.000041     0.000060     YES
 RMS     Displacement     0.000026     0.000040     YES
 Predicted change in Energy=-1.480342D-10
 Optimization completed.
    -- Stationary point found.
                           ----------------------------
                           !   Optimized Parameters   !
                           ! (Angstroms and Degrees)  !
 --------------------------                            --------------------------
 ! Name  Definition              Value          Derivative Info.                !
 --------------------------------------------------------------------------------
 ! R1    R(1,3)                  1.5871         -DE/DX =    0.0                 !
 ! R2    R(2,3)                  2.2336         -DE/DX =    0.0                 !
 ! R3    R(3,4)                  2.2336         -DE/DX =    0.0                 !
 ! A1    A(1,3,2)              115.6877         -DE/DX =    0.0                 !
 ! A2    A(1,3,4)              115.6958         -DE/DX =    0.0                 !
 ! A3    A(2,3,4)              128.6126         -DE/DX =    0.0                 !
 ! D1    D(1,3,4,2)            179.2496         -DE/DX =    0.0                 !
 --------------------------------------------------------------------------------
 GradGradGradGradGradGradGradGradGradGradGradGradGradGradGradGradGradGrad

 Leave Link  103 at Tue Jul 19 06:24:10 2016, MaxMem=   524288000 cpu:         0.1
 (Enter /opt/g09/l9999.exe)
 1\1\GINC-GAUGUIN\Freq\RB971\6-311+G(d,p)\Cl2O1Ti1\PB556\19-Jul-2016\0\
 \#P Geom=AllCheck Guess=TCheck SCRF=Check GenChk RB971/6-311+G(d,p) Fr
 eq\\./0_0-verify-Cl2OTi.g09\\0,1\O,-1.22907,1.72055,0.04287\Cl,-2.8964
 2,0.85884,-2.61389\Ti,-1.30877,0.58819,-1.06627\Cl,0.16676,-1.07588,-0
 .85921\\Version=ES64L-G09RevD.01\HF=-1845.1087468\RMSD=2.894e-09\RMSF=
 4.918e-06\ZeroPoint=0.0053383\Thermal=0.0108826\Dipole=0.0008865,-0.14
 64316,-0.1630621\DipoleDeriv=-0.4180099,-0.1466583,0.066783,-0.1479669
 ,-1.0129752,-0.5418783,0.0653137,-0.5442174,-1.0011237,-0.8319107,0.05
 12823,-0.4152827,0.0094167,-0.3072797,0.1160684,-0.4503763,0.1631862,-
 0.7904482,2.0162519,-0.3235684,0.3630221,-0.3229561,2.1716107,0.280228
 2,0.3638544,0.2813679,2.1038836,-0.7663313,0.4189444,-0.0145224,0.4615
 063,-0.8513558,0.1455817,0.0212082,0.0996633,-0.3123117\Polar=61.48424
 18,-14.7541785,58.4913431,15.0540871,2.6720704,56.0915714\PG=C01 [X(Cl
 2O1Ti1)]\NImag=0\\0.01477220,0.01084292,0.28127267,0.02652757,0.265444
 47,0.26917226,0.00412422,-0.01399154,-0.00799539,0.07756213,-0.0055157
 4,0.00843369,0.00131630,-0.01559932,0.00814201,-0.00038149,-0.00827463
 ,-0.00780196,0.07348086,-0.01028276,0.07359849,-0.02482883,-0.00417761
 ,-0.03187546,-0.07833363,0.02149901,-0.06893378,0.17357791,-0.00422281
 ,-0.28117359,-0.25778678,0.02440984,-0.01827342,0.01128277,-0.08657981
 ,0.37770141,-0.03192672,-0.25787453,-0.26873285,-0.06619258,0.00795812
 ,-0.06751994,0.11959524,0.23998346,0.35213294,0.00593240,0.00732622,0.
 01334328,-0.00335272,-0.00038395,-0.00416559,-0.07041545,0.06639278,-0
 .02147593,0.06783577,-0.00110437,-0.00853277,-0.00897400,0.00518101,0.
 00169771,0.00727462,0.06925842,-0.07825440,0.00993295,-0.07333505,0.08
 508946,0.00578064,0.00070469,0.00736255,0.00070711,0.00100833,0.001723
 41,-0.01878600,0.00652055,-0.01588016,0.01229825,-0.00823357,0.0067942
 0\\-0.00000092,0.00000843,0.00000801,0.00000059,-0.00000183,-0.0000003
 8,-0.00000303,-0.00000651,-0.00000921,0.00000336,-0.00000009,0.0000015
 9\\\@


 IF YOU GIVE EVERYONE A PIECE OF YOUR MIND,
 PRETTY SOON IT WILL BE ALL GONE.
 Job cpu time:       0 days  0 hours  6 minutes 15.1 seconds.
 File lengths (MBytes):  RWF=     17 Int=      0 D2E=      0 Chk=      2 Scr=      1
 Normal termination of Gaussian 09 at Tue Jul 19 06:24:10 2016.
