 Entering Gaussian System, Link 0=g09
 Input=freq-fine-ticl2_3let-b971-6311+gdp.gau
 Output=freq-fine-ticl2_3let-b971-6311+gdp.log
 Initial command:
 /opt/g09/l1.exe "/scratch/pb556/g09_run/mech//Gau-12366.inp" -scrdir="/scratch/pb556/g09_run/mech//"
 Entering Link 1 = /opt/g09/l1.exe PID=     12375.
  
 Copyright (c) 1988,1990,1992,1993,1995,1998,2003,2009,2013,
            Gaussian, Inc.  All Rights Reserved.
  
 This is part of the Gaussian(R) 09 program.  It is based on
 the Gaussian(R) 03 system (copyright 2003, Gaussian, Inc.),
 the Gaussian(R) 98 system (copyright 1998, Gaussian, Inc.),
 the Gaussian(R) 94 system (copyright 1995, Gaussian, Inc.),
 the Gaussian 92(TM) system (copyright 1992, Gaussian, Inc.),
 the Gaussian 90(TM) system (copyright 1990, Gaussian, Inc.),
 the Gaussian 88(TM) system (copyright 1988, Gaussian, Inc.),
 the Gaussian 86(TM) system (copyright 1986, Carnegie Mellon
 University), and the Gaussian 82(TM) system (copyright 1983,
 Carnegie Mellon University). Gaussian is a federally registered
 trademark of Gaussian, Inc.
  
 This software contains proprietary and confidential information,
 including trade secrets, belonging to Gaussian, Inc.
  
 This software is provided under written license and may be
 used, copied, transmitted, or stored only in accord with that
 written license.
  
 The following legend is applicable only to US Government
 contracts under FAR:
  
                    RESTRICTED RIGHTS LEGEND
  
 Use, reproduction and disclosure by the US Government is
 subject to restrictions as set forth in subparagraphs (a)
 and (c) of the Commercial Computer Software - Restricted
 Rights clause in FAR 52.227-19.
  
 Gaussian, Inc.
 340 Quinnipiac St., Bldg. 40, Wallingford CT 06492
  
  
 ---------------------------------------------------------------
 Warning -- This program may not be used in any manner that
 competes with the business of Gaussian, Inc. or will provide
 assistance to any competitor of Gaussian, Inc.  The licensee
 of this program is prohibited from giving any competitor of
 Gaussian, Inc. access to this program.  By using this program,
 the user acknowledges that Gaussian, Inc. is engaged in the
 business of creating and licensing software in the field of
 computational chemistry and represents and warrants to the
 licensee that it is not a competitor of Gaussian, Inc. and that
 it will not use this program in any manner prohibited above.
 ---------------------------------------------------------------
  

 Cite this work as:
 Gaussian 09, Revision D.01,
 M. J. Frisch, G. W. Trucks, H. B. Schlegel, G. E. Scuseria, 
 M. A. Robb, J. R. Cheeseman, G. Scalmani, V. Barone, B. Mennucci, 
 G. A. Petersson, H. Nakatsuji, M. Caricato, X. Li, H. P. Hratchian, 
 A. F. Izmaylov, J. Bloino, G. Zheng, J. L. Sonnenberg, M. Hada, 
 M. Ehara, K. Toyota, R. Fukuda, J. Hasegawa, M. Ishida, T. Nakajima, 
 Y. Honda, O. Kitao, H. Nakai, T. Vreven, J. A. Montgomery, Jr., 
 J. E. Peralta, F. Ogliaro, M. Bearpark, J. J. Heyd, E. Brothers, 
 K. N. Kudin, V. N. Staroverov, T. Keith, R. Kobayashi, J. Normand, 
 K. Raghavachari, A. Rendell, J. C. Burant, S. S. Iyengar, J. Tomasi, 
 M. Cossi, N. Rega, J. M. Millam, M. Klene, J. E. Knox, J. B. Cross, 
 V. Bakken, C. Adamo, J. Jaramillo, R. Gomperts, R. E. Stratmann, 
 O. Yazyev, A. J. Austin, R. Cammi, C. Pomelli, J. W. Ochterski, 
 R. L. Martin, K. Morokuma, V. G. Zakrzewski, G. A. Voth, 
 P. Salvador, J. J. Dannenberg, S. Dapprich, A. D. Daniels, 
 O. Farkas, J. B. Foresman, J. V. Ortiz, J. Cioslowski, 
 and D. J. Fox, Gaussian, Inc., Wallingford CT, 2013.
 
 ******************************************
 Gaussian 09:  ES64L-G09RevD.01 24-Apr-2013
                 8-Feb-2015 
 ******************************************
 %NProcShared=8
 Will use up to    8 processors via shared memory.
 %Mem=500MW
 ----------------------------------------------------------------------
 #p uB971/6-311+G(d,p) Opt=(Tight, CalcAll) Freq GFInput Population=Non
 e Integral(Grid=UltraFine) SCF=XQC Guess=MIX NoSymmetry
 ----------------------------------------------------------------------
 1/7=10,10=4,14=-1,18=20,19=15,26=4,38=1/1,3;
 2/9=110,12=2,15=1,17=6,18=5,40=1/2;
 3/5=4,6=6,7=111,11=2,16=1,24=10,25=1,30=1,71=2,74=-20,75=-5,116=2,140=1/1,2,3;
 4/13=-1/1;
 5/5=2,8=3,13=1,38=5/2,8;
 8/6=4,10=90,11=11/1;
 11/6=1,8=1,9=11,15=111,16=1,31=1/1,2,10;
 10/6=1,31=1/2;
 7/10=1,25=1,30=1/1,2,3,16;
 1/7=10,10=4,14=-1,18=20,19=15,26=4/3(3);
 2/9=110,15=1/2;
 7/8=1,9=1,25=1,30=1,44=-1/16;
 99//99;
 2/9=110,15=1/2;
 3/5=4,6=6,7=111,11=2,16=1,25=1,30=1,71=2,74=-20,75=-5,116=2,140=1/1,2,3;
 4/5=5,16=3,69=1/1;
 5/5=2,8=3,13=1,38=5/2,8;
 8/6=4,10=90,11=11/1;
 11/6=1,8=1,9=11,15=111,16=1,31=1/1,2,10;
 10/6=1,31=1/2;
 7/10=1,25=1,30=1/1,2,3,16;
 1/7=10,10=4,14=-1,18=20,19=15,26=4/3(-8);
 2/9=110,15=1/2;
 7/8=1,9=1,25=1,30=1,44=-1/16;
 99//99;
 Leave Link    1 at Sun Feb  8 00:37:14 2015, MaxMem=   524288000 cpu:         0.5
 (Enter /opt/g09/l101.exe)
 --------------------------------------
 freq-fine-ticl2_3let-b971-6311+gdp.gau
 --------------------------------------
 Symbolic Z-matrix:
 Charge =  0 Multiplicity = 3
 Ti                    0.        0.        0.21804 
 Cl                    0.        2.22498  -0.13664 
 Cl                    0.       -2.22498  -0.13664 
 
 NAtoms=      3 NQM=        3 NQMF=       0 NMMI=      0 NMMIF=      0
                NMic=       0 NMicF=      0.
                    Isotopes and Nuclear Properties:
 (Nuclear quadrupole moments (NQMom) in fm**2, nuclear magnetic moments (NMagM)
  in nuclear magnetons)

  Atom         1           2           3
 IAtWgt=          48          35          35
 AtmWgt=  47.9479467  34.9688527  34.9688527
 NucSpn=           0           3           3
 AtZEff=   0.0000000   0.0000000   0.0000000
 NQMom=    0.0000000  -8.1650000  -8.1650000
 NMagM=    0.0000000   0.8218740   0.8218740
 AtZNuc=  22.0000000  17.0000000  17.0000000
 Leave Link  101 at Sun Feb  8 00:37:14 2015, MaxMem=   524288000 cpu:         1.9
 (Enter /opt/g09/l103.exe)

 GradGradGradGradGradGradGradGradGradGradGradGradGradGradGradGradGradGrad
 Berny optimization.
 Initialization pass.
                           ----------------------------
                           !    Initial Parameters    !
                           ! (Angstroms and Degrees)  !
 --------------------------                            --------------------------
 ! Name  Definition              Value          Derivative Info.                !
 --------------------------------------------------------------------------------
 ! R1    R(1,2)                  2.2531         calculate D2E/DX2 analytically  !
 ! R2    R(1,3)                  2.2531         calculate D2E/DX2 analytically  !
 ! A1    A(2,1,3)              161.8856         calculate D2E/DX2 analytically  !
 --------------------------------------------------------------------------------
 Trust Radius=3.00D-01 FncErr=1.00D-07 GrdErr=1.00D-06
 Number of steps in this run=     20 maximum allowed number of steps=    100.
 GradGradGradGradGradGradGradGradGradGradGradGradGradGradGradGradGradGrad

 Leave Link  103 at Sun Feb  8 00:37:14 2015, MaxMem=   524288000 cpu:         0.1
 (Enter /opt/g09/l202.exe)
                          Input orientation:                          
 ---------------------------------------------------------------------
 Center     Atomic      Atomic             Coordinates (Angstroms)
 Number     Number       Type             X           Y           Z
 ---------------------------------------------------------------------
      1         22           0        0.000000    0.000000    0.218040
      2         17           0        0.000000    2.224980   -0.136640
      3         17           0        0.000000   -2.224980   -0.136640
 ---------------------------------------------------------------------
                    Distance matrix (angstroms):
                    1          2          3
     1  Ti   0.000000
     2  Cl   2.253072   0.000000
     3  Cl   2.253072   4.449960   0.000000
 Symmetry turned off by external request.
 Stoichiometry    Cl2Ti(3)
 Framework group  C2V[C2(Ti),SGV(Cl2)]
 Deg. of freedom     2
 Full point group                 C2V     NOp   4
 Rotational constants (GHZ):    141.2288274      1.4596663      1.4447343
 Leave Link  202 at Sun Feb  8 00:37:14 2015, MaxMem=   524288000 cpu:         0.0
 (Enter /opt/g09/l301.exe)
 Standard basis: 6-311+G(d,p) (5D, 7F)
 Ernie: Thresh=  0.10000D-02 Tol=  0.10000D-05 Strict=F.
 AO basis set in the form of general basis input (Overlap normalization):
      1 0
 S   6 1.00       0.000000000000
      0.2060820000D+06  0.5673151380D-03
      0.3122680000D+05  0.4379672866D-02
      0.7199320000D+04  0.2242029425D-01
      0.2048750000D+04  0.9063426645D-01
      0.6707900000D+03  0.2890357165D+00
      0.2436500000D+03  0.6803470061D+00
 S   1 1.00       0.000000000000
      0.9592500000D+02  0.1000000000D+01
 S   1 1.00       0.000000000000
      0.3981010000D+02  0.1000000000D+01
 S   1 1.00       0.000000000000
      0.1222050000D+02  0.1000000000D+01
 S   1 1.00       0.000000000000
      0.5008820000D+01  0.1000000000D+01
 S   1 1.00       0.000000000000
      0.1285690000D+01  0.1000000000D+01
 S   1 1.00       0.000000000000
      0.5128060000D+00  0.1000000000D+01
 S   1 1.00       0.000000000000
      0.8557600000D-01  0.1000000000D+01
 S   1 1.00       0.000000000000
      0.3330200000D-01  0.1000000000D+01
 S   1 1.00       0.000000000000
      0.9991000000D-02  0.1000000000D+01
 P   5 1.00       0.000000000000
      0.1264700000D+04  0.3122017423D-02
      0.3012300000D+03  0.2516579464D-01
      0.9697770000D+02  0.1184178291D+00
      0.3637270000D+02  0.3522190030D+00
      0.1478140000D+02  0.6219379661D+00
 P   1 1.00       0.000000000000
      0.6274650000D+01  0.1000000000D+01
 P   1 1.00       0.000000000000
      0.2478780000D+01  0.1000000000D+01
 P   1 1.00       0.000000000000
      0.1016180000D+01  0.1000000000D+01
 P   1 1.00       0.000000000000
      0.3981620000D+00  0.1000000000D+01
 P   1 1.00       0.000000000000
      0.1015610000D+00  0.1000000000D+01
 P   1 1.00       0.000000000000
      0.3405400000D-01  0.1000000000D+01
 D   3 1.00       0.000000000000
      0.2599240000D+02  0.5411706153D-01
      0.7086340000D+01  0.2873032281D+00
      0.2348710000D+01  0.7854540223D+00
 D   1 1.00       0.000000000000
      0.8001980000D+00  0.1000000000D+01
 D   1 1.00       0.000000000000
      0.2620490000D+00  0.1000000000D+01
 D   1 1.00       0.000000000000
      0.7200000000D-01  0.1000000000D+01
 F   1 1.00       0.000000000000
      0.6900000000D+00  0.1000000000D+01
 ****
      2 0
 S   6 1.00       0.000000000000
      0.1058190000D+06  0.7380002465D-03
      0.1587200000D+05  0.5718001910D-02
      0.3619650000D+04  0.2949500985D-01
      0.1030800000D+04  0.1172860392D+00
      0.3399080000D+03  0.3629491212D+00
      0.1245380000D+03  0.5841491951D+00
 S   3 1.00       0.000000000000
      0.1245380000D+03  0.1341769734D+00
      0.4951350000D+02  0.6242498762D+00
      0.2080560000D+02  0.2917559421D+00
 S   1 1.00       0.000000000000
      0.6583460000D+01  0.1000000000D+01
 S   1 1.00       0.000000000000
      0.2564680000D+01  0.1000000000D+01
 S   1 1.00       0.000000000000
      0.5597630000D+00  0.1000000000D+01
 S   1 1.00       0.000000000000
      0.1832730000D+00  0.1000000000D+01
 SP   1 1.00       0.000000000000
      0.4830000000D-01  0.1000000000D+01  0.1000000000D+01
 P   5 1.00       0.000000000000
      0.5897760000D+03  0.3665569355D-02
      0.1398490000D+03  0.2836791942D-01
      0.4514130000D+02  0.1247566028D+00
      0.1687330000D+02  0.3396546305D+00
      0.2771520000D+01  0.7475859630D+00
 P   2 1.00       0.000000000000
      0.6741100000D+01 -0.1572243813D+01
      0.2771520000D+01  0.9923888817D+00
 P   1 1.00       0.000000000000
      0.1023870000D+01  0.1000000000D+01
 P   1 1.00       0.000000000000
      0.3813680000D+00  0.1000000000D+01
 P   1 1.00       0.000000000000
      0.1094370000D+00  0.1000000000D+01
 D   1 1.00       0.000000000000
      0.7500000000D+00  0.1000000000D+01
 ****
      3 0
 S   6 1.00       0.000000000000
      0.1058190000D+06  0.7380002465D-03
      0.1587200000D+05  0.5718001910D-02
      0.3619650000D+04  0.2949500985D-01
      0.1030800000D+04  0.1172860392D+00
      0.3399080000D+03  0.3629491212D+00
      0.1245380000D+03  0.5841491951D+00
 S   3 1.00       0.000000000000
      0.1245380000D+03  0.1341769734D+00
      0.4951350000D+02  0.6242498762D+00
      0.2080560000D+02  0.2917559421D+00
 S   1 1.00       0.000000000000
      0.6583460000D+01  0.1000000000D+01
 S   1 1.00       0.000000000000
      0.2564680000D+01  0.1000000000D+01
 S   1 1.00       0.000000000000
      0.5597630000D+00  0.1000000000D+01
 S   1 1.00       0.000000000000
      0.1832730000D+00  0.1000000000D+01
 SP   1 1.00       0.000000000000
      0.4830000000D-01  0.1000000000D+01  0.1000000000D+01
 P   5 1.00       0.000000000000
      0.5897760000D+03  0.3665569355D-02
      0.1398490000D+03  0.2836791942D-01
      0.4514130000D+02  0.1247566028D+00
      0.1687330000D+02  0.3396546305D+00
      0.2771520000D+01  0.7475859630D+00
 P   2 1.00       0.000000000000
      0.6741100000D+01 -0.1572243813D+01
      0.2771520000D+01  0.9923888817D+00
 P   1 1.00       0.000000000000
      0.1023870000D+01  0.1000000000D+01
 P   1 1.00       0.000000000000
      0.3813680000D+00  0.1000000000D+01
 P   1 1.00       0.000000000000
      0.1094370000D+00  0.1000000000D+01
 D   1 1.00       0.000000000000
      0.7500000000D+00  0.1000000000D+01
 ****

   118 basis functions,   200 primitive gaussians,   127 cartesian basis functions
    29 alpha electrons       27 beta electrons
       nuclear repulsion energy       210.0492487778 Hartrees.
 IExCor= 1614 DFT=T Ex+Corr=B971 ExCW=0 ScaHFX=  0.210000
 ScaDFX=  1.000000  1.000000  1.000000  1.000000 ScalE2=  1.000000  1.000000
 IRadAn=      5 IRanWt=     -1 IRanGd=            0 ICorTp=0 IEmpDi=  4
 NAtoms=    3 NActive=    3 NUniq=    3 SFac= 1.00D+00 NAtFMM=   60 NAOKFM=F Big=F
 Integral buffers will be    131072 words long.
 Raffenetti 2 integral format.
 Two-electron integral symmetry is turned off.
 Leave Link  301 at Sun Feb  8 00:37:14 2015, MaxMem=   524288000 cpu:         0.4
 (Enter /opt/g09/l302.exe)
 NPDir=0 NMtPBC=     1 NCelOv=     1 NCel=       1 NClECP=     1 NCelD=      1
         NCelK=      1 NCelE2=     1 NClLst=     1 CellRange=     0.0.
 One-electron integrals computed using PRISM.
 NBasis=   118 RedAO= T EigKep=  1.60D-03  NBF=   118
 NBsUse=   118 1.00D-06 EigRej= -1.00D+00 NBFU=   118
 Precomputing XC quadrature grid using
 IXCGrd= 4 IRadAn=           5 IRanWt=          -1 IRanGd=           0 AccXCQ= 0.00D+00.
 Generated NRdTot=       0 NPtTot=           0 NUsed=           0 NTot=          32
 NSgBfM=   119   119   120   120   121 MxSgAt=     3 MxSgA2=     3.
 Leave Link  302 at Sun Feb  8 00:37:14 2015, MaxMem=   524288000 cpu:         1.7
 (Enter /opt/g09/l303.exe)
 DipDrv:  MaxL=1.
 Leave Link  303 at Sun Feb  8 00:37:14 2015, MaxMem=   524288000 cpu:         0.3
 (Enter /opt/g09/l401.exe)
 ExpMin= 9.99D-03 ExpMax= 2.06D+05 ExpMxC= 7.20D+03 IAcc=3 IRadAn=         5 AccDes= 0.00D+00
 Harris functional with IExCor= 1614 and IRadAn=       5 diagonalized for initial guess.
 HarFok:  IExCor= 1614 AccDes= 0.00D+00 IRadAn=         5 IDoV= 1 UseB2=F ITyADJ=14
 ICtDFT=  3500011 ScaDFX=  1.000000  1.000000  1.000000  1.000000
 FoFCou: FMM=F IPFlag=           0 FMFlag=      100000 FMFlg1=           0
         NFxFlg=           0 DoJE=T BraDBF=F KetDBF=T FulRan=T
         wScrn=  0.000000 ICntrl=     500 IOpCl=  0 I1Cent=   200000004 NGrid=           0
         NMat0=    1 NMatS0=      1 NMatT0=    0 NMatD0=    1 NMtDS0=    0 NMtDT0=    0
 Symmetry not used in FoFCou.
 Harris En= -1749.64200014971    
 JPrj=0 DoOrth=F DoCkMO=T.
 Mixing orbitals, IMix= 1 IMixAn=  0 NRI=1 NE=   29 Coef=  7.07106781D-01  7.07106781D-01
 Mixing orbitals, IMix= 1 IMixAn=  0 NRI=1 NE=   27 Coef= -7.07106781D-01  7.07106781D-01
 Initial guess <Sx>= 0.0000 <Sy>= 0.0000 <Sz>= 1.0000 <S**2>= 2.0000 S= 1.0000
 Leave Link  401 at Sun Feb  8 00:37:15 2015, MaxMem=   524288000 cpu:         2.5
 (Enter /opt/g09/l502.exe)
 UHF open shell SCF:
 Using DIIS extrapolation, IDIIS=  1040.
 Two-electron integral symmetry not used.
 Keep R1 and R2 ints in memory in canonical form, NReq=51354090.
 IVT=       56113 IEndB=       56113 NGot=   524288000 MDV=   474930426
 LenX=   474930426 LenY=   474913856
 Requested convergence on RMS density matrix=1.00D-08 within  64 cycles.
 Requested convergence on MAX density matrix=1.00D-06.
 Requested convergence on             energy=1.00D-06.
 No special actions if energy rises.
 FoFCou: FMM=F IPFlag=           0 FMFlag=           0 FMFlg1=           0
         NFxFlg=           0 DoJE=F BraDBF=F KetDBF=F FulRan=T
         wScrn=  0.000000 ICntrl=     600 IOpCl=  0 I1Cent=           0 NGrid=           0
         NMat0=    1 NMatS0=   7021 NMatT0=    0 NMatD0=    1 NMtDS0=    0 NMtDT0=    0
 Symmetry not used in FoFCou.

 Cycle   1  Pass 1  IDiag  1:
 E= -1769.10472664808    
 DIIS: error= 2.43D-01 at cycle   1 NSaved=   1.
 NSaved= 1 IEnMin= 1 EnMin= -1769.10472664808     IErMin= 1 ErrMin= 2.43D-01
 ErrMax= 2.43D-01  0.00D+00 EMaxC= 1.00D-01 BMatC= 1.70D+01 BMatP= 1.70D+01
 IDIUse=3 WtCom= 0.00D+00 WtEn= 1.00D+00
 Coeff-Com:  0.100D+01
 Coeff-En:   0.100D+01
 Coeff:      0.100D+01
 Gap=     0.096 Goal=   None    Shift=    0.000
 Gap=     0.039 Goal=   None    Shift=    0.000
 GapD=    0.039 DampG=0.250 DampE=0.125 DampFc=0.1250 IDamp=-1.
 Damping current iteration by 1.25D-01
 RMSDP=1.37D-02 MaxDP=3.09D-01              OVMax= 9.43D-01

 Cycle   2  Pass 1  IDiag  1:
 E= -1769.13049180441     Delta-E=       -0.025765156332 Rises=F Damp=T
 DIIS: error= 1.98D-01 at cycle   2 NSaved=   2.
 NSaved= 2 IEnMin= 2 EnMin= -1769.13049180441     IErMin= 2 ErrMin= 1.98D-01
 ErrMax= 1.98D-01  0.00D+00 EMaxC= 1.00D-01 BMatC= 1.13D+01 BMatP= 1.70D+01
 IDIUse=3 WtCom= 0.00D+00 WtEn= 1.00D+00
 Coeff-Com: -0.188D+01 0.288D+01
 Coeff-En:   0.425D+00 0.575D+00
 Coeff:      0.425D+00 0.575D+00
 Gap=     0.098 Goal=   None    Shift=    0.000
 DSYEVD-2 returned Info=        7228 IAlg= 4 N=   118 NDim=   118 NE2=     4024692 trying  DSYEV.
 Gap=     0.019 Goal=   None    Shift=    0.000
 RMSDP=8.41D-03 MaxDP=2.73D-01 DE=-2.58D-02 OVMax= 8.50D-01

 Cycle   3  Pass 1  IDiag  1:
 E= -1769.51454799978     Delta-E=       -0.384056195374 Rises=F Damp=F
 DIIS: error= 6.62D-02 at cycle   3 NSaved=   3.
 NSaved= 3 IEnMin= 3 EnMin= -1769.51454799978     IErMin= 3 ErrMin= 6.62D-02
 ErrMax= 6.62D-02  0.00D+00 EMaxC= 1.00D-01 BMatC= 2.17D+00 BMatP= 1.13D+01
 IDIUse=3 WtCom= 3.38D-01 WtEn= 6.62D-01
 EnCoef did   100 forward-backward iterations
 Coeff-Com:  0.356D+00-0.150D+00 0.794D+00
 Coeff-En:   0.238D+00 0.312D-02 0.759D+00
 Coeff:      0.278D+00-0.487D-01 0.771D+00
 Gap=     0.124 Goal=   None    Shift=    0.000
 Gap=     0.236 Goal=   None    Shift=    0.000
 RMSDP=6.36D-03 MaxDP=2.32D-01 DE=-3.84D-01 OVMax= 3.29D-01

 Cycle   4  Pass 1  IDiag  1:
 E= -1769.73398794484     Delta-E=       -0.219439945059 Rises=F Damp=F
 DIIS: error= 2.87D-02 at cycle   4 NSaved=   4.
 NSaved= 4 IEnMin= 4 EnMin= -1769.73398794484     IErMin= 4 ErrMin= 2.87D-02
 ErrMax= 2.87D-02  0.00D+00 EMaxC= 1.00D-01 BMatC= 2.92D-01 BMatP= 2.17D+00
 IDIUse=3 WtCom= 7.13D-01 WtEn= 2.87D-01
 Coeff-Com:  0.238D+00-0.248D+00 0.323D+00 0.687D+00
 Coeff-En:   0.000D+00 0.000D+00 0.930D-01 0.907D+00
 Coeff:      0.170D+00-0.177D+00 0.257D+00 0.750D+00
 Gap=     0.113 Goal=   None    Shift=    0.000
 Gap=     0.229 Goal=   None    Shift=    0.000
 RMSDP=3.01D-03 MaxDP=7.60D-02 DE=-2.19D-01 OVMax= 1.05D-01

 Cycle   5  Pass 1  IDiag  1:
 E= -1769.79266085277     Delta-E=       -0.058672907925 Rises=F Damp=F
 DIIS: error= 8.90D-03 at cycle   5 NSaved=   5.
 NSaved= 5 IEnMin= 5 EnMin= -1769.79266085277     IErMin= 5 ErrMin= 8.90D-03
 ErrMax= 8.90D-03  0.00D+00 EMaxC= 1.00D-01 BMatC= 2.60D-02 BMatP= 2.92D-01
 IDIUse=3 WtCom= 9.11D-01 WtEn= 8.90D-02
 Coeff-Com: -0.813D-02 0.106D-01 0.349D-01 0.268D+00 0.694D+00
 Coeff-En:   0.000D+00 0.000D+00 0.000D+00 0.228D-01 0.977D+00
 Coeff:     -0.741D-02 0.965D-02 0.318D-01 0.247D+00 0.719D+00
 Gap=     0.112 Goal=   None    Shift=    0.000
 Gap=     0.199 Goal=   None    Shift=    0.000
 RMSDP=9.35D-04 MaxDP=5.06D-02 DE=-5.87D-02 OVMax= 2.85D-02

 Cycle   6  Pass 1  IDiag  1:
 E= -1769.79935543338     Delta-E=       -0.006694580610 Rises=F Damp=F
 DIIS: error= 8.10D-04 at cycle   6 NSaved=   6.
 NSaved= 6 IEnMin= 6 EnMin= -1769.79935543338     IErMin= 6 ErrMin= 8.10D-04
 ErrMax= 8.10D-04  0.00D+00 EMaxC= 1.00D-01 BMatC= 2.85D-04 BMatP= 2.60D-02
 IDIUse=3 WtCom= 9.92D-01 WtEn= 8.10D-03
 Coeff-Com: -0.755D-02 0.868D-02-0.212D-03 0.150D-01 0.133D+00 0.851D+00
 Coeff-En:   0.000D+00 0.000D+00 0.000D+00 0.000D+00 0.000D+00 0.100D+01
 Coeff:     -0.749D-02 0.861D-02-0.210D-03 0.149D-01 0.131D+00 0.853D+00
 Gap=     0.112 Goal=   None    Shift=    0.000
 Gap=     0.199 Goal=   None    Shift=    0.000
 RMSDP=1.45D-04 MaxDP=3.97D-03 DE=-6.69D-03 OVMax= 3.86D-03

 Cycle   7  Pass 1  IDiag  1:
 E= -1769.79941505035     Delta-E=       -0.000059616970 Rises=F Damp=F
 DIIS: error= 2.85D-04 at cycle   7 NSaved=   7.
 NSaved= 7 IEnMin= 7 EnMin= -1769.79941505035     IErMin= 7 ErrMin= 2.85D-04
 ErrMax= 2.85D-04  0.00D+00 EMaxC= 1.00D-01 BMatC= 4.30D-05 BMatP= 2.85D-04
 IDIUse=3 WtCom= 9.97D-01 WtEn= 2.85D-03
 Coeff-Com: -0.490D-02 0.578D-02-0.412D-03-0.600D-02 0.844D-02 0.272D+00
 Coeff-Com:  0.725D+00
 Coeff-En:   0.000D+00 0.000D+00 0.000D+00 0.000D+00 0.000D+00 0.000D+00
 Coeff-En:   0.100D+01
 Coeff:     -0.488D-02 0.577D-02-0.411D-03-0.598D-02 0.842D-02 0.271D+00
 Coeff:      0.726D+00
 Gap=     0.112 Goal=   None    Shift=    0.000
 Gap=     0.198 Goal=   None    Shift=    0.000
 RMSDP=5.38D-05 MaxDP=3.32D-03 DE=-5.96D-05 OVMax= 1.30D-03

 Cycle   8  Pass 1  IDiag  1:
 E= -1769.79942591460     Delta-E=       -0.000010864257 Rises=F Damp=F
 DIIS: error= 1.05D-04 at cycle   8 NSaved=   8.
 NSaved= 8 IEnMin= 8 EnMin= -1769.79942591460     IErMin= 8 ErrMin= 1.05D-04
 ErrMax= 1.05D-04  0.00D+00 EMaxC= 1.00D-01 BMatC= 5.99D-06 BMatP= 4.30D-05
 IDIUse=3 WtCom= 9.99D-01 WtEn= 1.05D-03
 Coeff-Com: -0.133D-02 0.163D-02 0.383D-03-0.348D-02-0.182D-01-0.348D-01
 Coeff-Com:  0.298D+00 0.758D+00
 Coeff-En:   0.000D+00 0.000D+00 0.000D+00 0.000D+00 0.000D+00 0.000D+00
 Coeff-En:   0.000D+00 0.100D+01
 Coeff:     -0.133D-02 0.163D-02 0.383D-03-0.347D-02-0.182D-01-0.348D-01
 Coeff:      0.298D+00 0.758D+00
 Gap=     0.112 Goal=   None    Shift=    0.000
 Gap=     0.198 Goal=   None    Shift=    0.000
 RMSDP=1.89D-05 MaxDP=7.84D-04 DE=-1.09D-05 OVMax= 7.81D-04

 Cycle   9  Pass 1  IDiag  1:
 E= -1769.79942769481     Delta-E=       -0.000001780204 Rises=F Damp=F
 DIIS: error= 3.78D-05 at cycle   9 NSaved=   9.
 NSaved= 9 IEnMin= 9 EnMin= -1769.79942769481     IErMin= 9 ErrMin= 3.78D-05
 ErrMax= 3.78D-05  0.00D+00 EMaxC= 1.00D-01 BMatC= 9.79D-07 BMatP= 5.99D-06
 IDIUse=1 WtCom= 1.00D+00 WtEn= 0.00D+00
 Coeff-Com: -0.111D-03 0.155D-03 0.323D-03-0.420D-04-0.816D-02-0.466D-01
 Coeff-Com:  0.373D-01 0.345D+00 0.672D+00
 Coeff:     -0.111D-03 0.155D-03 0.323D-03-0.420D-04-0.816D-02-0.466D-01
 Coeff:      0.373D-01 0.345D+00 0.672D+00
 Gap=     0.112 Goal=   None    Shift=    0.000
 Gap=     0.198 Goal=   None    Shift=    0.000
 RMSDP=7.24D-06 MaxDP=1.91D-04 DE=-1.78D-06 OVMax= 5.72D-04

 Cycle  10  Pass 1  IDiag  1:
 E= -1769.79942808717     Delta-E=       -0.000000392362 Rises=F Damp=F
 DIIS: error= 1.38D-05 at cycle  10 NSaved=  10.
 NSaved=10 IEnMin=10 EnMin= -1769.79942808717     IErMin=10 ErrMin= 1.38D-05
 ErrMax= 1.38D-05  0.00D+00 EMaxC= 1.00D-01 BMatC= 7.21D-08 BMatP= 9.79D-07
 IDIUse=1 WtCom= 1.00D+00 WtEn= 0.00D+00
 Coeff-Com:  0.873D-04-0.114D-03-0.179D-04 0.406D-03 0.588D-03 0.460D-03
 Coeff-Com: -0.259D-01-0.447D-01 0.831D-01 0.986D+00
 Coeff:      0.873D-04-0.114D-03-0.179D-04 0.406D-03 0.588D-03 0.460D-03
 Coeff:     -0.259D-01-0.447D-01 0.831D-01 0.986D+00
 Gap=     0.112 Goal=   None    Shift=    0.000
 Gap=     0.198 Goal=   None    Shift=    0.000
 RMSDP=4.54D-06 MaxDP=9.64D-05 DE=-3.92D-07 OVMax= 7.20D-04

 Cycle  11  Pass 1  IDiag  1:
 E= -1769.79942822763     Delta-E=       -0.000000140458 Rises=F Damp=F
 DIIS: error= 1.14D-05 at cycle  11 NSaved=  11.
 NSaved=11 IEnMin=11 EnMin= -1769.79942822763     IErMin=11 ErrMin= 1.14D-05
 ErrMax= 1.14D-05  0.00D+00 EMaxC= 1.00D-01 BMatC= 4.05D-08 BMatP= 7.21D-08
 IDIUse=1 WtCom= 1.00D+00 WtEn= 0.00D+00
 Coeff-Com:  0.578D-04-0.713D-04-0.845D-04-0.242D-03 0.907D-03 0.621D-02
 Coeff-Com:  0.103D-01-0.181D-01-0.810D-01-0.180D+00 0.126D+01
 Coeff:      0.578D-04-0.713D-04-0.845D-04-0.242D-03 0.907D-03 0.621D-02
 Coeff:      0.103D-01-0.181D-01-0.810D-01-0.180D+00 0.126D+01
 Gap=     0.112 Goal=   None    Shift=    0.000
 Gap=     0.198 Goal=   None    Shift=    0.000
 RMSDP=4.26D-06 MaxDP=1.04D-04 DE=-1.40D-07 OVMax= 7.93D-04

 Cycle  12  Pass 1  IDiag  1:
 E= -1769.79942834800     Delta-E=       -0.000000120375 Rises=F Damp=F
 DIIS: error= 1.04D-05 at cycle  12 NSaved=  12.
 NSaved=12 IEnMin=12 EnMin= -1769.79942834800     IErMin=12 ErrMin= 1.04D-05
 ErrMax= 1.04D-05  0.00D+00 EMaxC= 1.00D-01 BMatC= 1.75D-08 BMatP= 4.05D-08
 IDIUse=1 WtCom= 1.00D+00 WtEn= 0.00D+00
 Coeff-Com: -0.413D-05 0.768D-05-0.202D-04-0.220D-03-0.130D-03 0.426D-03
 Coeff-Com:  0.978D-02 0.106D-01-0.354D-01-0.314D+00 0.392D-01 0.129D+01
 Coeff:     -0.413D-05 0.768D-05-0.202D-04-0.220D-03-0.130D-03 0.426D-03
 Coeff:      0.978D-02 0.106D-01-0.354D-01-0.314D+00 0.392D-01 0.129D+01
 Gap=     0.112 Goal=   None    Shift=    0.000
 Gap=     0.198 Goal=   None    Shift=    0.000
 RMSDP=4.91D-06 MaxDP=1.26D-04 DE=-1.20D-07 OVMax= 9.40D-04

 Cycle  13  Pass 1  IDiag  1:
 E= -1769.79942846453     Delta-E=       -0.000000116524 Rises=F Damp=F
 DIIS: error= 8.87D-06 at cycle  13 NSaved=  13.
 NSaved=13 IEnMin=13 EnMin= -1769.79942846453     IErMin=13 ErrMin= 8.87D-06
 ErrMax= 8.87D-06  0.00D+00 EMaxC= 1.00D-01 BMatC= 1.25D-08 BMatP= 1.75D-08
 IDIUse=1 WtCom= 1.00D+00 WtEn= 0.00D+00
 Coeff-Com: -0.565D-04 0.709D-04 0.915D-04 0.223D-03-0.981D-03-0.614D-02
 Coeff-Com: -0.111D-01 0.133D-01 0.650D-01 0.151D+00-0.101D+01-0.542D-01
 Coeff-Com:  0.186D+01
 Coeff:     -0.565D-04 0.709D-04 0.915D-04 0.223D-03-0.981D-03-0.614D-02
 Coeff:     -0.111D-01 0.133D-01 0.650D-01 0.151D+00-0.101D+01-0.542D-01
 Coeff:      0.186D+01
 Gap=     0.112 Goal=   None    Shift=    0.000
 Gap=     0.198 Goal=   None    Shift=    0.000
 RMSDP=8.40D-06 MaxDP=2.21D-04 DE=-1.17D-07 OVMax= 1.62D-03

 Cycle  14  Pass 1  IDiag  1:
 E= -1769.79942862104     Delta-E=       -0.000000156511 Rises=F Damp=F
 DIIS: error= 6.55D-06 at cycle  14 NSaved=  14.
 NSaved=14 IEnMin=14 EnMin= -1769.79942862104     IErMin=14 ErrMin= 6.55D-06
 ErrMax= 6.55D-06  0.00D+00 EMaxC= 1.00D-01 BMatC= 7.18D-09 BMatP= 1.25D-08
 IDIUse=1 WtCom= 1.00D+00 WtEn= 0.00D+00
 Coeff-Com: -0.797D-05 0.930D-05 0.141D-04 0.893D-04 0.264D-03 0.139D-02
 Coeff-Com:  0.999D-03-0.148D-02-0.566D-02-0.139D-01 0.433D+00-0.723D+00
 Coeff-Com: -0.784D+00 0.209D+01
 Coeff:     -0.797D-05 0.930D-05 0.141D-04 0.893D-04 0.264D-03 0.139D-02
 Coeff:      0.999D-03-0.148D-02-0.566D-02-0.139D-01 0.433D+00-0.723D+00
 Coeff:     -0.784D+00 0.209D+01
 Gap=     0.112 Goal=   None    Shift=    0.000
 Gap=     0.198 Goal=   None    Shift=    0.000
 RMSDP=9.95D-06 MaxDP=2.67D-04 DE=-1.57D-07 OVMax= 1.93D-03

 Cycle  15  Pass 1  IDiag  1:
 E= -1769.79942874379     Delta-E=       -0.000000122756 Rises=F Damp=F
 DIIS: error= 4.25D-06 at cycle  15 NSaved=  15.
 NSaved=15 IEnMin=15 EnMin= -1769.79942874379     IErMin=15 ErrMin= 4.25D-06
 ErrMax= 4.25D-06  0.00D+00 EMaxC= 1.00D-01 BMatC= 2.91D-09 BMatP= 7.18D-09
 IDIUse=1 WtCom= 1.00D+00 WtEn= 0.00D+00
 Coeff-Com:  0.188D-04-0.237D-04-0.305D-04-0.916D-04 0.200D-03 0.163D-02
 Coeff-Com:  0.423D-02 0.606D-03-0.165D-01-0.540D-01 0.287D+00-0.416D-02
 Coeff-Com: -0.600D+00 0.470D-01 0.133D+01
 Coeff:      0.188D-04-0.237D-04-0.305D-04-0.916D-04 0.200D-03 0.163D-02
 Coeff:      0.423D-02 0.606D-03-0.165D-01-0.540D-01 0.287D+00-0.416D-02
 Coeff:     -0.600D+00 0.470D-01 0.133D+01
 Gap=     0.112 Goal=   None    Shift=    0.000
 Gap=     0.198 Goal=   None    Shift=    0.000
 RMSDP=5.33D-06 MaxDP=1.43D-04 DE=-1.23D-07 OVMax= 1.02D-03

 Cycle  16  Pass 1  IDiag  1:
 E= -1769.79942878489     Delta-E=       -0.000000041100 Rises=F Damp=F
 DIIS: error= 4.40D-06 at cycle  16 NSaved=  16.
 NSaved=16 IEnMin=16 EnMin= -1769.79942878489     IErMin=15 ErrMin= 4.25D-06
 ErrMax= 4.40D-06  0.00D+00 EMaxC= 1.00D-01 BMatC= 1.77D-09 BMatP= 2.91D-09
 IDIUse=1 WtCom= 1.00D+00 WtEn= 0.00D+00
 Coeff-Com:  0.109D-04-0.128D-04 0.682D-06-0.210D-04-0.374D-03-0.208D-02
 Coeff-Com: -0.379D-02 0.233D-02 0.248D-01 0.109D+00-0.601D+00 0.482D+00
 Coeff-Com:  0.103D+01-0.163D+01-0.640D+00 0.223D+01
 Coeff:      0.109D-04-0.128D-04 0.682D-06-0.210D-04-0.374D-03-0.208D-02
 Coeff:     -0.379D-02 0.233D-02 0.248D-01 0.109D+00-0.601D+00 0.482D+00
 Coeff:      0.103D+01-0.163D+01-0.640D+00 0.223D+01
 Gap=     0.112 Goal=   None    Shift=    0.000
 Gap=     0.198 Goal=   None    Shift=    0.000
 RMSDP=5.41D-06 MaxDP=1.41D-04 DE=-4.11D-08 OVMax= 1.01D-03

 Cycle  17  Pass 1  IDiag  1:
 E= -1769.79942881168     Delta-E=       -0.000000026787 Rises=F Damp=F
 DIIS: error= 4.55D-06 at cycle  17 NSaved=  17.
 NSaved=17 IEnMin=17 EnMin= -1769.79942881168     IErMin=15 ErrMin= 4.25D-06
 ErrMax= 4.55D-06  0.00D+00 EMaxC= 1.00D-01 BMatC= 4.85D-10 BMatP= 1.77D-09
 IDIUse=1 WtCom= 1.00D+00 WtEn= 0.00D+00
 Coeff-Com: -0.164D-05 0.206D-05 0.253D-05 0.157D-04 0.423D-04 0.331D-04
 Coeff-Com: -0.169D-03-0.139D-02 0.462D-03-0.908D-02 0.539D-01-0.723D-01
 Coeff-Com: -0.279D-01 0.188D+00-0.237D+00-0.242D+00 0.135D+01
 Coeff:     -0.164D-05 0.206D-05 0.253D-05 0.157D-04 0.423D-04 0.331D-04
 Coeff:     -0.169D-03-0.139D-02 0.462D-03-0.908D-02 0.539D-01-0.723D-01
 Coeff:     -0.279D-01 0.188D+00-0.237D+00-0.242D+00 0.135D+01
 Gap=     0.112 Goal=   None    Shift=    0.000
 Gap=     0.198 Goal=   None    Shift=    0.000
 RMSDP=1.79D-06 MaxDP=5.40D-05 DE=-2.68D-08 OVMax= 3.07D-04

 Cycle  18  Pass 1  IDiag  1:
 E= -1769.79942881783     Delta-E=       -0.000000006146 Rises=F Damp=F
 DIIS: error= 4.59D-06 at cycle  18 NSaved=  18.
 NSaved=18 IEnMin=18 EnMin= -1769.79942881783     IErMin=15 ErrMin= 4.25D-06
 ErrMax= 4.59D-06  0.00D+00 EMaxC= 1.00D-01 BMatC= 3.84D-10 BMatP= 4.85D-10
 IDIUse=1 WtCom= 1.00D+00 WtEn= 0.00D+00
 Coeff-Com: -0.930D-06 0.118D-05 0.956D-06 0.484D-05 0.303D-04 0.111D-03
 Coeff-Com:  0.993D-04-0.516D-03-0.148D-02-0.665D-02 0.497D-01-0.489D-01
 Coeff-Com: -0.658D-01 0.133D+00-0.408D-02-0.214D+00 0.393D+00 0.765D+00
 Coeff:     -0.930D-06 0.118D-05 0.956D-06 0.484D-05 0.303D-04 0.111D-03
 Coeff:      0.993D-04-0.516D-03-0.148D-02-0.665D-02 0.497D-01-0.489D-01
 Coeff:     -0.658D-01 0.133D+00-0.408D-02-0.214D+00 0.393D+00 0.765D+00
 Gap=     0.112 Goal=   None    Shift=    0.000
 Gap=     0.198 Goal=   None    Shift=    0.000
 RMSDP=3.31D-07 MaxDP=1.34D-05 DE=-6.15D-09 OVMax= 6.89D-05

 Cycle  19  Pass 1  IDiag  1:
 E= -1769.79942881959     Delta-E=       -0.000000001764 Rises=F Damp=F
 DIIS: error= 4.60D-06 at cycle  19 NSaved=  19.
 NSaved=19 IEnMin=19 EnMin= -1769.79942881959     IErMin=15 ErrMin= 4.25D-06
 ErrMax= 4.60D-06  0.00D+00 EMaxC= 1.00D-01 BMatC= 3.73D-10 BMatP= 3.84D-10
 IDIUse=1 WtCom= 1.00D+00 WtEn= 0.00D+00
 Coeff-Com:  0.314D-06-0.392D-06-0.652D-06-0.434D-05-0.108D-04-0.906D-05
 Coeff-Com: -0.162D-04 0.276D-03-0.314D-03 0.366D-02-0.135D-01 0.175D-01
 Coeff-Com:  0.776D-02-0.555D-01 0.733D-01 0.580D-01-0.340D+00-0.115D+00
 Coeff-Com:  0.136D+01
 Coeff:      0.314D-06-0.392D-06-0.652D-06-0.434D-05-0.108D-04-0.906D-05
 Coeff:     -0.162D-04 0.276D-03-0.314D-03 0.366D-02-0.135D-01 0.175D-01
 Coeff:      0.776D-02-0.555D-01 0.733D-01 0.580D-01-0.340D+00-0.115D+00
 Coeff:      0.136D+01
 Gap=     0.112 Goal=   None    Shift=    0.000
 Gap=     0.198 Goal=   None    Shift=    0.000
 RMSDP=5.50D-07 MaxDP=2.34D-05 DE=-1.76D-09 OVMax= 1.21D-04

 Cycle  20  Pass 1  IDiag  1:
 E= -1769.79942882264     Delta-E=       -0.000000003048 Rises=F Damp=F
 DIIS: error= 4.60D-06 at cycle  20 NSaved=  20.
 NSaved=20 IEnMin=20 EnMin= -1769.79942882264     IErMin=15 ErrMin= 4.25D-06
 ErrMax= 4.60D-06  0.00D+00 EMaxC= 1.00D-01 BMatC= 3.69D-10 BMatP= 3.73D-10
 IDIUse=1 WtCom= 1.00D+00 WtEn= 0.00D+00
 Coeff-Com:  0.867D-06-0.109D-05-0.243D-06-0.979D-06-0.245D-04-0.102D-03
 Coeff-Com: -0.215D-05 0.424D-03 0.299D-02-0.106D-02-0.423D-01 0.392D-01
 Coeff-Com:  0.697D-01-0.961D-01-0.500D-01 0.146D+00-0.799D-01-0.798D+00
 Coeff-Com: -0.131D+01 0.312D+01
 Coeff:      0.867D-06-0.109D-05-0.243D-06-0.979D-06-0.245D-04-0.102D-03
 Coeff:     -0.215D-05 0.424D-03 0.299D-02-0.106D-02-0.423D-01 0.392D-01
 Coeff:      0.697D-01-0.961D-01-0.500D-01 0.146D+00-0.799D-01-0.798D+00
 Coeff:     -0.131D+01 0.312D+01
 Gap=     0.112 Goal=   None    Shift=    0.000
 Gap=     0.198 Goal=   None    Shift=    0.000
 RMSDP=1.73D-06 MaxDP=7.40D-05 DE=-3.05D-09 OVMax= 3.83D-04

 Cycle  21  Pass 1  IDiag  1:
 E= -1769.79942883214     Delta-E=       -0.000000009500 Rises=F Damp=F
 DIIS: error= 4.60D-06 at cycle  21 NSaved=  20.
 NSaved=20 IEnMin=20 EnMin= -1769.79942883214     IErMin=14 ErrMin= 4.25D-06
 ErrMax= 4.60D-06  0.00D+00 EMaxC= 1.00D-01 BMatC= 3.62D-10 BMatP= 3.69D-10
 IDIUse=1 WtCom= 1.00D+00 WtEn= 0.00D+00
 Coeff-Com: -0.205D-07 0.217D-06 0.215D-05-0.188D-05-0.279D-04-0.180D-04
 Coeff-Com:  0.131D-03 0.774D-03-0.171D-02-0.600D-03-0.931D-02 0.138D-01
 Coeff-Com:  0.164D-01-0.487D-01-0.112D-01 0.176D+00-0.106D-01-0.851D+00
 Coeff-Com:  0.241D+00 0.148D+01
 Coeff:     -0.205D-07 0.217D-06 0.215D-05-0.188D-05-0.279D-04-0.180D-04
 Coeff:      0.131D-03 0.774D-03-0.171D-02-0.600D-03-0.931D-02 0.138D-01
 Coeff:      0.164D-01-0.487D-01-0.112D-01 0.176D+00-0.106D-01-0.851D+00
 Coeff:      0.241D+00 0.148D+01
 Gap=     0.112 Goal=   None    Shift=    0.000
 Gap=     0.198 Goal=   None    Shift=    0.000
 RMSDP=1.48D-06 MaxDP=6.41D-05 DE=-9.50D-09 OVMax= 3.32D-04

 Cycle  22  Pass 1  IDiag  1:
 E= -1769.79942884027     Delta-E=       -0.000000008126 Rises=F Damp=F
 DIIS: error= 4.60D-06 at cycle  22 NSaved=  20.
 NSaved=20 IEnMin=20 EnMin= -1769.79942884027     IErMin=13 ErrMin= 4.25D-06
 ErrMax= 4.60D-06  0.00D+00 EMaxC= 1.00D-01 BMatC= 3.60D-10 BMatP= 3.62D-10
 IDIUse=1 WtCom= 1.00D+00 WtEn= 0.00D+00
 Coeff-Com:  0.512D-08 0.332D-06 0.344D-05 0.128D-04-0.166D-04-0.446D-04
 Coeff-Com: -0.483D-03 0.115D-02 0.646D-02-0.844D-02-0.102D-01 0.165D-01
 Coeff-Com:  0.677D-02-0.246D-01 0.212D-01 0.152D+00 0.196D+00-0.642D+00
 Coeff-Com:  0.203D+00 0.108D+01
 Coeff:      0.512D-08 0.332D-06 0.344D-05 0.128D-04-0.166D-04-0.446D-04
 Coeff:     -0.483D-03 0.115D-02 0.646D-02-0.844D-02-0.102D-01 0.165D-01
 Coeff:      0.677D-02-0.246D-01 0.212D-01 0.152D+00 0.196D+00-0.642D+00
 Coeff:      0.203D+00 0.108D+01
 Gap=     0.112 Goal=   None    Shift=    0.000
 Gap=     0.198 Goal=   None    Shift=    0.000
 RMSDP=7.08D-07 MaxDP=3.10D-05 DE=-8.13D-09 OVMax= 1.60D-04

 Cycle  23  Pass 1  IDiag  1:
 E= -1769.79942884416     Delta-E=       -0.000000003894 Rises=F Damp=F
 DIIS: error= 4.60D-06 at cycle  23 NSaved=  20.
 NSaved=20 IEnMin=20 EnMin= -1769.79942884416     IErMin=12 ErrMin= 4.25D-06
 ErrMax= 4.60D-06  0.00D+00 EMaxC= 1.00D-01 BMatC= 3.59D-10 BMatP= 3.60D-10
 IDIUse=1 WtCom= 1.00D+00 WtEn= 0.00D+00
 Coeff-Com: -0.236D-06-0.384D-06 0.456D-06 0.147D-04-0.272D-04 0.124D-03
 Coeff-Com: -0.684D-04-0.155D-02 0.289D-02 0.304D-03-0.467D-02 0.480D-02
 Coeff-Com:  0.442D-02-0.237D-01-0.399D-01 0.614D-01 0.156D+00-0.281D+00
 Coeff-Com: -0.359D+00 0.148D+01
 Coeff:     -0.236D-06-0.384D-06 0.456D-06 0.147D-04-0.272D-04 0.124D-03
 Coeff:     -0.684D-04-0.155D-02 0.289D-02 0.304D-03-0.467D-02 0.480D-02
 Coeff:      0.442D-02-0.237D-01-0.399D-01 0.614D-01 0.156D+00-0.281D+00
 Coeff:     -0.359D+00 0.148D+01
 Gap=     0.112 Goal=   None    Shift=    0.000
 Gap=     0.198 Goal=   None    Shift=    0.000
 RMSDP=6.05D-07 MaxDP=2.66D-05 DE=-3.89D-09 OVMax= 1.38D-04

 Cycle  24  Pass 1  IDiag  1:
 E= -1769.79942884752     Delta-E=       -0.000000003363 Rises=F Damp=F
 DIIS: error= 4.60D-06 at cycle  24 NSaved=  20.
 NSaved=20 IEnMin=20 EnMin= -1769.79942884752     IErMin=11 ErrMin= 4.25D-06
 ErrMax= 4.60D-06  0.00D+00 EMaxC= 1.00D-01 BMatC= 3.59D-10 BMatP= 3.59D-10
 IDIUse=1 WtCom= 1.00D+00 WtEn= 0.00D+00
 Large coefficients: NSaved= 20 BigCof=    0.00 CofMax=   10.00 Det=-7.02D-15
 Inversion failed.  Reducing to 19 matrices.
 Large coefficients: NSaved= 19 BigCof=    0.00 CofMax=   10.00 Det=-7.10D-15
 Inversion failed.  Reducing to 18 matrices.
 Large coefficients: NSaved= 18 BigCof=    0.00 CofMax=   10.00 Det=-7.15D-15
 Inversion failed.  Reducing to 17 matrices.
 Large coefficients: NSaved= 17 BigCof=    0.00 CofMax=   10.00 Det=-7.18D-15
 Inversion failed.  Reducing to 16 matrices.
 Coeff-Com:  0.867D-05-0.615D-03-0.594D-03 0.156D-02 0.176D-02-0.150D-02
 Coeff-Com: -0.514D-02 0.292D-02 0.110D-01-0.295D-01-0.764D-01 0.164D+00
 Coeff-Com: -0.167D-01-0.342D+00-0.648D+00 0.194D+01
 Coeff:      0.867D-05-0.615D-03-0.594D-03 0.156D-02 0.176D-02-0.150D-02
 Coeff:     -0.514D-02 0.292D-02 0.110D-01-0.295D-01-0.764D-01 0.164D+00
 Coeff:     -0.167D-01-0.342D+00-0.648D+00 0.194D+01
 Gap=     0.112 Goal=   None    Shift=    0.000
 Gap=     0.198 Goal=   None    Shift=    0.000
 RMSDP=9.80D-07 MaxDP=4.31D-05 DE=-3.36D-09 OVMax= 2.23D-04

 Cycle  25  Pass 1  IDiag  1:
 E= -1769.79942885295     Delta-E=       -0.000000005429 Rises=F Damp=F
 DIIS: error= 4.60D-06 at cycle  25 NSaved=  17.
 NSaved=17 IEnMin=17 EnMin= -1769.79942885295     IErMin= 7 ErrMin= 4.25D-06
 ErrMax= 4.60D-06  0.00D+00 EMaxC= 1.00D-01 BMatC= 3.59D-10 BMatP= 3.59D-10
 IDIUse=1 WtCom= 1.00D+00 WtEn= 0.00D+00
 Large coefficients: NSaved= 17 BigCof=    0.00 CofMax=   10.00 Det=-3.22D-15
 Inversion failed.  Reducing to 16 matrices.
 Large coefficients: NSaved= 16 BigCof=    0.00 CofMax=   10.00 Det=-3.29D-15
 Inversion failed.  Reducing to 15 matrices.
 Coeff-Com:  0.307D-03-0.504D-03-0.257D-03 0.108D-02-0.132D-02-0.439D-03
 Coeff-Com:  0.586D-02 0.553D-03-0.270D-01 0.471D-02 0.524D-01 0.437D-04
 Coeff-Com: -0.451D+00 0.272D-02 0.141D+01
 Coeff:      0.307D-03-0.504D-03-0.257D-03 0.108D-02-0.132D-02-0.439D-03
 Coeff:      0.586D-02 0.553D-03-0.270D-01 0.471D-02 0.524D-01 0.437D-04
 Coeff:     -0.451D+00 0.272D-02 0.141D+01
 Gap=     0.112 Goal=   None    Shift=    0.000
 Gap=     0.198 Goal=   None    Shift=    0.000
 RMSDP=9.57D-07 MaxDP=4.21D-05 DE=-5.43D-09 OVMax= 2.18D-04

 Cycle  26  Pass 1  IDiag  1:
 E= -1769.79942885825     Delta-E=       -0.000000005298 Rises=F Damp=F
 DIIS: error= 4.60D-06 at cycle  26 NSaved=  16.
 NSaved=16 IEnMin=16 EnMin= -1769.79942885825     IErMin= 5 ErrMin= 4.25D-06
 ErrMax= 4.60D-06  0.00D+00 EMaxC= 1.00D-01 BMatC= 3.59D-10 BMatP= 3.59D-10
 IDIUse=1 WtCom= 1.00D+00 WtEn= 0.00D+00
 Large coefficients: NSaved= 16 BigCof=    0.00 CofMax=   10.00 Det=-1.40D-15
 Inversion failed.  Reducing to 15 matrices.
 Coeff-Com:  0.297D-03-0.100D-02 0.346D-03 0.299D-02-0.204D-02-0.885D-02
 Coeff-Com:  0.258D-02 0.607D-01-0.701D-02-0.121D+00-0.592D-01 0.694D+00
 Coeff-Com: -0.385D+00-0.179D+01 0.261D+01
 Coeff:      0.297D-03-0.100D-02 0.346D-03 0.299D-02-0.204D-02-0.885D-02
 Coeff:      0.258D-02 0.607D-01-0.701D-02-0.121D+00-0.592D-01 0.694D+00
 Coeff:     -0.385D+00-0.179D+01 0.261D+01
 Gap=     0.112 Goal=   None    Shift=    0.000
 Gap=     0.198 Goal=   None    Shift=    0.000
 RMSDP=1.47D-06 MaxDP=6.46D-05 DE=-5.30D-09 OVMax= 3.35D-04

 Cycle  27  Pass 1  IDiag  1:
 E= -1769.79942886639     Delta-E=       -0.000000008137 Rises=F Damp=F
 DIIS: error= 4.60D-06 at cycle  27 NSaved=  16.
 NSaved=16 IEnMin=16 EnMin= -1769.79942886639     IErMin= 4 ErrMin= 4.25D-06
 ErrMax= 4.60D-06  0.00D+00 EMaxC= 1.00D-01 BMatC= 3.59D-10 BMatP= 3.59D-10
 IDIUse=1 WtCom= 1.00D+00 WtEn= 0.00D+00
 Large coefficients: NSaved= 16 BigCof=    0.00 CofMax=   10.00 Det=-7.86D-16
 Inversion failed.  Reducing to 15 matrices.
 Coeff-Com: -0.101D-02-0.319D-03 0.645D-02-0.488D-02-0.160D-01 0.140D-01
 Coeff-Com:  0.195D+00-0.168D-01-0.435D+00-0.335D+00 0.264D+01-0.171D-01
 Coeff-Com: -0.696D+01 0.113D+01 0.480D+01
 Coeff:     -0.101D-02-0.319D-03 0.645D-02-0.488D-02-0.160D-01 0.140D-01
 Coeff:      0.195D+00-0.168D-01-0.435D+00-0.335D+00 0.264D+01-0.171D-01
 Coeff:     -0.696D+01 0.113D+01 0.480D+01
 Gap=     0.112 Goal=   None    Shift=    0.000
 Gap=     0.198 Goal=   None    Shift=    0.000
 RMSDP=7.82D-06 MaxDP=3.44D-04 DE=-8.14D-09 OVMax= 1.78D-03

 Cycle  28  Pass 1  IDiag  1:
 E= -1769.79942890969     Delta-E=       -0.000000043308 Rises=F Damp=F
 DIIS: error= 4.60D-06 at cycle  28 NSaved=  16.
 NSaved=16 IEnMin=16 EnMin= -1769.79942890969     IErMin= 3 ErrMin= 4.25D-06
 ErrMax= 4.60D-06  0.00D+00 EMaxC= 1.00D-01 BMatC= 3.59D-10 BMatP= 3.59D-10
 IDIUse=1 WtCom= 1.00D+00 WtEn= 0.00D+00
 Large coefficients: NSaved= 16 BigCof=    0.00 CofMax=   10.00 Det=-9.59D-16
 Inversion failed.  Reducing to 15 matrices.
 Coeff-Com: -0.540D-04 0.515D-02-0.609D-02-0.147D-01 0.847D-02 0.183D+00
 Coeff-Com:  0.254D-01-0.421D+00-0.503D+00 0.178D+01 0.112D+01-0.532D+01
 Coeff-Com: -0.864D+00 0.440D+01 0.605D+00
 Coeff:     -0.540D-04 0.515D-02-0.609D-02-0.147D-01 0.847D-02 0.183D+00
 Coeff:      0.254D-01-0.421D+00-0.503D+00 0.178D+01 0.112D+01-0.532D+01
 Coeff:     -0.864D+00 0.440D+01 0.605D+00
 Gap=     0.112 Goal=   None    Shift=    0.000
 Gap=     0.198 Goal=   None    Shift=    0.000
 RMSDP=3.77D-06 MaxDP=1.66D-04 DE=-4.33D-08 OVMax= 8.59D-04

 Cycle  29  Pass 1  IDiag  1:
 E= -1769.79942893056     Delta-E=       -0.000000020868 Rises=F Damp=F
 DIIS: error= 4.60D-06 at cycle  29 NSaved=  16.
 NSaved=16 IEnMin=16 EnMin= -1769.79942893056     IErMin= 2 ErrMin= 4.25D-06
 ErrMax= 4.60D-06  0.00D+00 EMaxC= 1.00D-01 BMatC= 3.59D-10 BMatP= 3.59D-10
 IDIUse=1 WtCom= 1.00D+00 WtEn= 0.00D+00
 Large coefficients: NSaved= 16 BigCof=    0.00 CofMax=   10.00 Det=-9.29D-16
 Inversion failed.  Reducing to 15 matrices.
 Coeff-Com:  0.596D-02-0.689D-02-0.174D-01 0.805D-02 0.200D+00 0.317D-01
 Coeff-Com: -0.459D+00-0.554D+00 0.191D+01 0.121D+01-0.554D+01-0.109D+01
 Coeff-Com:  0.460D+01 0.961D+00-0.251D+00
 Coeff:      0.596D-02-0.689D-02-0.174D-01 0.805D-02 0.200D+00 0.317D-01
 Coeff:     -0.459D+00-0.554D+00 0.191D+01 0.121D+01-0.554D+01-0.109D+01
 Coeff:      0.460D+01 0.961D+00-0.251D+00
 Gap=     0.112 Goal=   None    Shift=    0.000
 Gap=     0.198 Goal=   None    Shift=    0.000
 DSYEVD-2 returned Info=       10709 IAlg= 4 N=   118 NDim=   118 NE2=     4024692 trying  DSYEV.
 RMSDP=2.72D-07 MaxDP=1.20D-05 DE=-2.09D-08 OVMax= 6.19D-05

 Cycle  30  Pass 1  IDiag  1:
 E= -1769.79942893206     Delta-E=       -0.000000001501 Rises=F Damp=F
 DIIS: error= 4.60D-06 at cycle  30 NSaved=  16.
 NSaved=16 IEnMin=16 EnMin= -1769.79942893206     IErMin= 1 ErrMin= 4.25D-06
 ErrMax= 4.60D-06  0.00D+00 EMaxC= 1.00D-01 BMatC= 3.60D-10 BMatP= 3.59D-10
 IDIUse=1 WtCom= 1.00D+00 WtEn= 0.00D+00
 Large coefficients: NSaved= 16 BigCof=    0.00 CofMax=   10.00 Det=-3.28D-16
 Inversion failed.  Reducing to 15 matrices.
 Large coefficients: NSaved= 15 BigCof=   25.31 CofMax=   10.00 Det=-5.31D-16
 Inversion failed.  Reducing to 14 matrices.
 Large coefficients: NSaved= 14 BigCof=   25.31 CofMax=   10.00 Det=-5.35D-16
 Inversion failed.  Reducing to 13 matrices.
 Large coefficients: NSaved= 13 BigCof=   25.47 CofMax=   10.00 Det=-5.44D-16
 Inversion failed.  Reducing to 12 matrices.
 Large coefficients: NSaved= 12 BigCof=   23.66 CofMax=   10.00 Det=-5.87D-16
 Inversion failed.  Reducing to 11 matrices.
 Large coefficients: NSaved= 11 BigCof=   23.00 CofMax=   10.00 Det=-6.63D-16
 Inversion failed.  Reducing to 10 matrices.
 Large coefficients: NSaved= 10 BigCof=   23.18 CofMax=   10.00 Det=-6.65D-16
 Inversion failed.  Reducing to  9 matrices.
 Large coefficients: NSaved=  9 BigCof=   23.18 CofMax=   10.00 Det=-6.65D-16
 Inversion failed.  Reducing to  8 matrices.
 Large coefficients: NSaved=  8 BigCof=   22.97 CofMax=   10.00 Det=-6.67D-16
 Inversion failed.  Reducing to  7 matrices.
 Large coefficients: NSaved=  7 BigCof=   22.59 CofMax=   10.00 Det=-6.91D-16
 Inversion failed.  Reducing to  6 matrices.
 Large coefficients: NSaved=  6 BigCof=   19.47 CofMax=   10.00 Det=-7.90D-16
 Inversion failed.  Reducing to  5 matrices.
 Large coefficients: NSaved=  5 BigCof=   18.18 CofMax=   10.00 Det=-8.38D-16
 Inversion failed.  Reducing to  4 matrices.
 Large coefficients: NSaved=  4 BigCof=   13.98 CofMax=   10.00 Det=-1.02D-15
 Inversion failed.  Reducing to  3 matrices.
 Large coefficients: NSaved=  3 BigCof=   12.63 CofMax=   10.00 Det=-2.06D-15
 Inversion failed.  Reducing to  2 matrices.
 Coeff-Com:  0.621D+01-0.521D+01
 Coeff:      0.621D+01-0.521D+01
 Gap=     0.112 Goal=   None    Shift=    0.000
 Gap=     0.198 Goal=   None    Shift=    0.000
 RMSDP=1.35D-06 MaxDP=5.92D-05 DE=-1.50D-09 OVMax= 3.07D-04

 Cycle  31  Pass 1  IDiag  1:
 E= -1769.79942892460     Delta-E=        0.000000007463 Rises=F Damp=F
 DIIS: error= 4.60D-06 at cycle  31 NSaved=   3.
 NSaved= 3 IEnMin= 2 EnMin= -1769.79942893206     IErMin= 3 ErrMin= 4.60D-06
 ErrMax= 4.60D-06  0.00D+00 EMaxC= 1.00D-01 BMatC= 3.59D-10 BMatP= 3.59D-10
 IDIUse=1 WtCom= 1.00D+00 WtEn= 0.00D+00
 Coeff-Com:  0.314D+01-0.256D+01 0.419D+00
 Coeff:      0.314D+01-0.256D+01 0.419D+00
 Gap=     0.112 Goal=   None    Shift=    0.000
 Gap=     0.198 Goal=   None    Shift=    0.000
 RMSDP=2.69D-07 MaxDP=1.18D-05 DE= 7.46D-09 OVMax= 6.14D-05

 Cycle  32  Pass 1  IDiag  1:
 E= -1769.79942892610     Delta-E=       -0.000000001495 Rises=F Damp=F
 DIIS: error= 4.60D-06 at cycle  32 NSaved=   4.
 NSaved= 4 IEnMin= 2 EnMin= -1769.79942893206     IErMin= 3 ErrMin= 4.60D-06
 ErrMax= 4.60D-06  0.00D+00 EMaxC= 1.00D-01 BMatC= 3.59D-10 BMatP= 3.59D-10
 IDIUse=1 WtCom= 1.00D+00 WtEn= 0.00D+00
 Coeff-Com: -0.143D+01 0.120D+01 0.123D+00 0.110D+01
 Coeff:     -0.143D+01 0.120D+01 0.123D+00 0.110D+01
 Gap=     0.112 Goal=   None    Shift=    0.000
 Gap=     0.198 Goal=   None    Shift=    0.000
 RMSDP=4.53D-07 MaxDP=1.99D-05 DE=-1.50D-09 OVMax= 1.03D-04

 Cycle  33  Pass 1  IDiag  1:
 E= -1769.79942892861     Delta-E=       -0.000000002510 Rises=F Damp=F
 DIIS: error= 4.60D-06 at cycle  33 NSaved=   5.
 NSaved= 5 IEnMin= 2 EnMin= -1769.79942893206     IErMin= 3 ErrMin= 4.60D-06
 ErrMax= 4.60D-06  0.00D+00 EMaxC= 1.00D-01 BMatC= 3.59D-10 BMatP= 3.59D-10
 IDIUse=1 WtCom= 1.00D+00 WtEn= 0.00D+00
 Large coefficients: NSaved=  5 BigCof=   33.40 CofMax=   10.00 Det=-8.99D-17
 Inversion failed.  Reducing to  4 matrices.
 Coeff-Com: -0.451D+01 0.390D+01 0.260D+00 0.134D+01
 Coeff:     -0.451D+01 0.390D+01 0.260D+00 0.134D+01
 Gap=     0.112 Goal=   None    Shift=    0.000
 Gap=     0.198 Goal=   None    Shift=    0.000
 RMSDP=1.07D-06 MaxDP=4.72D-05 DE=-2.51D-09 OVMax= 2.45D-04

 Cycle  34  Pass 1  IDiag  1:
 E= -1769.79942893455     Delta-E=       -0.000000005942 Rises=F Damp=F
 DIIS: error= 4.60D-06 at cycle  34 NSaved=   5.
 NSaved= 5 IEnMin= 5 EnMin= -1769.79942893455     IErMin= 5 ErrMin= 4.60D-06
 ErrMax= 4.60D-06  0.00D+00 EMaxC= 1.00D-01 BMatC= 3.59D-10 BMatP= 3.59D-10
 IDIUse=1 WtCom= 1.00D+00 WtEn= 0.00D+00
 Large coefficients: NSaved=  5 BigCof=   23.76 CofMax=   10.00 Det=-2.72D-16
 Inversion failed.  Reducing to  4 matrices.
 Large coefficients: NSaved=  4 BigCof=   10.76 CofMax=   10.00 Det=-4.47D-16
 Inversion failed.  Reducing to  3 matrices.
 Coeff-Com: -0.411D-01 0.494D+00 0.547D+00
 Coeff:     -0.411D-01 0.494D+00 0.547D+00
 Gap=     0.112 Goal=   None    Shift=    0.000
 Gap=     0.198 Goal=   None    Shift=    0.000
 RMSDP=1.70D-07 MaxDP=7.47D-06 DE=-5.94D-09 OVMax= 3.87D-05

 Cycle  35  Pass 1  IDiag  1:
 E= -1769.79942893360     Delta-E=        0.000000000945 Rises=F Damp=F
 DIIS: error= 4.60D-06 at cycle  35 NSaved=   4.
 NSaved= 4 IEnMin= 3 EnMin= -1769.79942893455     IErMin= 4 ErrMin= 4.60D-06
 ErrMax= 4.60D-06  0.00D+00 EMaxC= 1.00D-01 BMatC= 3.59D-10 BMatP= 3.59D-10
 IDIUse=1 WtCom= 1.00D+00 WtEn= 0.00D+00
 Coeff-Com: -0.460D-01-0.150D+01 0.116D+01 0.138D+01
 Coeff:     -0.460D-01-0.150D+01 0.116D+01 0.138D+01
 Gap=     0.112 Goal=   None    Shift=    0.000
 Gap=     0.198 Goal=   None    Shift=    0.000
 RMSDP=1.90D-06 MaxDP=8.37D-05 DE= 9.45D-10 OVMax= 4.34D-04

 Cycle  36  Pass 1  IDiag  1:
 E= -1769.79942894415     Delta-E=       -0.000000010553 Rises=F Damp=F
 DIIS: error= 4.60D-06 at cycle  36 NSaved=   5.
 NSaved= 5 IEnMin= 5 EnMin= -1769.79942894415     IErMin= 5 ErrMin= 4.60D-06
 ErrMax= 4.60D-06  0.00D+00 EMaxC= 1.00D-01 BMatC= 3.59D-10 BMatP= 3.59D-10
 IDIUse=1 WtCom= 1.00D+00 WtEn= 0.00D+00
 Large coefficients: NSaved=  5 BigCof=   11.68 CofMax=   10.00 Det=-1.85D-15
 Inversion failed.  Reducing to  4 matrices.
 Coeff-Com: -0.765D-02-0.115D+00-0.194D+00 0.132D+01
 Coeff:     -0.765D-02-0.115D+00-0.194D+00 0.132D+01
 Gap=     0.112 Goal=   None    Shift=    0.000
 Gap=     0.198 Goal=   None    Shift=    0.000
 RMSDP=9.27D-07 MaxDP=4.08D-05 DE=-1.06D-08 OVMax= 2.11D-04

 Cycle  37  Pass 1  IDiag  1:
 E= -1769.79942894929     Delta-E=       -0.000000005134 Rises=F Damp=F
 DIIS: error= 4.60D-06 at cycle  37 NSaved=   5.
 NSaved= 5 IEnMin= 5 EnMin= -1769.79942894929     IErMin= 5 ErrMin= 4.60D-06
 ErrMax= 4.60D-06  0.00D+00 EMaxC= 1.00D-01 BMatC= 3.59D-10 BMatP= 3.59D-10
 IDIUse=1 WtCom= 1.00D+00 WtEn= 0.00D+00
 Coeff-Com: -0.365D+00-0.579D+01-0.638D+01 0.707D+01 0.647D+01
 Coeff:     -0.365D+00-0.579D+01-0.638D+01 0.707D+01 0.647D+01
 Gap=     0.112 Goal=   None    Shift=    0.000
 DSYEVD-2 returned Info=       10709 IAlg= 4 N=   118 NDim=   118 NE2=     4024692 trying  DSYEV.
 Gap=     0.198 Goal=   None    Shift=    0.000
 RMSDP=2.84D-05 MaxDP=1.25D-03 DE=-5.13D-09 OVMax= 6.47D-03

 Cycle  38  Pass 1  IDiag  1:
 E= -1769.79942910646     Delta-E=       -0.000000157167 Rises=F Damp=F
 DIIS: error= 4.60D-06 at cycle  38 NSaved=   6.
 NSaved= 6 IEnMin= 6 EnMin= -1769.79942910646     IErMin= 6 ErrMin= 4.60D-06
 ErrMax= 4.60D-06  0.00D+00 EMaxC= 1.00D-01 BMatC= 3.85D-10 BMatP= 3.59D-10
 IDIUse=1 WtCom= 1.00D+00 WtEn= 0.00D+00
 Large coefficients: NSaved=  6 BigCof=   14.82 CofMax=   10.00 Det=-6.61D-16
 Inversion failed.  Reducing to  5 matrices.
 Coeff-Com: -0.635D+01-0.651D+01 0.719D+01 0.670D+01-0.360D-01
 Coeff:     -0.635D+01-0.651D+01 0.719D+01 0.670D+01-0.360D-01
 Gap=     0.112 Goal=   None    Shift=    0.000
 Gap=     0.198 Goal=   None    Shift=    0.000
 RMSDP=4.26D-07 MaxDP=1.87D-05 DE=-1.57D-07 OVMax= 9.72D-05

 Cycle  39  Pass 1  IDiag  1:
 E= -1769.79942910410     Delta-E=        0.000000002359 Rises=F Damp=F
 DIIS: error= 4.60D-06 at cycle  39 NSaved=   6.
 NSaved= 6 IEnMin= 5 EnMin= -1769.79942910646     IErMin= 5 ErrMin= 4.60D-06
 ErrMax= 4.60D-06  0.00D+00 EMaxC= 1.00D-01 BMatC= 3.86D-10 BMatP= 3.59D-10
 IDIUse=1 WtCom= 1.00D+00 WtEn= 0.00D+00
 Coeff-Com: -0.655D+01-0.671D+01 0.738D+01 0.692D+01-0.549D+00 0.508D+00
 Coeff:     -0.655D+01-0.671D+01 0.738D+01 0.692D+01-0.549D+00 0.508D+00
 Gap=     0.112 Goal=   None    Shift=    0.000
 Gap=     0.198 Goal=   None    Shift=    0.000
 RMSDP=5.66D-07 MaxDP=2.49D-05 DE= 2.36D-09 OVMax= 1.29D-04

 Cycle  40  Pass 1  IDiag  1:
 E= -1769.79942910722     Delta-E=       -0.000000003121 Rises=F Damp=F
 DIIS: error= 4.60D-06 at cycle  40 NSaved=   7.
 NSaved= 7 IEnMin= 7 EnMin= -1769.79942910722     IErMin= 5 ErrMin= 4.60D-06
 ErrMax= 4.60D-06  0.00D+00 EMaxC= 1.00D-01 BMatC= 3.89D-10 BMatP= 3.59D-10
 IDIUse=1 WtCom= 1.00D+00 WtEn= 0.00D+00
 Large coefficients: NSaved=  7 BigCof=  111.48 CofMax=   10.00 Det=-1.51D-16
 Inversion failed.  Reducing to  6 matrices.
 Large coefficients: NSaved=  6 BigCof=   13.13 CofMax=   10.00 Det=-2.95D-16
 Inversion failed.  Reducing to  5 matrices.
 Large coefficients: NSaved=  5 BigCof=   13.49 CofMax=   10.00 Det=-2.97D-16
 Inversion failed.  Reducing to  4 matrices.
 Coeff-Com:  0.929D+00 0.836D+01-0.829D+01-0.220D-02
 Coeff:      0.929D+00 0.836D+01-0.829D+01-0.220D-02
 Gap=     0.112 Goal=   None    Shift=    0.000
 DSYEVD-2 returned Info=       10709 IAlg= 4 N=   118 NDim=   118 NE2=     4024692 trying  DSYEV.
 Gap=     0.198 Goal=   None    Shift=    0.000
 DSYEVD-2 returned Info=       10709 IAlg= 4 N=   118 NDim=   118 NE2=     4024692 trying  DSYEV.
 RMSDP=2.26D-05 MaxDP=9.96D-04 DE=-3.12D-09 OVMax= 5.16D-03

 Cycle  41  Pass 1  IDiag  1:
 E= -1769.79942898192     Delta-E=        0.000000125299 Rises=F Damp=F
 DIIS: error= 4.60D-06 at cycle  41 NSaved=   5.
 NSaved= 5 IEnMin= 4 EnMin= -1769.79942910722     IErMin= 2 ErrMin= 4.60D-06
 ErrMax= 4.60D-06  0.00D+00 EMaxC= 1.00D-01 BMatC= 3.61D-10 BMatP= 3.59D-10
 IDIUse=1 WtCom= 1.00D+00 WtEn= 0.00D+00
 Large coefficients: NSaved=  5 BigCof=  110.79 CofMax=   10.00 Det=-9.33D-17
 Inversion failed.  Reducing to  4 matrices.
 Large coefficients: NSaved=  4 BigCof=  111.04 CofMax=   10.00 Det=-9.34D-17
 Inversion failed.  Reducing to  3 matrices.
 Coeff-Com:  0.226D+00 0.679D-02 0.767D+00
 Coeff:      0.226D+00 0.679D-02 0.767D+00
 Gap=     0.112 Goal=   None    Shift=    0.000
 Gap=     0.198 Goal=   None    Shift=    0.000
 RMSDP=5.58D-06 MaxDP=2.46D-04 DE= 1.25D-07 OVMax= 1.27D-03

 Cycle  42  Pass 1  IDiag  1:
 E= -1769.79942901284     Delta-E=       -0.000000030918 Rises=F Damp=F
 DIIS: error= 4.60D-06 at cycle  42 NSaved=   4.
 NSaved= 4 IEnMin= 2 EnMin= -1769.79942910722     IErMin= 1 ErrMin= 4.60D-06
 ErrMax= 4.60D-06  0.00D+00 EMaxC= 1.00D-01 BMatC= 3.59D-10 BMatP= 3.61D-10
 IDIUse=1 WtCom= 1.00D+00 WtEn= 0.00D+00
 Coeff-Com: -0.165D+01 0.173D+01 0.467D+00 0.455D+00
 Coeff:     -0.165D+01 0.173D+01 0.467D+00 0.455D+00
 Gap=     0.112 Goal=   None    Shift=    0.000
 Gap=     0.198 Goal=   None    Shift=    0.000
 RMSDP=7.13D-07 MaxDP=3.13D-05 DE=-3.09D-08 OVMax= 1.63D-04

 Cycle  43  Pass 1  IDiag  1:
 E= -1769.79942900889     Delta-E=        0.000000003944 Rises=F Damp=F
 DIIS: error= 4.60D-06 at cycle  43 NSaved=   5.
 NSaved= 5 IEnMin= 2 EnMin= -1769.79942910722     IErMin= 1 ErrMin= 4.60D-06
 ErrMax= 4.60D-06  0.00D+00 EMaxC= 1.00D-01 BMatC= 3.59D-10 BMatP= 3.59D-10
 IDIUse=1 WtCom= 1.00D+00 WtEn= 0.00D+00
 Large coefficients: NSaved=  5 BigCof=   13.49 CofMax=   10.00 Det=-6.00D-16
 Inversion failed.  Reducing to  4 matrices.
 Coeff-Com: -0.281D+01 0.276D+01 0.136D+01-0.308D+00
 Coeff:     -0.281D+01 0.276D+01 0.136D+01-0.308D+00
 Gap=     0.112 Goal=   None    Shift=    0.000
 Gap=     0.198 Goal=   None    Shift=    0.000
 RMSDP=8.00D-07 MaxDP=3.52D-05 DE= 3.94D-09 OVMax= 1.82D-04

 Cycle  44  Pass 1  IDiag  1:
 E= -1769.79942901332     Delta-E=       -0.000000004424 Rises=F Damp=F
 DIIS: error= 4.60D-06 at cycle  44 NSaved=   5.
 NSaved= 5 IEnMin= 2 EnMin= -1769.79942910722     IErMin= 1 ErrMin= 4.60D-06
 ErrMax= 4.60D-06  0.00D+00 EMaxC= 1.00D-01 BMatC= 3.59D-10 BMatP= 3.59D-10
 IDIUse=1 WtCom= 1.00D+00 WtEn= 0.00D+00
 Large coefficients: NSaved=  5 BigCof=   39.01 CofMax=   10.00 Det=-2.00D-16
 Inversion failed.  Reducing to  4 matrices.
 Coeff-Com:  0.151D-01 0.397D-01 0.900D+00 0.450D-01
 Coeff:      0.151D-01 0.397D-01 0.900D+00 0.450D-01
 Gap=     0.112 Goal=   None    Shift=    0.000
 Gap=     0.198 Goal=   None    Shift=    0.000
 RMSDP=5.49D-07 MaxDP=2.41D-05 DE=-4.42D-09 OVMax= 1.25D-04

 Cycle  45  Pass 1  IDiag  1:
 E= -1769.79942901636     Delta-E=       -0.000000003049 Rises=F Damp=F
 DIIS: error= 4.60D-06 at cycle  45 NSaved=   5.
 NSaved= 5 IEnMin= 2 EnMin= -1769.79942910722     IErMin= 1 ErrMin= 4.60D-06
 ErrMax= 4.60D-06  0.00D+00 EMaxC= 1.00D-01 BMatC= 3.59D-10 BMatP= 3.59D-10
 IDIUse=1 WtCom= 1.00D+00 WtEn= 0.00D+00
 Coeff-Com:  0.348D+00-0.282D+00-0.105D+00-0.496D+00 0.154D+01
 Coeff:      0.348D+00-0.282D+00-0.105D+00-0.496D+00 0.154D+01
 Gap=     0.112 Goal=   None    Shift=    0.000
 Gap=     0.198 Goal=   None    Shift=    0.000
 RMSDP=1.78D-06 MaxDP=7.84D-05 DE=-3.05D-09 OVMax= 4.07D-04

 Cycle  46  Pass 1  IDiag  1:
 E= -1769.79942902623     Delta-E=       -0.000000009868 Rises=F Damp=F
 DIIS: error= 4.60D-06 at cycle  46 NSaved=   6.
 NSaved= 6 IEnMin= 2 EnMin= -1769.79942910722     IErMin= 1 ErrMin= 4.60D-06
 ErrMax= 4.60D-06  0.00D+00 EMaxC= 1.00D-01 BMatC= 3.59D-10 BMatP= 3.59D-10
 IDIUse=1 WtCom= 1.00D+00 WtEn= 0.00D+00
 Large coefficients: NSaved=  6 BigCof=   19.50 CofMax=   10.00 Det=-1.02D-15
 Inversion failed.  Reducing to  5 matrices.
 Coeff-Com: -0.202D+01 0.194D+01-0.198D+01 0.924D+00 0.213D+01
 Coeff:     -0.202D+01 0.194D+01-0.198D+01 0.924D+00 0.213D+01
 Gap=     0.112 Goal=   None    Shift=    0.000
 Gap=     0.198 Goal=   None    Shift=    0.000
 RMSDP=2.42D-06 MaxDP=1.06D-04 DE=-9.87D-09 OVMax= 5.51D-04

 Cycle  47  Pass 1  IDiag  1:
 E= -1769.79942903962     Delta-E=       -0.000000013390 Rises=F Damp=F
 DIIS: error= 4.60D-06 at cycle  47 NSaved=   6.
 NSaved= 6 IEnMin= 2 EnMin= -1769.79942910722     IErMin= 1 ErrMin= 4.60D-06
 ErrMax= 4.60D-06  0.00D+00 EMaxC= 1.00D-01 BMatC= 3.59D-10 BMatP= 3.59D-10
 IDIUse=1 WtCom= 1.00D+00 WtEn= 0.00D+00
 Large coefficients: NSaved=  6 BigCof=   12.87 CofMax=   10.00 Det=-1.75D-15
 Inversion failed.  Reducing to  5 matrices.
 Coeff-Com:  0.384D+01-0.368D+01-0.362D+01 0.191D+01 0.255D+01
 Coeff:      0.384D+01-0.368D+01-0.362D+01 0.191D+01 0.255D+01
 Gap=     0.112 Goal=   None    Shift=    0.000
 Gap=     0.198 Goal=   None    Shift=    0.000
 RMSDP=1.25D-05 MaxDP=5.49D-04 DE=-1.34D-08 OVMax= 2.84D-03

 Cycle  48  Pass 1  IDiag  1:
 E= -1769.79942910868     Delta-E=       -0.000000069057 Rises=F Damp=F
 DIIS: error= 4.60D-06 at cycle  48 NSaved=   6.
 NSaved= 6 IEnMin= 6 EnMin= -1769.79942910868     IErMin= 6 ErrMin= 4.60D-06
 ErrMax= 4.60D-06  0.00D+00 EMaxC= 1.00D-01 BMatC= 3.60D-10 BMatP= 3.59D-10
 IDIUse=1 WtCom= 1.00D+00 WtEn= 0.00D+00
 Large coefficients: NSaved=  6 BigCof=   73.94 CofMax=   10.00 Det=-6.48D-16
 Inversion failed.  Reducing to  5 matrices.
 Coeff-Com:  0.386D+00-0.534D+00-0.649D+00 0.101D+01 0.789D+00
 Coeff:      0.386D+00-0.534D+00-0.649D+00 0.101D+01 0.789D+00
 Gap=     0.112 Goal=   None    Shift=    0.000
 Gap=     0.198 Goal=   None    Shift=    0.000
 RMSDP=2.59D-06 MaxDP=1.14D-04 DE=-6.91D-08 OVMax= 5.91D-04

 Cycle  49  Pass 1  IDiag  1:
 E= -1769.79942909434     Delta-E=        0.000000014335 Rises=F Damp=F
 DIIS: error= 4.60D-06 at cycle  49 NSaved=   6.
 NSaved= 6 IEnMin= 5 EnMin= -1769.79942910868     IErMin= 5 ErrMin= 4.60D-06
 ErrMax= 4.60D-06  0.00D+00 EMaxC= 1.00D-01 BMatC= 3.59D-10 BMatP= 3.59D-10
 IDIUse=1 WtCom= 1.00D+00 WtEn= 0.00D+00
 Large coefficients: NSaved=  6 BigCof=   41.66 CofMax=   10.00 Det=-1.32D-15
 Inversion failed.  Reducing to  5 matrices.
 Coeff-Com: -0.254D+01 0.218D+01-0.514D+00 0.912D+00 0.965D+00
 Coeff:     -0.254D+01 0.218D+01-0.514D+00 0.912D+00 0.965D+00
 Gap=     0.112 Goal=   None    Shift=    0.000
 Gap=     0.198 Goal=   None    Shift=    0.000
 DSYEVD-2 returned Info=       10709 IAlg= 4 N=   118 NDim=   118 NE2=     4024692 trying  DSYEV.
 RMSDP=7.30D-06 MaxDP=3.21D-04 DE= 1.43D-08 OVMax= 1.66D-03

 Cycle  50  Pass 1  IDiag  1:
 E= -1769.79942913473     Delta-E=       -0.000000040384 Rises=F Damp=F
 DIIS: error= 4.60D-06 at cycle  50 NSaved=   6.
 NSaved= 6 IEnMin= 6 EnMin= -1769.79942913473     IErMin= 6 ErrMin= 4.60D-06
 ErrMax= 4.60D-06  0.00D+00 EMaxC= 1.00D-01 BMatC= 3.59D-10 BMatP= 3.59D-10
 IDIUse=1 WtCom= 1.00D+00 WtEn= 0.00D+00
 Large coefficients: NSaved=  6 BigCof=   10.29 CofMax=   10.00 Det=-2.39D-15
 Inversion failed.  Reducing to  5 matrices.
 Coeff-Com: -0.267D+01 0.237D+01 0.508D+00 0.393D+00 0.393D+00
 Coeff:     -0.267D+01 0.237D+01 0.508D+00 0.393D+00 0.393D+00
 Gap=     0.112 Goal=   None    Shift=    0.000
 Gap=     0.198 Goal=   None    Shift=    0.000
 RMSDP=3.08D-06 MaxDP=1.36D-04 DE=-4.04D-08 OVMax= 7.03D-04

 Cycle  51  Pass 1  IDiag  1:
 E= -1769.79942911765     Delta-E=        0.000000017078 Rises=F Damp=F
 DIIS: error= 4.60D-06 at cycle  51 NSaved=   6.
 NSaved= 6 IEnMin= 5 EnMin= -1769.79942913473     IErMin= 5 ErrMin= 4.60D-06
 ErrMax= 4.60D-06  0.00D+00 EMaxC= 1.00D-01 BMatC= 3.58D-10 BMatP= 3.59D-10
 IDIUse=1 WtCom= 1.00D+00 WtEn= 0.00D+00
 Large coefficients: NSaved=  6 BigCof=   15.35 CofMax=   10.00 Det=-5.84D-16
 Inversion failed.  Reducing to  5 matrices.
 Coeff-Com: -0.112D+01 0.101D+01 0.595D-01 0.354D+00 0.691D+00
 Coeff:     -0.112D+01 0.101D+01 0.595D-01 0.354D+00 0.691D+00
 Gap=     0.112 Goal=   None    Shift=    0.000
 Gap=     0.198 Goal=   None    Shift=    0.000
 RMSDP=1.69D-06 MaxDP=7.41D-05 DE= 1.71D-08 OVMax= 3.84D-04

 Cycle  52  Pass 1  IDiag  1:
 E= -1769.79942912698     Delta-E=       -0.000000009332 Rises=F Damp=F
 DIIS: error= 4.60D-06 at cycle  52 NSaved=   6.
 NSaved= 6 IEnMin= 4 EnMin= -1769.79942913473     IErMin= 4 ErrMin= 4.60D-06
 ErrMax= 4.60D-06  0.00D+00 EMaxC= 1.00D-01 BMatC= 3.58D-10 BMatP= 3.58D-10
 IDIUse=1 WtCom= 1.00D+00 WtEn= 0.00D+00
 Large coefficients: NSaved=  6 BigCof=   11.38 CofMax=   10.00 Det=-1.07D-15
 Inversion failed.  Reducing to  5 matrices.
 Coeff-Com:  0.997D-01-0.564D+00-0.125D+00-0.328D+01 0.487D+01
 Coeff:      0.997D-01-0.564D+00-0.125D+00-0.328D+01 0.487D+01
 Gap=     0.112 Goal=   None    Shift=    0.000
 Gap=     0.198 Goal=   None    Shift=    0.000
 RMSDP=7.20D-06 MaxDP=3.17D-04 DE=-9.33D-09 OVMax= 1.64D-03

 Cycle  53  Pass 1  IDiag  1:
 E= -1769.79942916683     Delta-E=       -0.000000039849 Rises=F Damp=F
 DIIS: error= 4.59D-06 at cycle  53 NSaved=   6.
 NSaved= 6 IEnMin= 6 EnMin= -1769.79942916683     IErMin= 6 ErrMin= 4.59D-06
 ErrMax= 4.59D-06  0.00D+00 EMaxC= 1.00D-01 BMatC= 3.58D-10 BMatP= 3.58D-10
 IDIUse=1 WtCom= 1.00D+00 WtEn= 0.00D+00
 Coeff-Com: -0.230D+00 0.407D+00 0.251D+00-0.732D+00-0.542D+00 0.185D+01
 Coeff:     -0.230D+00 0.407D+00 0.251D+00-0.732D+00-0.542D+00 0.185D+01
 Gap=     0.112 Goal=   None    Shift=    0.000
 Gap=     0.198 Goal=   None    Shift=    0.000
 RMSDP=7.51D-06 MaxDP=3.30D-04 DE=-3.98D-08 OVMax= 1.71D-03

 Cycle  54  Pass 1  IDiag  1:
 E= -1769.79942920834     Delta-E=       -0.000000041504 Rises=F Damp=F
 DIIS: error= 4.59D-06 at cycle  54 NSaved=   7.
 NSaved= 7 IEnMin= 7 EnMin= -1769.79942920834     IErMin= 7 ErrMin= 4.59D-06
 ErrMax= 4.59D-06  0.00D+00 EMaxC= 1.00D-01 BMatC= 3.59D-10 BMatP= 3.58D-10
 IDIUse=1 WtCom= 1.00D+00 WtEn= 0.00D+00
 Large coefficients: NSaved=  7 BigCof=  306.78 CofMax=   10.00 Det=-6.58D-17
 Inversion failed.  Reducing to  6 matrices.
 Coeff-Com: -0.391D+00-0.363D-01-0.247D+01 0.317D+01 0.290D+00 0.437D+00
 Coeff:     -0.391D+00-0.363D-01-0.247D+01 0.317D+01 0.290D+00 0.437D+00
 Gap=     0.112 Goal=   None    Shift=    0.000
 Gap=     0.198 Goal=   None    Shift=    0.000
 RMSDP=4.56D-07 MaxDP=2.01D-05 DE=-4.15D-08 OVMax= 1.04D-04

 Cycle  55  Pass 1  IDiag  1:
 E= -1769.79942920581     Delta-E=        0.000000002523 Rises=F Damp=F
 DIIS: error= 4.59D-06 at cycle  55 NSaved=   7.
 NSaved= 7 IEnMin= 6 EnMin= -1769.79942920834     IErMin= 6 ErrMin= 4.59D-06
 ErrMax= 4.59D-06  0.00D+00 EMaxC= 1.00D-01 BMatC= 3.58D-10 BMatP= 3.58D-10
 IDIUse=1 WtCom= 1.00D+00 WtEn= 0.00D+00
 Large coefficients: NSaved=  7 BigCof=  266.12 CofMax=   10.00 Det=-1.20D-16
 Inversion failed.  Reducing to  6 matrices.
 Large coefficients: NSaved=  6 BigCof=   77.68 CofMax=   10.00 Det=-3.26D-16
 Inversion failed.  Reducing to  5 matrices.
 Coeff-Com: -0.179D-01 0.182D+01-0.318D+01 0.413D+00 0.197D+01
 Coeff:     -0.179D-01 0.182D+01-0.318D+01 0.413D+00 0.197D+01
 Gap=     0.112 Goal=   None    Shift=    0.000
 Gap=     0.198 Goal=   None    Shift=    0.000
 RMSDP=2.66D-06 MaxDP=1.17D-04 DE= 2.52D-09 OVMax= 6.07D-04

 Cycle  56  Pass 1  IDiag  1:
 E= -1769.79942919111     Delta-E=        0.000000014708 Rises=F Damp=F
 DIIS: error= 4.59D-06 at cycle  56 NSaved=   6.
 NSaved= 6 IEnMin= 4 EnMin= -1769.79942920834     IErMin= 4 ErrMin= 4.59D-06
 ErrMax= 4.59D-06  0.00D+00 EMaxC= 1.00D-01 BMatC= 3.60D-10 BMatP= 3.58D-10
 IDIUse=1 WtCom= 1.00D+00 WtEn= 0.00D+00
 Coeff-Com: -0.265D+00 0.102D+01-0.448D+01 0.108D+01 0.303D+01 0.618D+00
 Coeff:     -0.265D+00 0.102D+01-0.448D+01 0.108D+01 0.303D+01 0.618D+00
 Gap=     0.112 Goal=   None    Shift=    0.000
 DSYEVD-2 returned Info=       10709 IAlg= 4 N=   118 NDim=   118 NE2=     4024692 trying  DSYEV.
 Gap=     0.198 Goal=   None    Shift=    0.000
 RMSDP=2.23D-05 MaxDP=9.81D-04 DE= 1.47D-08 OVMax= 5.09D-03

 Cycle  57  Pass 1  IDiag  1:
 E= -1769.79942931451     Delta-E=       -0.000000123400 Rises=F Damp=F
 DIIS: error= 4.59D-06 at cycle  57 NSaved=   7.
 NSaved= 7 IEnMin= 7 EnMin= -1769.79942931451     IErMin= 7 ErrMin= 4.59D-06
 ErrMax= 4.59D-06  0.00D+00 EMaxC= 1.00D-01 BMatC= 3.65D-10 BMatP= 3.58D-10
 IDIUse=1 WtCom= 1.00D+00 WtEn= 0.00D+00
 Large coefficients: NSaved=  7 BigCof=  268.40 CofMax=   10.00 Det=-4.17D-16
 Inversion failed.  Reducing to  6 matrices.
 Coeff-Com: -0.198D+00-0.281D+01-0.214D+00 0.119D+01 0.187D+01 0.116D+01
 Coeff:     -0.198D+00-0.281D+01-0.214D+00 0.119D+01 0.187D+01 0.116D+01
 Gap=     0.112 Goal=   None    Shift=    0.000
 Gap=     0.198 Goal=   None    Shift=    0.000
 RMSDP=2.08D-05 MaxDP=9.15D-04 DE=-1.23D-07 OVMax= 4.75D-03

 Cycle  58  Pass 1  IDiag  1:
 E= -1769.79942942943     Delta-E=       -0.000000114923 Rises=F Damp=F
 DIIS: error= 4.59D-06 at cycle  58 NSaved=   7.
 NSaved= 7 IEnMin= 7 EnMin= -1769.79942942943     IErMin= 7 ErrMin= 4.59D-06
 ErrMax= 4.59D-06  0.00D+00 EMaxC= 1.00D-01 BMatC= 4.23D-10 BMatP= 3.58D-10
 IDIUse=1 WtCom= 1.00D+00 WtEn= 0.00D+00
 Large coefficients: NSaved=  7 BigCof=   28.62 CofMax=   10.00 Det=-2.65D-14
 Inversion failed.  Reducing to  6 matrices.
 Coeff-Com: -0.200D+01-0.212D+01-0.660D+00 0.579D+01-0.194D+01 0.193D+01
 Coeff:     -0.200D+01-0.212D+01-0.660D+00 0.579D+01-0.194D+01 0.193D+01
 Gap=     0.112 Goal=   None    Shift=    0.000
 Gap=     0.198 Goal=   None    Shift=    0.000
 RMSDP=2.40D-06 MaxDP=1.06D-04 DE=-1.15D-07 OVMax= 5.44D-04

 Cycle  59  Pass 1  IDiag  1:
 E= -1769.79942941629     Delta-E=        0.000000013141 Rises=F Damp=F
 DIIS: error= 4.58D-06 at cycle  59 NSaved=   7.
 NSaved= 7 IEnMin= 6 EnMin= -1769.79942942943     IErMin= 7 ErrMin= 4.58D-06
 ErrMax= 4.58D-06  0.00D+00 EMaxC= 1.00D-01 BMatC= 3.80D-10 BMatP= 3.58D-10
 IDIUse=1 WtCom= 1.00D+00 WtEn= 0.00D+00
 Large coefficients: NSaved=  7 BigCof=   51.00 CofMax=   10.00 Det=-8.26D-15
 Inversion failed.  Reducing to  6 matrices.
 Large coefficients: NSaved=  6 BigCof=   17.23 CofMax=   10.00 Det=-4.02D-14
 Inversion failed.  Reducing to  5 matrices.
 Coeff-Com:  0.361D+00 0.416D+00-0.194D+00 0.158D+00 0.259D+00
 Coeff:      0.361D+00 0.416D+00-0.194D+00 0.158D+00 0.259D+00
 Gap=     0.112 Goal=   None    Shift=    0.000
 Gap=     0.198 Goal=   None    Shift=    0.000
 RMSDP=2.51D-05 MaxDP=1.10D-03 DE= 1.31D-08 OVMax= 5.73D-03

 Cycle  60  Pass 1  IDiag  1:
 E= -1769.79942927747     Delta-E=        0.000000138816 Rises=F Damp=F
 DIIS: error= 4.59D-06 at cycle  60 NSaved=   6.
 NSaved= 6 IEnMin= 4 EnMin= -1769.79942942943     IErMin= 5 ErrMin= 4.58D-06
 ErrMax= 4.59D-06  0.00D+00 EMaxC= 1.00D-01 BMatC= 3.68D-10 BMatP= 3.58D-10
 IDIUse=1 WtCom= 1.00D+00 WtEn= 0.00D+00
 Large coefficients: NSaved=  6 BigCof=   28.19 CofMax=   10.00 Det=-1.87D-14
 Inversion failed.  Reducing to  5 matrices.
 Coeff-Com: -0.382D+01 0.503D+00 0.139D+01 0.966D+00 0.197D+01
 Coeff:     -0.382D+01 0.503D+00 0.139D+01 0.966D+00 0.197D+01
 Gap=     0.112 Goal=   None    Shift=    0.000
 Gap=     0.198 Goal=   None    Shift=    0.000
 RMSDP=1.14D-04 MaxDP=5.00D-03 DE= 1.39D-07 OVMax= 2.60D-02

 Cycle  61  Pass 1  IDiag  1:
 E= -1769.79942990354     Delta-E=       -0.000000626073 Rises=F Damp=F
 DIIS: error= 8.02D-06 at cycle  61 NSaved=   6.
 NSaved= 6 IEnMin= 6 EnMin= -1769.79942990354     IErMin= 4 ErrMin= 4.58D-06
 ErrMax= 8.02D-06  0.00D+00 EMaxC= 1.00D-01 BMatC= 5.30D-09 BMatP= 3.59D-10
 IDIUse=1 WtCom= 1.00D+00 WtEn= 0.00D+00
 Large coefficients: NSaved=  6 BigCof=   11.37 CofMax=   10.00 Det=-7.76D-14
 Inversion failed.  Reducing to  5 matrices.
 Coeff-Com: -0.474D+01-0.631D+00 0.254D+01 0.329D+01 0.550D+00
 Coeff:     -0.474D+01-0.631D+00 0.254D+01 0.329D+01 0.550D+00
 Gap=     0.112 Goal=   None    Shift=    0.000
 Gap=     0.198 Goal=   None    Shift=    0.000
 RMSDP=3.62D-05 MaxDP=1.59D-03 DE=-6.26D-07 OVMax= 8.26D-03

 Cycle  62  Pass 1  IDiag  1:
 E= -1769.79942970574     Delta-E=        0.000000197807 Rises=F Damp=F
 DIIS: error= 4.57D-06 at cycle  62 NSaved=   6.
 NSaved= 6 IEnMin= 5 EnMin= -1769.79942990354     IErMin= 6 ErrMin= 4.57D-06
 ErrMax= 4.57D-06  0.00D+00 EMaxC= 1.00D-01 BMatC= 5.17D-10 BMatP= 3.65D-10
 IDIUse=1 WtCom= 1.00D+00 WtEn= 0.00D+00
 Coeff-Com: -0.722D+01-0.226D+00 0.367D+01 0.481D+01 0.617D+00-0.652D+00
 Coeff:     -0.722D+01-0.226D+00 0.367D+01 0.481D+01 0.617D+00-0.652D+00
 Gap=     0.112 Goal=   None    Shift=    0.000
 Gap=     0.198 Goal=   None    Shift=    0.000
 RMSDP=2.02D-05 MaxDP=8.87D-04 DE= 1.98D-07 OVMax= 4.61D-03

 Cycle  63  Pass 1  IDiag  1:
 E= -1769.79942959449     Delta-E=        0.000000111244 Rises=F Damp=F
 DIIS: error= 4.58D-06 at cycle  63 NSaved=   7.
 NSaved= 7 IEnMin= 5 EnMin= -1769.79942990354     IErMin= 6 ErrMin= 4.57D-06
 ErrMax= 4.58D-06  0.00D+00 EMaxC= 1.00D-01 BMatC= 6.21D-10 BMatP= 3.65D-10
 IDIUse=1 WtCom= 1.00D+00 WtEn= 0.00D+00
 Large coefficients: NSaved=  7 BigCof=   24.38 CofMax=   10.00 Det=-6.85D-14
 Inversion failed.  Reducing to  6 matrices.
 Coeff-Com:  0.125D+01-0.212D+01 0.999D+00 0.408D+00-0.806D+00 0.127D+01
 Coeff:      0.125D+01-0.212D+01 0.999D+00 0.408D+00-0.806D+00 0.127D+01
 Gap=     0.112 Goal=   None    Shift=    0.000
 Gap=     0.198 Goal=   None    Shift=    0.000
 RMSDP=2.54D-05 MaxDP=1.11D-03 DE= 1.11D-07 OVMax= 5.78D-03

 Cycle  64  Pass 1  IDiag  1:
 E= -1769.79942945473     Delta-E=        0.000000139763 Rises=F Damp=F
 DIIS: error= 4.58D-06 at cycle  64 NSaved=   7.
 NSaved= 7 IEnMin= 4 EnMin= -1769.79942990354     IErMin= 5 ErrMin= 4.57D-06
 ErrMax= 4.58D-06  0.00D+00 EMaxC= 1.00D-01 BMatC= 6.52D-10 BMatP= 3.65D-10
 IDIUse=1 WtCom= 1.00D+00 WtEn= 0.00D+00
 Large coefficients: NSaved=  7 BigCof=   13.24 CofMax=   10.00 Det=-2.68D-13
 Inversion failed.  Reducing to  6 matrices.
 Coeff-Com: -0.766D+01 0.532D+01 0.204D+01-0.969D+01 0.808D+01 0.292D+01
 Coeff:     -0.766D+01 0.532D+01 0.204D+01-0.969D+01 0.808D+01 0.292D+01
 Gap=     0.112 Goal=   None    Shift=    0.000
 Gap=     0.198 Goal=   None    Shift=    0.000
 RMSDP=7.17D-05 MaxDP=3.14D-03 DE= 1.40D-07 OVMax= 1.63D-02

 >>>>>>>>>> Convergence criterion not met.
 SCF Done:  E(UB971) =  -1769.79942945     A.U. after   65 cycles
            NFock= 64  Conv=0.72D-04     -V/T= 2.0015
 <Sx>= 0.0000 <Sy>= 0.0000 <Sz>= 1.0000 <S**2>= 2.0042 S= 1.0014
 <L.S>= 0.000000000000E+00
 KE= 1.767077110774D+03 PE=-4.621207476932D+03 EE= 8.742816879252D+02
 Annihilation of the first spin contaminant:
 S**2 before annihilation     2.0042,   after     2.0000
 Leave Link  502 at Sun Feb  8 00:37:50 2015, MaxMem=   524288000 cpu:       180.0
 (Enter /opt/g09/l508.exe)
 Direct SCF.
 Tight linear equation convergence will be used.
 UB971 wavefunction.
 Quadratic Convergence SCF Method.
 Line search only if initial step raises energy.
 Two-electron integral symmetry not used.
 ReadGW:  IGet=1 IStart=         402 Next=         402 LGW=           0.
 Keep R1 and R2 ints in memory in canonical form, NReq=51444729.
 FoFCou: FMM=F IPFlag=           0 FMFlag=           0 FMFlg1=           0
         NFxFlg=           0 DoJE=F BraDBF=F KetDBF=F FulRan=T
         wScrn=  0.000000 ICntrl=     600 IOpCl=  0 I1Cent=           0 NGrid=           0
         NMat0=    1 NMatS0=   7021 NMatT0=    0 NMatD0=    1 NMtDS0=    0 NMtDT0=    0
 Symmetry not used in FoFCou.
 Iteration   1 EE= -1769.79942905825                                    Grad=3.045D-05 Max rot=    0.0008 deg.
 QCNR:  CnvC1=3.04D-10 CnvC2=3.04D-09
 LinEq1:  Iter=  0 NonCon=     1 RMS=1.19D-06 Max=7.74D-05 NDo=     1
 AX will form     1 AO Fock derivatives at one time.
 LinEq1:  Iter=  1 NonCon=     1 RMS=1.05D-06 Max=2.52D-05 NDo=     1
 LinEq1:  Iter=  2 NonCon=     1 RMS=6.64D-07 Max=2.65D-05 NDo=     1
 LinEq1:  Iter=  3 NonCon=     1 RMS=3.44D-07 Max=9.32D-06 NDo=     1
 LinEq1:  Iter=  4 NonCon=     1 RMS=7.52D-08 Max=1.41D-06 NDo=     1
 LinEq1:  Iter=  5 NonCon=     1 RMS=4.79D-08 Max=1.22D-06 NDo=     1
 LinEq1:  Iter=  6 NonCon=     1 RMS=2.20D-08 Max=7.61D-07 NDo=     1
 LinEq1:  Iter=  7 NonCon=     1 RMS=1.27D-08 Max=2.22D-07 NDo=     1
 LinEq1:  Iter=  8 NonCon=     1 RMS=4.27D-09 Max=1.31D-07 NDo=     1
 LinEq1:  Iter=  9 NonCon=     1 RMS=1.57D-09 Max=5.12D-08 NDo=     1
 LinEq1:  Iter= 10 NonCon=     1 RMS=7.63D-10 Max=2.01D-08 NDo=     1
 LinEq1:  Iter= 11 NonCon=     1 RMS=2.99D-10 Max=4.48D-09 NDo=     1
 LinEq1:  Iter= 12 NonCon=     0 RMS=6.54D-11 Max=2.39D-09 NDo=     1
 Linear equations converged to 3.045D-10 3.045D-09 after    12 iterations.
 Angle between quadratic step and gradient=  66.60 degrees.
     ILin= 1 X=0.000D+00 Y=-1.769799429058D+03 DE= 0.00D+00 F= -1.10D-04
     ILin= 2 X=2.000D-01 Y=-1.769798748175D+03 DE= 6.81D-04 F=  1.26D-02
     ILin= 3 X=1.000D-01 Y=-1.769799388182D+03 DE= 4.09D-05 F=  1.89D-03
     ILin= 4 X=8.704D-02 Y=-1.769799408239D+03 DE= 2.08D-05 F=  1.24D-03
     ILin= 5 X=6.155D-02 Y=-1.769799427839D+03 DE= 1.22D-06 F=  3.90D-04
     Reject lnstep minimum 3.989D-02 FVal=-1.769799485274D+03 Lims=  0.00D+00  8.70D-02
     ILin= 6 X=3.989D-02 Y=-1.769799431926D+03 DE=-2.87D-06 F=  3.47D-05
     A contracting polynomial of degree  6 produced  0.0361
 Iteration   2 EE= -1769.79943198737     Delta-E=       -0.000002929116 Grad=1.679D-03 Max rot=    0.0572 deg.
 QCNR:  CnvC1=7.10D-09 CnvC2=7.10D-08
 LinEq1:  Iter=  0 NonCon=     1 RMS=7.57D-06 Max=3.31D-04 NDo=     1
 LinEq1:  Iter=  1 NonCon=     1 RMS=1.11D-06 Max=6.63D-05 NDo=     1
 LinEq1:  Iter=  2 NonCon=     1 RMS=1.18D-06 Max=3.61D-05 NDo=     1
 LinEq1:  Iter=  3 NonCon=     1 RMS=7.31D-07 Max=2.55D-05 NDo=     1
 LinEq1:  Iter=  4 NonCon=     1 RMS=2.60D-07 Max=3.86D-06 NDo=     1
 LinEq1:  Iter=  5 NonCon=     1 RMS=1.20D-07 Max=1.77D-06 NDo=     1
 LinEq1:  Iter=  6 NonCon=     1 RMS=8.07D-08 Max=2.77D-06 NDo=     1
 LinEq1:  Iter=  7 NonCon=     1 RMS=6.68D-08 Max=2.96D-06 NDo=     1
 LinEq1:  Iter=  8 NonCon=     1 RMS=2.09D-08 Max=3.09D-07 NDo=     1
 LinEq1:  Iter=  9 NonCon=     1 RMS=7.80D-09 Max=2.25D-07 NDo=     1
 LinEq1:  Iter= 10 NonCon=     1 RMS=2.97D-09 Max=1.10D-07 NDo=     1
 LinEq1:  Iter= 11 NonCon=     0 RMS=1.56D-09 Max=3.60D-08 NDo=     1
 Linear equations converged to 7.098D-09 7.098D-08 after    11 iterations.
 Angle between quadratic step and gradient=  89.41 degrees.
     ILin= 1 X=0.000D+00 Y=-1.769799431987D+03 DE= 0.00D+00 F= -5.01D-06
     ILin= 2 X=1.000D+00 Y=-1.769799435218D+03 DE=-3.23D-06 F= -1.73D-06
     Reject lnstep minimum 1.902D+00 FVal=-1.769799435921D+03 Lims=  0.00D+00  1.00D+00
     ILin= 3 X=1.500D+00 Y=-1.769799435498D+03 DE=-3.51D-06 F=  9.53D-07
     Accept linear search using points  2 and  3.
     An  expanding polynomial of degree  3 produced  1.2932
 Iteration   3 EE= -1769.79943554616     Delta-E=       -0.000003558795 Grad=1.785D-03 Max rot=    0.0541 deg.
 QCNR:  CnvC1=7.10D-09 CnvC2=7.10D-08
 LinEq1:  Iter=  0 NonCon=     1 RMS=9.87D-06 Max=3.19D-04 NDo=     1
 LinEq1:  Iter=  1 NonCon=     1 RMS=4.95D-06 Max=1.11D-04 NDo=     1
 LinEq1:  Iter=  2 NonCon=     1 RMS=4.09D-06 Max=9.64D-05 NDo=     1
 LinEq1:  Iter=  3 NonCon=     1 RMS=4.72D-06 Max=8.75D-05 NDo=     1
 LinEq1:  Iter=  4 NonCon=     1 RMS=1.79D-06 Max=4.73D-05 NDo=     1
 LinEq1:  Iter=  5 NonCon=     1 RMS=1.13D-06 Max=3.43D-05 NDo=     1
 LinEq1:  Iter=  6 NonCon=     1 RMS=5.61D-07 Max=1.57D-05 NDo=     1
 LinEq1:  Iter=  7 NonCon=     1 RMS=3.72D-07 Max=9.29D-06 NDo=     1
 LinEq1:  Iter=  8 NonCon=     1 RMS=2.17D-07 Max=6.91D-06 NDo=     1
 LinEq1:  Iter=  9 NonCon=     1 RMS=1.62D-07 Max=3.81D-06 NDo=     1
 LinEq1:  Iter= 10 NonCon=     1 RMS=8.11D-08 Max=1.95D-06 NDo=     1
 LinEq1:  Iter= 11 NonCon=     1 RMS=1.98D-08 Max=3.76D-07 NDo=     1
 LinEq1:  Iter= 12 NonCon=     1 RMS=6.57D-09 Max=2.24D-07 NDo=     1
 LinEq1:  Iter= 13 NonCon=     1 RMS=4.77D-09 Max=1.49D-07 NDo=     1
 LinEq1:  Iter= 14 NonCon=     0 RMS=1.61D-09 Max=2.45D-08 NDo=     1
 Linear equations converged to 7.098D-09 7.098D-08 after    14 iterations.
 Angle between quadratic step and gradient=  89.34 degrees.
     ILin= 1 X=0.000D+00 Y=-1.769799435546D+03 DE= 0.00D+00 F= -2.78D-06
     ILin= 2 X=1.000D+00 Y=-1.769799435556D+03 DE=-9.74D-09 F=  2.56D-06
     Accept linear search using points  1 and  2.
     An  expanding polynomial of degree  2 produced  0.4920
 Iteration   4 EE= -1769.79943621694     Delta-E=       -0.000000670773 Grad=2.102D-03 Max rot=    0.0409 deg.
 QCNR:  CnvC1=7.10D-09 CnvC2=7.10D-08
 LinEq1:  Iter=  0 NonCon=     1 RMS=1.04D-05 Max=2.15D-04 NDo=     1
 LinEq1:  Iter=  1 NonCon=     1 RMS=7.46D-06 Max=1.47D-04 NDo=     1
 LinEq1:  Iter=  2 NonCon=     1 RMS=8.80D-06 Max=2.23D-04 NDo=     1
 LinEq1:  Iter=  3 NonCon=     1 RMS=5.94D-06 Max=1.38D-04 NDo=     1
 LinEq1:  Iter=  4 NonCon=     1 RMS=2.83D-06 Max=7.47D-05 NDo=     1
 LinEq1:  Iter=  5 NonCon=     1 RMS=1.06D-06 Max=2.43D-05 NDo=     1
 LinEq1:  Iter=  6 NonCon=     1 RMS=5.56D-07 Max=1.99D-05 NDo=     1
 LinEq1:  Iter=  7 NonCon=     1 RMS=3.61D-07 Max=1.28D-05 NDo=     1
 LinEq1:  Iter=  8 NonCon=     1 RMS=1.54D-07 Max=3.47D-06 NDo=     1
 LinEq1:  Iter=  9 NonCon=     1 RMS=1.19D-07 Max=4.27D-06 NDo=     1
 LinEq1:  Iter= 10 NonCon=     1 RMS=6.71D-08 Max=1.82D-06 NDo=     1
 LinEq1:  Iter= 11 NonCon=     1 RMS=3.21D-08 Max=4.33D-07 NDo=     1
 LinEq1:  Iter= 12 NonCon=     1 RMS=1.04D-08 Max=4.23D-07 NDo=     1
 LinEq1:  Iter= 13 NonCon=     1 RMS=3.36D-09 Max=1.41D-07 NDo=     1
 LinEq1:  Iter= 14 NonCon=     0 RMS=1.82D-09 Max=4.02D-08 NDo=     1
 Linear equations converged to 7.098D-09 7.098D-08 after    14 iterations.
 Angle between quadratic step and gradient=  89.44 degrees.
     ILin= 1 X=0.000D+00 Y=-1.769799436217D+03 DE= 0.00D+00 F= -2.80D-06
     ILin= 2 X=1.000D+00 Y=-1.769799437380D+03 DE=-1.16D-06 F=  4.19D-07
     Accept linear search using points  1 and  2.
     An  expanding polynomial of degree  2 produced  0.8637
 Iteration   5 EE= -1769.79943740840     Delta-E=       -0.000001191461 Grad=1.351D-03 Max rot=    0.0200 deg.
 QCNR:  CnvC1=7.10D-09 CnvC2=7.10D-08
 LinEq1:  Iter=  0 NonCon=     1 RMS=9.51D-06 Max=2.14D-04 NDo=     1
 LinEq1:  Iter=  1 NonCon=     1 RMS=6.07D-06 Max=2.85D-04 NDo=     1
 LinEq1:  Iter=  2 NonCon=     1 RMS=5.80D-06 Max=1.87D-04 NDo=     1
 LinEq1:  Iter=  3 NonCon=     1 RMS=5.26D-06 Max=1.25D-04 NDo=     1
 LinEq1:  Iter=  4 NonCon=     1 RMS=2.66D-06 Max=3.74D-05 NDo=     1
 LinEq1:  Iter=  5 NonCon=     1 RMS=1.24D-06 Max=2.68D-05 NDo=     1
 LinEq1:  Iter=  6 NonCon=     1 RMS=8.55D-07 Max=2.51D-05 NDo=     1
 LinEq1:  Iter=  7 NonCon=     1 RMS=6.22D-07 Max=2.39D-05 NDo=     1
 LinEq1:  Iter=  8 NonCon=     1 RMS=2.13D-07 Max=7.17D-06 NDo=     1
 LinEq1:  Iter=  9 NonCon=     1 RMS=1.09D-07 Max=3.73D-06 NDo=     1
 LinEq1:  Iter= 10 NonCon=     1 RMS=7.23D-08 Max=1.70D-06 NDo=     1
 LinEq1:  Iter= 11 NonCon=     1 RMS=2.10D-08 Max=5.55D-07 NDo=     1
 LinEq1:  Iter= 12 NonCon=     1 RMS=9.01D-09 Max=3.18D-07 NDo=     1
 LinEq1:  Iter= 13 NonCon=     1 RMS=5.10D-09 Max=1.70D-07 NDo=     1
 LinEq1:  Iter= 14 NonCon=     0 RMS=2.09D-09 Max=3.57D-08 NDo=     1
 Linear equations converged to 7.098D-09 7.098D-08 after    14 iterations.
 Angle between quadratic step and gradient=  89.15 degrees.
     ILin= 1 X=0.000D+00 Y=-1.769799437408D+03 DE= 0.00D+00 F= -1.72D-06
     ILin= 2 X=1.000D+00 Y=-1.769799437854D+03 DE=-4.46D-07 F=  8.43D-07
     Accept linear search using points  1 and  2.
     An  expanding polynomial of degree  2 produced  0.6749
[...]
 (Enter /opt/g09/l1102.exe)
 Symmetrizing basis deriv contribution to polar:
 IMax=3 JMax=2 DiffMx= 0.00D+00
 Leave Link 1102 at Sun Feb  8 00:46:52 2015, MaxMem=   524288000 cpu:         0.3
 (Enter /opt/g09/l1110.exe)
 Forming Gx(P) for the SCF density, NAtomX=     3.
 Integral derivatives from FoFJK, PRISM(SPDF).
 Do as many integral derivatives as possible in FoFJK.
 G2DrvN: MDV=     524287872.
 G2DrvN: will do     4 centers at a time, making    1 passes.
 Calling FoFCou, ICntrl=  3107 FMM=F I1Cent=   0 AccDes= 0.00D+00.
 FoFJK:  IHMeth= 1 ICntrl=    3107 DoSepK=F KAlg= 0 I1Cent=   0 FoldK=F
 IRaf=         0 NMat=   1 IRICut=       1 DoRegI=T DoRafI=F ISym2E= 0.
 FoFCou: FMM=F IPFlag=           0 FMFlag=      100000 FMFlg1=           0
         NFxFlg=           0 DoJE=F BraDBF=F KetDBF=F FulRan=T
         wScrn=  0.000000 ICntrl=    3107 IOpCl=  1 I1Cent=           0 NGrid=           0
         NMat0=    1 NMatS0=      1 NMatT0=    0 NMatD0=    1 NMtDS0=    0 NMtDT0=    0
 Symmetry not used in FoFCou.
 End of G2Drv F.D. properties file   721 does not exist.
 End of G2Drv F.D. properties file   722 does not exist.
 End of G2Drv F.D. properties file   788 does not exist.
 Leave Link 1110 at Sun Feb  8 00:46:57 2015, MaxMem=   524288000 cpu:        45.4
 (Enter /opt/g09/l1002.exe)
 Minotr:  UHF open shell wavefunction.
          IDoAtm=111
          Direct CPHF calculation.
          Differentiating once with respect to electric field.
                with respect to dipole field.
          Differentiating once with respect to nuclear coordinates.
          Requested convergence is 1.0D-08 RMS, and 1.0D-07 maximum.
          Secondary convergence is 1.0D-12 RMS, and 1.0D-12 maximum.
          NewPWx=T KeepS1=F KeepF1=F KeepIn=T MapXYZ=F SortEE=F KeepMc=T.
          MDV=     524287730 using IRadAn=       1.
 Generate precomputed XC quadrature information.
 Keep R1 and R2 ints in memory in canonical form, NReq=51319423.
 FoFCou: FMM=F IPFlag=           0 FMFlag=           0 FMFlg1=           0
         NFxFlg=           0 DoJE=F BraDBF=F KetDBF=F FulRan=T
         wScrn=  0.000000 ICntrl=     600 IOpCl=  0 I1Cent=           0 NGrid=           0
         NMat0=    1 NMatS0=   7021 NMatT0=    0 NMatD0=    1 NMtDS0=    0 NMtDT0=    0
 Symmetry not used in FoFCou.
          Solving linear equations simultaneously, MaxMat=       0.
          There are    12 degrees of freedom in the 1st order CPHF.  IDoFFX=6 NUNeed=     3.
      9 vectors produced by pass  0 Test12= 4.20D-14 8.33D-09 XBig12= 1.91D+02 7.05D+00.
 AX will form     9 AO Fock derivatives at one time.
      9 vectors produced by pass  1 Test12= 4.20D-14 8.33D-09 XBig12= 3.69D+01 1.49D+00.
      9 vectors produced by pass  2 Test12= 4.20D-14 8.33D-09 XBig12= 4.74D+00 7.47D-01.
      9 vectors produced by pass  3 Test12= 4.20D-14 8.33D-09 XBig12= 1.02D+00 3.16D-01.
      9 vectors produced by pass  4 Test12= 4.20D-14 8.33D-09 XBig12= 3.10D-02 7.85D-02.
      9 vectors produced by pass  5 Test12= 4.20D-14 8.33D-09 XBig12= 6.66D-04 8.35D-03.
      9 vectors produced by pass  6 Test12= 4.20D-14 8.33D-09 XBig12= 1.12D-05 9.79D-04.
      9 vectors produced by pass  7 Test12= 4.20D-14 8.33D-09 XBig12= 1.22D-07 9.69D-05.
      7 vectors produced by pass  8 Test12= 4.20D-14 8.33D-09 XBig12= 3.11D-09 1.65D-05.
      3 vectors produced by pass  9 Test12= 4.20D-14 8.33D-09 XBig12= 4.92D-11 2.43D-06.
      3 vectors produced by pass 10 Test12= 4.20D-14 8.33D-09 XBig12= 6.39D-13 3.01D-07.
      1 vectors produced by pass 11 Test12= 4.20D-14 8.33D-09 XBig12= 7.06D-15 2.98D-08.
 InvSVY:  IOpt=1 It=  1 EMax= 8.88D-16
 Solved reduced A of dimension    86 with     9 vectors.
 FullF1:  Do perturbations    1 to     3.
 Isotropic polarizability for W=    0.000000       62.58 Bohr**3.
 End of Minotr F.D. properties file   721 does not exist.
 End of Minotr F.D. properties file   722 does not exist.
 End of Minotr F.D. properties file   788 does not exist.
 Leave Link 1002 at Sun Feb  8 00:47:10 2015, MaxMem=   524288000 cpu:        98.5
 (Enter /opt/g09/l701.exe)
 Compute integral second derivatives.
 ... and contract with generalized density number  0.
 Leave Link  701 at Sun Feb  8 00:47:10 2015, MaxMem=   524288000 cpu:         3.8
 (Enter /opt/g09/l702.exe)
 L702 exits ... SP integral derivatives will be done elsewhere.
 Leave Link  702 at Sun Feb  8 00:47:11 2015, MaxMem=   524288000 cpu:         0.3
 (Enter /opt/g09/l703.exe)
 Compute integral second derivatives, UseDBF=F ICtDFT=           0.
 Integral derivatives from FoFJK, PRISM(SPDF).
 Calling FoFJK, ICntrl=    100127 FMM=F ISym2X=0 I1Cent= 0 IOpClX= 1 NMat=1 NMatS=1 NMatT=0.
 FoFJK:  IHMeth= 1 ICntrl=  100127 DoSepK=F KAlg= 0 I1Cent=   0 FoldK=F
 IRaf=         0 NMat=   1 IRICut=       1 DoRegI=T DoRafI=F ISym2E= 0.
 FoFCou: FMM=F IPFlag=           0 FMFlag=      100000 FMFlg1=         800
         NFxFlg=           0 DoJE=F BraDBF=F KetDBF=F FulRan=T
         wScrn=  0.000000 ICntrl=  100127 IOpCl=  1 I1Cent=           0 NGrid=           0
         NMat0=    1 NMatS0=      1 NMatT0=    0 NMatD0=    1 NMtDS0=    0 NMtDT0=    0
 Symmetry not used in FoFCou.
 Leave Link  703 at Sun Feb  8 00:47:24 2015, MaxMem=   524288000 cpu:       110.4
 (Enter /opt/g09/l716.exe)
 Dipole        =-1.43850666D-06 3.48273119D-09 5.09170264D-01
 Polarizability= 5.05522428D+01 6.19860924D-07 8.38375750D+01
                -3.40201683D-04 4.87815276D-06 5.33465613D+01
 Full mass-weighted force constant matrix:
 Low frequencies ---    0.0031    0.0042    0.0071    1.5146    6.6621   20.4899
 Low frequencies ---   24.8913  330.8552  471.2024
 Diagonal vibrational polarizability:
        0.0000001      25.5412701     835.6607918
 Harmonic frequencies (cm**-1), IR intensities (KM/Mole), Raman scattering
 activities (A**4/AMU), depolarization ratios for plane and unpolarized
 incident light, reduced masses (AMU), force constants (mDyne/A),
 and normal coordinates:
                      1                      2                      3
                      A                      A                      A
 Frequencies --     24.8913               330.8552               471.2024
 Red. masses --     41.1111                35.3645                41.5776
 Frc consts  --      0.0150                 2.2808                 5.4391
 IR Inten    --     19.2061                 5.8893               210.7290
  Atom  AN      X      Y      Z        X      Y      Z        X      Y      Z
     1  22     0.00   0.00   0.69     0.00   0.00   0.17     0.00   0.71   0.00
     2  17     0.00  -0.20  -0.47     0.00   0.69  -0.12     0.00  -0.49   0.08
     3  17     0.00   0.20  -0.47     0.00  -0.69  -0.12     0.00  -0.49  -0.08

 -------------------
 - Thermochemistry -
 -------------------
 Temperature   298.150 Kelvin.  Pressure   1.00000 Atm.
 Atom     1 has atomic number 22 and mass  47.94795
 Atom     2 has atomic number 17 and mass  34.96885
 Atom     3 has atomic number 17 and mass  34.96885
 Molecular mass:   117.88565 amu.
 Principal axes and moments of inertia in atomic units:
                           1         2         3
     Eigenvalues --    12.778841236.406671249.18552
           X            0.00000   0.00000   1.00000
           Y            1.00000   0.00000   0.00000
           Z            0.00000   1.00000   0.00000
 This molecule is an asymmetric top.
 Rotational symmetry number  2.
 Rotational temperatures (Kelvin)      6.77791     0.07005     0.06934
 Rotational constants (GHZ):         141.22883     1.45967     1.44473
 Zero-point vibrational energy       4946.3 (Joules/Mol)
                                    1.18218 (Kcal/Mol)
 Warning -- explicit consideration of   3 degrees of freedom as
           vibrations may cause significant error
 Vibrational temperatures:     35.81   476.03   677.95
          (Kelvin)
 
 Zero-point correction=                           0.001884 (Hartree/Particle)
 Thermal correction to Energy=                    0.006234
 Thermal correction to Enthalpy=                  0.007179
 Thermal correction to Gibbs Free Energy=        -0.027838
 Sum of electronic and zero-point Energies=          -1769.797556
 Sum of electronic and thermal Energies=             -1769.793206
 Sum of electronic and thermal Enthalpies=           -1769.792262
 Sum of electronic and thermal Free Energies=        -1769.827278
 
                     E (Thermal)             CV                S
                      KCal/Mol        Cal/Mol-Kelvin    Cal/Mol-Kelvin
 Total                    3.912             10.874             73.698
 Electronic               0.000              0.000              2.183
 Translational            0.889              2.981             40.209
 Rotational               0.889              2.981             23.116
 Vibrational              2.135              4.913              8.190
 Vibration     1          0.593              1.985              6.200
 Vibration     2          0.713              1.614              1.256
 Vibration     3          0.828              1.314              0.734
                       Q            Log10(Q)             Ln(Q)
 Total Bot       0.637347D+13         12.804376         29.483166
 Total V=0       0.468728D+14         13.670921         31.478459
 Vib (Bot)       0.167939D+01          0.225152          0.518432
 Vib (Bot)    1  0.832019D+01          0.920133          2.118685
 Vib (Bot)    2  0.564440D+00         -0.248382         -0.571921
 Vib (Bot)    3  0.357603D+00         -0.446599         -1.028332
 Vib (V=0)       0.123509D+02          1.091697          2.513725
 Vib (V=0)    1  0.883520D+01          0.946216          2.178743
 Vib (V=0)    2  0.125405D+01          0.098315          0.226379
 Vib (V=0)    3  0.111472D+01          0.047166          0.108603
 Electronic      0.300000D+01          0.477121          1.098612
 Translational   0.503091D+08          7.701647         17.733697
 Rotational      0.251453D+05          4.400456         10.132425
 
                                                freq-fine-ticl2_3let-b971-6311+gd
 p.gau
                                                             IR Spectrum
 
                                                                                                                                     
     4                                     3                                                                                         
     7                                     3                                                                                  2      
     1                                     1                                                                                  5      
 
     X                                     X                                                                                  X      
     X                                                                                                                        X      
     X                                                                                                                               
     X                                                                                                                               
     X                                                                                                                               
     X                                                                                                                               
     X                                                                                                                               
     X                                                                                                                               
     X                                                                                                                               
     X                                                                                                                               
     X                                                                                                                               
     X                                                                                                                               
     X                                                                                                                               
     X                                                                                                                               
     X                                                                                                                               
     X                                                                                                                               
     X                                                                                                                               
     X                                                                                                                               
     X                                                                                                                               
     X                                                                                                                               
 
 -------------------------------------------------------------------
 Center     Atomic                   Forces (Hartrees/Bohr)
 Number     Number              X              Y              Z
 -------------------------------------------------------------------
      1       22          -0.000000026    0.000000004    0.000000314
      2       17           0.000000013    0.000000908   -0.000000161
      3       17           0.000000013   -0.000000911   -0.000000153
 -------------------------------------------------------------------
 Cartesian Forces:  Max     0.000000911 RMS     0.000000448
 Force constants in Cartesian coordinates: 
                1             2             3             4             5 
      1  0.451951D-03
      2  0.000000D+00  0.236566D+00
      3  0.000000D+00  0.000000D+00  0.882909D-02
      4 -0.225977D-03  0.000000D+00  0.000000D+00  0.114507D-03
      5  0.000000D+00 -0.118283D+00  0.233856D-01  0.000000D+00  0.126555D+00
      6  0.000000D+00  0.188721D-01 -0.441455D-02  0.000000D+00 -0.211289D-01
      7 -0.225974D-03  0.000000D+00  0.000000D+00  0.111470D-03  0.000000D+00
      8  0.000000D+00 -0.118283D+00 -0.233856D-01  0.000000D+00 -0.827164D-02
      9  0.000000D+00 -0.188721D-01 -0.441455D-02  0.000000D+00 -0.225679D-02
                6             7             8             9 
      6  0.374247D-02
      7  0.000000D+00  0.114504D-03
      8  0.225679D-02  0.000000D+00  0.126555D+00
      9  0.672083D-03  0.000000D+00  0.211289D-01  0.374246D-02
 FormGI is forming the generalized inverse of G from B-inverse, IUseBI=4.
 Force constants in internal coordinates: 
                1             2             3 
      1  0.130078D+00
      2  0.878741D-02  0.130078D+00
      3 -0.415777D-02 -0.415775D-02  0.340413D-02
 Leave Link  716 at Sun Feb  8 00:47:25 2015, MaxMem=   524288000 cpu:         0.3
 (Enter /opt/g09/l103.exe)

 GradGradGradGradGradGradGradGradGradGradGradGradGradGradGradGradGradGrad
 Berny optimization.
 Red2BG is reusing G-inverse.
 Internal  Forces:  Max     0.000000925 RMS     0.000000754
 Search for a local minimum.
 Step number   1 out of a maximum of    2
 All quantities printed in internal units (Hartrees-Bohrs-Radians)
 Second derivative matrix not updated -- analytic derivatives used.
 The second derivative matrix:
                          R1        R2        A1
           R1           0.13008
           R2           0.00879   0.13008
           A1          -0.00416  -0.00416   0.00340
 ITU=  0
     Eigenvalues ---    0.00315   0.12129   0.13912
 Angle between quadratic step and forces=  10.09 degrees.
 Linear search not attempted -- first point.
 Iteration  1 RMS(Cart)=  0.00000580 RMS(Int)=  0.00000000
 Iteration  2 RMS(Cart)=  0.00000000 RMS(Int)=  0.00000000
 ITry= 1 IFail=0 DXMaxC= 7.04D-06 DCOld= 1.00D+10 DXMaxT= 3.00D-01 DXLimC= 3.00D+00 Rises=F
 Variable       Old X    -DE/DX   Delta X   Delta X   Delta X     New X
                                 (Linear)    (Quad)   (Total)
    R1        4.25769   0.00000   0.00000   0.00001   0.00001   4.25770
    R2        4.25769   0.00000   0.00000   0.00001   0.00001   4.25770
    A1        2.82544   0.00000   0.00000   0.00000   0.00000   2.82544
         Item               Value     Threshold  Converged?
 Maximum Force            0.000001     0.000015     YES
 RMS     Force            0.000001     0.000010     YES
 Maximum Displacement     0.000007     0.000060     YES
 RMS     Displacement     0.000006     0.000040     YES
 Predicted change in Energy=-6.137201D-12
 Optimization completed.
    -- Stationary point found.
                           ----------------------------
                           !   Optimized Parameters   !
                           ! (Angstroms and Degrees)  !
 --------------------------                            --------------------------
 ! Name  Definition              Value          Derivative Info.                !
 --------------------------------------------------------------------------------
 ! R1    R(1,2)                  2.2531         -DE/DX =    0.0                 !
 ! R2    R(1,3)                  2.2531         -DE/DX =    0.0                 !
 ! A1    A(2,1,3)              161.8856         -DE/DX =    0.0                 !
 --------------------------------------------------------------------------------
 GradGradGradGradGradGradGradGradGradGradGradGradGradGradGradGradGradGrad

 Leave Link  103 at Sun Feb  8 00:47:25 2015, MaxMem=   524288000 cpu:         0.0
 (Enter /opt/g09/l9999.exe)
 1\1\GINC-HOGARTH\Freq\UB971\6-311+G(d,p)\Cl2Ti1(3)\PB556\08-Feb-2015\0
 \\#P Geom=AllCheck Guess=TCheck SCRF=Check GenChk UB971/6-311+G(d,p) F
 req\\freq-fine-ticl2_3let-b971-6311+gdp.gau\\0,3\Ti,0.,0.,0.21804\Cl,0
 .,2.22498,-0.13664\Cl,0.,-2.22498,-0.13664\\Version=ES64L-G09RevD.01\H
 F=-1769.7994404\S2=2.004225\S2-1=0.\S2A=2.00001\RMSD=4.259e-09\RMSF=4.
 477e-07\ZeroPoint=0.0018839\Thermal=0.0062344\Dipole=-0.0000014,0.,0.5
 091703\DipoleDeriv=0.7315012,0.,-0.0000085,0.,2.4747697,0.,-0.0000079,
 0.,0.8314735,-0.3657505,0.,0.0000042,0.0000012,-1.2373848,0.1585729,0.
 000004,0.1364817,-0.4157367,-0.3657506,-0.0000001,0.0000042,-0.0000011
 ,-1.2373849,-0.158573,0.000004,-0.1364816,-0.4157368\Polar=50.5522428,
 0.0000006,83.837575,-0.0003402,0.0000049,53.3465613\PG=C02V [C2(Ti1),S
 GV(Cl2)]\NImag=0\\0.00045195,0.,0.23656604,0.00000014,0.,0.00882909,-0
 .00022598,0.,-0.00000007,0.00011451,-0.00000003,-0.11828302,0.02338565
 ,0.00000002,0.12655466,-0.00000007,0.01887206,-0.00441455,0.00000004,-
 0.02112885,0.00374247,-0.00022597,0.,-0.00000007,0.00011147,0.00000001
 ,0.00000003,0.00011450,0.00000003,-0.11828302,-0.02338564,-0.00000001,
 -0.00827164,0.00225679,-0.00000002,0.12655467,-0.00000007,-0.01887206,
 -0.00441455,0.00000003,-0.00225679,0.00067208,0.00000004,0.02112885,0.
 00374246\\0.00000003,0.,-0.00000031,-0.00000001,-0.00000091,0.00000016
 ,-0.00000001,0.00000091,0.00000015\\\@


 THERE IS AN OLD, OLD RECIPE IN MAINE FOR STEWING COOT. PLACE THE
 BIRD IN A KETTLE OF WATER WITH A RED BUILDING BRICK FREE OF MORTAR AND
 BLEMISHES. PARBOIL THE COOT AND BRICK TOGETHER FOR THREE HOURS.
 POUR OFF THE WATER, REFILL THE KETTLE, AND AGAIN PARBOIL FOR THREE HOURS.
 ONCE AGAIN POUR OFF THE WATER, FOR THE LAST TIME ADD FRESH WATER,
 AND LET THE COOT AND BRICK SIMMER TOGETHER OVERNIGHT. IN THE MORNING,
 THROW AWAY THE COOT AND EAT THE BRICK.
 Job cpu time:       0 days  0 hours  4 minutes 38.4 seconds.
 File lengths (MBytes):  RWF=     19 Int=      0 D2E=      0 Chk=      2 Scr=      1
 Normal termination of Gaussian 09 at Sun Feb  8 00:47:25 2015.
