 Entering Gaussian System, Link 0=g09
 Input=freq-fine-ticl3-b971-6311+gdp.gau
 Output=freq-fine-ticl3-b971-6311+gdp.log
 Initial command:
 /opt/g09/l1.exe "/scratch/pb556/g09_run/mech//Gau-17419.inp" -scrdir="/scratch/pb556/g09_run/mech//"
 Entering Link 1 = /opt/g09/l1.exe PID=     17428.
  
 Copyright (c) 1988,1990,1992,1993,1995,1998,2003,2009,2013,
            Gaussian, Inc.  All Rights Reserved.
  
 This is part of the Gaussian(R) 09 program.  It is based on
 the Gaussian(R) 03 system (copyright 2003, Gaussian, Inc.),
 the Gaussian(R) 98 system (copyright 1998, Gaussian, Inc.),
 the Gaussian(R) 94 system (copyright 1995, Gaussian, Inc.),
 the Gaussian 92(TM) system (copyright 1992, Gaussian, Inc.),
 the Gaussian 90(TM) system (copyright 1990, Gaussian, Inc.),
 the Gaussian 88(TM) system (copyright 1988, Gaussian, Inc.),
 the Gaussian 86(TM) system (copyright 1986, Carnegie Mellon
 University), and the Gaussian 82(TM) system (copyright 1983,
 Carnegie Mellon University). Gaussian is a federally registered
 trademark of Gaussian, Inc.
  
 This software contains proprietary and confidential information,
 including trade secrets, belonging to Gaussian, Inc.
  
 This software is provided under written license and may be
 used, copied, transmitted, or stored only in accord with that
 written license.
  
 The following legend is applicable only to US Government
 contracts under FAR:
  
                    RESTRICTED RIGHTS LEGEND
  
 Use, reproduction and disclosure by the US Government is
 subject to restrictions as set forth in subparagraphs (a)
 and (c) of the Commercial Computer Software - Restricted
 Rights clause in FAR 52.227-19.
  
 Gaussian, Inc.
 340 Quinnipiac St., Bldg. 40, Wallingford CT 06492
  
  
 ---------------------------------------------------------------
 Warning -- This program may not be used in any manner that
 competes with the business of Gaussian, Inc. or will provide
 assistance to any competitor of Gaussian, Inc.  The licensee
 of this program is prohibited from giving any competitor of
 Gaussian, Inc. access to this program.  By using this program,
 the user acknowledges that Gaussian, Inc. is engaged in the
 business of creating and licensing software in the field of
 computational chemistry and represents and warrants to the
 licensee that it is not a competitor of Gaussian, Inc. and that
 it will not use this program in any manner prohibited above.
 ---------------------------------------------------------------
  

 Cite this work as:
 Gaussian 09, Revision D.01,
 M. J. Frisch, G. W. Trucks, H. B. Schlegel, G. E. Scuseria, 
 M. A. Robb, J. R. Cheeseman, G. Scalmani, V. Barone, B. Mennucci, 
 G. A. Petersson, H. Nakatsuji, M. Caricato, X. Li, H. P. Hratchian, 
 A. F. Izmaylov, J. Bloino, G. Zheng, J. L. Sonnenberg, M. Hada, 
 M. Ehara, K. Toyota, R. Fukuda, J. Hasegawa, M. Ishida, T. Nakajima, 
 Y. Honda, O. Kitao, H. Nakai, T. Vreven, J. A. Montgomery, Jr., 
 J. E. Peralta, F. Ogliaro, M. Bearpark, J. J. Heyd, E. Brothers, 
 K. N. Kudin, V. N. Staroverov, T. Keith, R. Kobayashi, J. Normand, 
 K. Raghavachari, A. Rendell, J. C. Burant, S. S. Iyengar, J. Tomasi, 
 M. Cossi, N. Rega, J. M. Millam, M. Klene, J. E. Knox, J. B. Cross, 
 V. Bakken, C. Adamo, J. Jaramillo, R. Gomperts, R. E. Stratmann, 
 O. Yazyev, A. J. Austin, R. Cammi, C. Pomelli, J. W. Ochterski, 
 R. L. Martin, K. Morokuma, V. G. Zakrzewski, G. A. Voth, 
 P. Salvador, J. J. Dannenberg, S. Dapprich, A. D. Daniels, 
 O. Farkas, J. B. Foresman, J. V. Ortiz, J. Cioslowski, 
 and D. J. Fox, Gaussian, Inc., Wallingford CT, 2013.
 
 ******************************************
 Gaussian 09:  ES64L-G09RevD.01 24-Apr-2013
                 8-Feb-2015 
 ******************************************
 %NProcShared=8
 Will use up to    8 processors via shared memory.
 %Mem=500MW
 ----------------------------------------------------------------------
 #p uB971/6-311+G(d,p) Opt=(Tight, CalcAll) Freq GFInput Population=Non
 e Integral(Grid=UltraFine) SCF=XQC Guess=MIX NoSymmetry
 ----------------------------------------------------------------------
 1/7=10,10=4,14=-1,18=20,19=15,26=4,38=1/1,3;
 2/9=110,12=2,15=1,17=6,18=5,40=1/2;
 3/5=4,6=6,7=111,11=2,16=1,24=10,25=1,30=1,71=2,74=-20,75=-5,116=2,140=1/1,2,3;
 4/13=-1/1;
 5/5=2,8=3,13=1,38=5/2,8;
 8/6=4,10=90,11=11/1;
 11/6=1,8=1,9=11,15=111,16=1,31=1/1,2,10;
 10/6=1,31=1/2;
 7/10=1,25=1,30=1/1,2,3,16;
 1/7=10,10=4,14=-1,18=20,19=15,26=4/3(3);
 2/9=110,15=1/2;
 7/8=1,9=1,25=1,30=1,44=-1/16;
 99//99;
 2/9=110,15=1/2;
 3/5=4,6=6,7=111,11=2,16=1,25=1,30=1,71=2,74=-20,75=-5,116=2,140=1/1,2,3;
 4/5=5,16=3,69=1/1;
 5/5=2,8=3,13=1,38=5/2,8;
 8/6=4,10=90,11=11/1;
 11/6=1,8=1,9=11,15=111,16=1,31=1/1,2,10;
 10/6=1,31=1/2;
 7/10=1,25=1,30=1/1,2,3,16;
 1/7=10,10=4,14=-1,18=20,19=15,26=4/3(-8);
 2/9=110,15=1/2;
 7/8=1,9=1,25=1,30=1,44=-1/16;
 99//99;
 Leave Link    1 at Sun Feb  8 00:58:44 2015, MaxMem=   524288000 cpu:         0.5
 (Enter /opt/g09/l101.exe)
 ---------------------------------
 freq-fine-ticl3-b971-6311+gdp.gau
 ---------------------------------
 Symbolic Z-matrix:
 Charge =  0 Multiplicity = 2
 Cl                    1.78193  -1.29554  -0.0001 
 Ti                    0.00002   0.0001   -0.0001 
 Cl                   -2.01293  -0.89553  -0.0001 
 Cl                    0.23109   2.19117  -0.0001 
 
 NAtoms=      4 NQM=        4 NQMF=       0 NMMI=      0 NMMIF=      0
                NMic=       0 NMicF=      0.
                    Isotopes and Nuclear Properties:
 (Nuclear quadrupole moments (NQMom) in fm**2, nuclear magnetic moments (NMagM)
  in nuclear magnetons)

  Atom         1           2           3           4
 IAtWgt=          35          48          35          35
 AtmWgt=  34.9688527  47.9479467  34.9688527  34.9688527
 NucSpn=           3           0           3           3
 AtZEff=   0.0000000   0.0000000   0.0000000   0.0000000
 NQMom=   -8.1650000   0.0000000  -8.1650000  -8.1650000
 NMagM=    0.8218740   0.0000000   0.8218740   0.8218740
 AtZNuc=  17.0000000  22.0000000  17.0000000  17.0000000
 Leave Link  101 at Sun Feb  8 00:58:44 2015, MaxMem=   524288000 cpu:         1.9
 (Enter /opt/g09/l103.exe)

 GradGradGradGradGradGradGradGradGradGradGradGradGradGradGradGradGradGrad
 Berny optimization.
 Initialization pass.
                           ----------------------------
                           !    Initial Parameters    !
                           ! (Angstroms and Degrees)  !
 --------------------------                            --------------------------
 ! Name  Definition              Value          Derivative Info.                !
 --------------------------------------------------------------------------------
 ! R1    R(1,2)                  2.2032         calculate D2E/DX2 analytically  !
 ! R2    R(2,3)                  2.2032         calculate D2E/DX2 analytically  !
 ! R3    R(2,4)                  2.2032         calculate D2E/DX2 analytically  !
 ! A1    A(1,2,3)              119.9929         calculate D2E/DX2 analytically  !
 ! A2    A(1,2,4)              120.001          calculate D2E/DX2 analytically  !
 ! A3    A(3,2,4)              120.0061         calculate D2E/DX2 analytically  !
 ! D1    D(1,2,4,3)            180.0            calculate D2E/DX2 analytically  !
 --------------------------------------------------------------------------------
 Trust Radius=3.00D-01 FncErr=1.00D-07 GrdErr=1.00D-06
 Number of steps in this run=     20 maximum allowed number of steps=    100.
 GradGradGradGradGradGradGradGradGradGradGradGradGradGradGradGradGradGrad

 Leave Link  103 at Sun Feb  8 00:58:44 2015, MaxMem=   524288000 cpu:         0.1
 (Enter /opt/g09/l202.exe)
                          Input orientation:                          
 ---------------------------------------------------------------------
 Center     Atomic      Atomic             Coordinates (Angstroms)
 Number     Number       Type             X           Y           Z
 ---------------------------------------------------------------------
      1         17           0        1.781930   -1.295540   -0.000100
      2         22           0        0.000020    0.000100   -0.000100
      3         17           0       -2.012930   -0.895530   -0.000100
      4         17           0        0.231090    2.191170   -0.000100
 ---------------------------------------------------------------------
                    Distance matrix (angstroms):
                    1          2          3          4
     1  Cl   0.000000
     2  Ti   2.203154   0.000000
     3  Cl   3.815884   2.203207   0.000000
     4  Cl   3.816052   2.203221   3.816195   0.000000
 Symmetry turned off by external request.
 Stoichiometry    Cl3Ti(2)
 Framework group  CS[SG(Cl3Ti)]
 Deg. of freedom     5
 Full point group                 CS      NOp   2
 Rotational constants (GHZ):      1.9850894      1.9847156      0.9924512
 Leave Link  202 at Sun Feb  8 00:58:44 2015, MaxMem=   524288000 cpu:         0.0
 (Enter /opt/g09/l301.exe)
 Standard basis: 6-311+G(d,p) (5D, 7F)
 Ernie: Thresh=  0.10000D-02 Tol=  0.10000D-05 Strict=F.
 AO basis set in the form of general basis input (Overlap normalization):
      1 0
 S   6 1.00       0.000000000000
      0.1058190000D+06  0.7380002465D-03
      0.1587200000D+05  0.5718001910D-02
      0.3619650000D+04  0.2949500985D-01
      0.1030800000D+04  0.1172860392D+00
      0.3399080000D+03  0.3629491212D+00
      0.1245380000D+03  0.5841491951D+00
 S   3 1.00       0.000000000000
      0.1245380000D+03  0.1341769734D+00
      0.4951350000D+02  0.6242498762D+00
      0.2080560000D+02  0.2917559421D+00
 S   1 1.00       0.000000000000
      0.6583460000D+01  0.1000000000D+01
 S   1 1.00       0.000000000000
      0.2564680000D+01  0.1000000000D+01
 S   1 1.00       0.000000000000
      0.5597630000D+00  0.1000000000D+01
 S   1 1.00       0.000000000000
      0.1832730000D+00  0.1000000000D+01
 SP   1 1.00       0.000000000000
      0.4830000000D-01  0.1000000000D+01  0.1000000000D+01
 P   5 1.00       0.000000000000
      0.5897760000D+03  0.3665569355D-02
      0.1398490000D+03  0.2836791942D-01
      0.4514130000D+02  0.1247566028D+00
      0.1687330000D+02  0.3396546305D+00
      0.2771520000D+01  0.7475859630D+00
 P   2 1.00       0.000000000000
      0.6741100000D+01 -0.1572243813D+01
      0.2771520000D+01  0.9923888817D+00
 P   1 1.00       0.000000000000
      0.1023870000D+01  0.1000000000D+01
 P   1 1.00       0.000000000000
      0.3813680000D+00  0.1000000000D+01
 P   1 1.00       0.000000000000
      0.1094370000D+00  0.1000000000D+01
 D   1 1.00       0.000000000000
      0.7500000000D+00  0.1000000000D+01
 ****
      2 0
 S   6 1.00       0.000000000000
      0.2060820000D+06  0.5673151380D-03
      0.3122680000D+05  0.4379672866D-02
      0.7199320000D+04  0.2242029425D-01
      0.2048750000D+04  0.9063426645D-01
      0.6707900000D+03  0.2890357165D+00
      0.2436500000D+03  0.6803470061D+00
 S   1 1.00       0.000000000000
      0.9592500000D+02  0.1000000000D+01
 S   1 1.00       0.000000000000
      0.3981010000D+02  0.1000000000D+01
 S   1 1.00       0.000000000000
      0.1222050000D+02  0.1000000000D+01
 S   1 1.00       0.000000000000
      0.5008820000D+01  0.1000000000D+01
 S   1 1.00       0.000000000000
      0.1285690000D+01  0.1000000000D+01
 S   1 1.00       0.000000000000
      0.5128060000D+00  0.1000000000D+01
 S   1 1.00       0.000000000000
      0.8557600000D-01  0.1000000000D+01
 S   1 1.00       0.000000000000
      0.3330200000D-01  0.1000000000D+01
 S   1 1.00       0.000000000000
      0.9991000000D-02  0.1000000000D+01
 P   5 1.00       0.000000000000
      0.1264700000D+04  0.3122017423D-02
      0.3012300000D+03  0.2516579464D-01
      0.9697770000D+02  0.1184178291D+00
      0.3637270000D+02  0.3522190030D+00
      0.1478140000D+02  0.6219379661D+00
 P   1 1.00       0.000000000000
      0.6274650000D+01  0.1000000000D+01
 P   1 1.00       0.000000000000
      0.2478780000D+01  0.1000000000D+01
 P   1 1.00       0.000000000000
      0.1016180000D+01  0.1000000000D+01
 P   1 1.00       0.000000000000
      0.3981620000D+00  0.1000000000D+01
 P   1 1.00       0.000000000000
      0.1015610000D+00  0.1000000000D+01
 P   1 1.00       0.000000000000
      0.3405400000D-01  0.1000000000D+01
 D   3 1.00       0.000000000000
      0.2599240000D+02  0.5411706153D-01
      0.7086340000D+01  0.2873032281D+00
      0.2348710000D+01  0.7854540223D+00
 D   1 1.00       0.000000000000
      0.8001980000D+00  0.1000000000D+01
 D   1 1.00       0.000000000000
      0.2620490000D+00  0.1000000000D+01
 D   1 1.00       0.000000000000
      0.7200000000D-01  0.1000000000D+01
 F   1 1.00       0.000000000000
      0.6900000000D+00  0.1000000000D+01
 ****
      3 0
 S   6 1.00       0.000000000000
      0.1058190000D+06  0.7380002465D-03
      0.1587200000D+05  0.5718001910D-02
      0.3619650000D+04  0.2949500985D-01
      0.1030800000D+04  0.1172860392D+00
      0.3399080000D+03  0.3629491212D+00
      0.1245380000D+03  0.5841491951D+00
 S   3 1.00       0.000000000000
      0.1245380000D+03  0.1341769734D+00
      0.4951350000D+02  0.6242498762D+00
      0.2080560000D+02  0.2917559421D+00
 S   1 1.00       0.000000000000
      0.6583460000D+01  0.1000000000D+01
 S   1 1.00       0.000000000000
      0.2564680000D+01  0.1000000000D+01
 S   1 1.00       0.000000000000
      0.5597630000D+00  0.1000000000D+01
 S   1 1.00       0.000000000000
      0.1832730000D+00  0.1000000000D+01
 SP   1 1.00       0.000000000000
      0.4830000000D-01  0.1000000000D+01  0.1000000000D+01
 P   5 1.00       0.000000000000
      0.5897760000D+03  0.3665569355D-02
      0.1398490000D+03  0.2836791942D-01
      0.4514130000D+02  0.1247566028D+00
      0.1687330000D+02  0.3396546305D+00
      0.2771520000D+01  0.7475859630D+00
 P   2 1.00       0.000000000000
      0.6741100000D+01 -0.1572243813D+01
      0.2771520000D+01  0.9923888817D+00
 P   1 1.00       0.000000000000
      0.1023870000D+01  0.1000000000D+01
 P   1 1.00       0.000000000000
      0.3813680000D+00  0.1000000000D+01
 P   1 1.00       0.000000000000
      0.1094370000D+00  0.1000000000D+01
 D   1 1.00       0.000000000000
      0.7500000000D+00  0.1000000000D+01
 ****
      4 0
 S   6 1.00       0.000000000000
      0.1058190000D+06  0.7380002465D-03
      0.1587200000D+05  0.5718001910D-02
      0.3619650000D+04  0.2949500985D-01
      0.1030800000D+04  0.1172860392D+00
      0.3399080000D+03  0.3629491212D+00
      0.1245380000D+03  0.5841491951D+00
 S   3 1.00       0.000000000000
      0.1245380000D+03  0.1341769734D+00
      0.4951350000D+02  0.6242498762D+00
      0.2080560000D+02  0.2917559421D+00
 S   1 1.00       0.000000000000
      0.6583460000D+01  0.1000000000D+01
 S   1 1.00       0.000000000000
      0.2564680000D+01  0.1000000000D+01
 S   1 1.00       0.000000000000
      0.5597630000D+00  0.1000000000D+01
 S   1 1.00       0.000000000000
      0.1832730000D+00  0.1000000000D+01
 SP   1 1.00       0.000000000000
      0.4830000000D-01  0.1000000000D+01  0.1000000000D+01
 P   5 1.00       0.000000000000
      0.5897760000D+03  0.3665569355D-02
      0.1398490000D+03  0.2836791942D-01
      0.4514130000D+02  0.1247566028D+00
      0.1687330000D+02  0.3396546305D+00
      0.2771520000D+01  0.7475859630D+00
 P   2 1.00       0.000000000000
      0.6741100000D+01 -0.1572243813D+01
      0.2771520000D+01  0.9923888817D+00
 P   1 1.00       0.000000000000
      0.1023870000D+01  0.1000000000D+01
 P   1 1.00       0.000000000000
      0.3813680000D+00  0.1000000000D+01
 P   1 1.00       0.000000000000
      0.1094370000D+00  0.1000000000D+01
 D   1 1.00       0.000000000000
      0.7500000000D+00  0.1000000000D+01
 ****

   148 basis functions,   253 primitive gaussians,   158 cartesian basis functions
    37 alpha electrons       36 beta electrons
       nuclear repulsion energy       389.7175139023 Hartrees.
 IExCor= 1614 DFT=T Ex+Corr=B971 ExCW=0 ScaHFX=  0.210000
 ScaDFX=  1.000000  1.000000  1.000000  1.000000 ScalE2=  1.000000  1.000000
 IRadAn=      5 IRanWt=     -1 IRanGd=            0 ICorTp=0 IEmpDi=  4
 NAtoms=    4 NActive=    4 NUniq=    4 SFac= 1.00D+00 NAtFMM=   60 NAOKFM=F Big=F
 Integral buffers will be    131072 words long.
 Raffenetti 2 integral format.
 Two-electron integral symmetry is turned off.
 Leave Link  301 at Sun Feb  8 00:58:44 2015, MaxMem=   524288000 cpu:         0.4
 (Enter /opt/g09/l302.exe)
 NPDir=0 NMtPBC=     1 NCelOv=     1 NCel=       1 NClECP=     1 NCelD=      1
         NCelK=      1 NCelE2=     1 NClLst=     1 CellRange=     0.0.
 One-electron integrals computed using PRISM.
 NBasis=   148 RedAO= T EigKep=  1.16D-03  NBF=   148
 NBsUse=   148 1.00D-06 EigRej= -1.00D+00 NBFU=   148
 Precomputing XC quadrature grid using
 IXCGrd= 4 IRadAn=           5 IRanWt=          -1 IRanGd=           0 AccXCQ= 0.00D+00.
 Generated NRdTot=       0 NPtTot=           0 NUsed=           0 NTot=          32
 NSgBfM=   148   148   148   149   149 MxSgAt=     4 MxSgA2=     4.
 Leave Link  302 at Sun Feb  8 00:58:45 2015, MaxMem=   524288000 cpu:         1.8
 (Enter /opt/g09/l303.exe)
 DipDrv:  MaxL=1.
 Leave Link  303 at Sun Feb  8 00:58:45 2015, MaxMem=   524288000 cpu:         0.3
 (Enter /opt/g09/l401.exe)
 ExpMin= 9.99D-03 ExpMax= 2.06D+05 ExpMxC= 7.20D+03 IAcc=3 IRadAn=         5 AccDes= 0.00D+00
 Harris functional with IExCor= 1614 and IRadAn=       5 diagonalized for initial guess.
 HarFok:  IExCor= 1614 AccDes= 0.00D+00 IRadAn=         5 IDoV= 1 UseB2=F ITyADJ=14
 ICtDFT=  3500011 ScaDFX=  1.000000  1.000000  1.000000  1.000000
 FoFCou: FMM=F IPFlag=           0 FMFlag=      100000 FMFlg1=           0
         NFxFlg=           0 DoJE=T BraDBF=F KetDBF=T FulRan=T
         wScrn=  0.000000 ICntrl=     500 IOpCl=  0 I1Cent=   200000004 NGrid=           0
         NMat0=    1 NMatS0=      1 NMatT0=    0 NMatD0=    1 NMtDS0=    0 NMtDT0=    0
 Symmetry not used in FoFCou.
 Harris En= -2204.16241746136    
 JPrj=0 DoOrth=F DoCkMO=T.
 Mixing orbitals, IMix= 1 IMixAn=  0 NRI=1 NE=   37 Coef=  7.07106781D-01  7.07106781D-01
 Mixing orbitals, IMix= 1 IMixAn=  0 NRI=1 NE=   36 Coef= -7.07106781D-01  7.07106781D-01
 Initial guess <Sx>= 0.0000 <Sy>= 0.0000 <Sz>= 0.5000 <S**2>= 1.0000 S= 0.6180
 Leave Link  401 at Sun Feb  8 00:58:45 2015, MaxMem=   524288000 cpu:         3.4
 (Enter /opt/g09/l502.exe)
 UHF open shell SCF:
 Using DIIS extrapolation, IDIIS=  1040.
 Two-electron integral symmetry not used.
 Keep R1 and R2 ints in memory in canonical form, NReq=123692100.
 IVT=       83054 IEndB=       83054 NGot=   524288000 MDV=   402621245
 LenX=   402621245 LenY=   402595840
 Requested convergence on RMS density matrix=1.00D-08 within  64 cycles.
 Requested convergence on MAX density matrix=1.00D-06.
 Requested convergence on             energy=1.00D-06.
 No special actions if energy rises.
 FoFCou: FMM=F IPFlag=           0 FMFlag=           0 FMFlg1=           0
         NFxFlg=           0 DoJE=F BraDBF=F KetDBF=F FulRan=T
         wScrn=  0.000000 ICntrl=     600 IOpCl=  0 I1Cent=           0 NGrid=           0
         NMat0=    1 NMatS0=  11026 NMatT0=    0 NMatD0=    1 NMtDS0=    0 NMtDT0=    0
 Symmetry not used in FoFCou.

 Cycle   1  Pass 1  IDiag  1:
 E= -2229.37539589540    
 DIIS: error= 2.63D-01 at cycle   1 NSaved=   1.
 NSaved= 1 IEnMin= 1 EnMin= -2229.37539589540     IErMin= 1 ErrMin= 2.63D-01
 ErrMax= 2.63D-01  0.00D+00 EMaxC= 1.00D-01 BMatC= 2.01D+01 BMatP= 2.01D+01
 IDIUse=3 WtCom= 0.00D+00 WtEn= 1.00D+00
 Coeff-Com:  0.100D+01
 Coeff-En:   0.100D+01
 Coeff:      0.100D+01
 Gap=     0.069 Goal=   None    Shift=    0.000
 Gap=     0.039 Goal=   None    Shift=    0.000
 GapD=    0.039 DampG=0.250 DampE=0.125 DampFc=0.1250 IDamp=-1.
 Damping current iteration by 1.25D-01
 RMSDP=1.02D-02 MaxDP=2.62D-01              OVMax= 6.43D-01

 Cycle   2  Pass 1  IDiag  1:
 E= -2229.43418712887     Delta-E=       -0.058791233475 Rises=F Damp=T
 DIIS: error= 2.12D-01 at cycle   2 NSaved=   2.
 NSaved= 2 IEnMin= 2 EnMin= -2229.43418712887     IErMin= 2 ErrMin= 2.12D-01
 ErrMax= 2.12D-01  0.00D+00 EMaxC= 1.00D-01 BMatC= 1.37D+01 BMatP= 2.01D+01
 IDIUse=3 WtCom= 0.00D+00 WtEn= 1.00D+00
 Coeff-Com: -0.247D+01 0.347D+01
 Coeff-En:   0.251D+00 0.749D+00
 Coeff:      0.251D+00 0.749D+00
 Gap=     0.027 Goal=   None    Shift=    0.000
 Gap=    -0.060 Goal=   None    Shift=    0.000
 RMSDP=6.59D-03 MaxDP=1.64D-01 DE=-5.88D-02 OVMax= 8.73D-01

 Cycle   3  Pass 1  IDiag  1:
 E= -2229.86560551612     Delta-E=       -0.431418387252 Rises=F Damp=F
 DIIS: error= 5.49D-02 at cycle   3 NSaved=   3.
 NSaved= 3 IEnMin= 3 EnMin= -2229.86560551612     IErMin= 3 ErrMin= 5.49D-02
 ErrMax= 5.49D-02  0.00D+00 EMaxC= 1.00D-01 BMatC= 1.49D+00 BMatP= 1.37D+01
 IDIUse=3 WtCom= 4.51D-01 WtEn= 5.49D-01
 Coeff-Com: -0.365D-01 0.256D+00 0.781D+00
 Coeff-En:   0.329D-01 0.000D+00 0.967D+00
 Coeff:      0.161D-02 0.115D+00 0.883D+00
 Gap=     0.124 Goal=   None    Shift=    0.000
 Gap=     0.126 Goal=   None    Shift=    0.000
 RMSDP=5.74D-03 MaxDP=1.80D-01 DE=-4.31D-01 OVMax= 2.13D-01

 Cycle   4  Pass 1  IDiag  1:
 E= -2229.87173739291     Delta-E=       -0.006131876782 Rises=F Damp=F
 DIIS: error= 3.42D-02 at cycle   4 NSaved=   4.
 NSaved= 4 IEnMin= 4 EnMin= -2229.87173739291     IErMin= 4 ErrMin= 3.42D-02
 ErrMax= 3.42D-02  0.00D+00 EMaxC= 1.00D-01 BMatC= 8.26D-01 BMatP= 1.49D+00
 IDIUse=3 WtCom= 6.58D-01 WtEn= 3.42D-01
 Coeff-Com:  0.462D+00-0.500D+00 0.454D+00 0.584D+00
 Coeff-En:   0.000D+00 0.000D+00 0.492D+00 0.508D+00
 Coeff:      0.304D+00-0.329D+00 0.467D+00 0.558D+00
 Gap=     0.128 Goal=   None    Shift=    0.000
 Gap=     0.213 Goal=   None    Shift=    0.000
 RMSDP=3.51D-03 MaxDP=1.28D-01 DE=-6.13D-03 OVMax= 1.29D-01

 Cycle   5  Pass 1  IDiag  1:
 E= -2230.05375881252     Delta-E=       -0.182021419615 Rises=F Damp=F
 DIIS: error= 8.34D-03 at cycle   5 NSaved=   5.
 NSaved= 5 IEnMin= 5 EnMin= -2230.05375881252     IErMin= 5 ErrMin= 8.34D-03
 ErrMax= 8.34D-03  0.00D+00 EMaxC= 1.00D-01 BMatC= 2.70D-02 BMatP= 8.26D-01
 IDIUse=3 WtCom= 9.17D-01 WtEn= 8.34D-02
 Coeff-Com: -0.184D-01 0.231D-01 0.101D+00 0.159D+00 0.736D+00
 Coeff-En:   0.000D+00 0.000D+00 0.000D+00 0.000D+00 0.100D+01
 Coeff:     -0.169D-01 0.212D-01 0.926D-01 0.145D+00 0.758D+00
 Gap=     0.120 Goal=   None    Shift=    0.000
 Gap=     0.192 Goal=   None    Shift=    0.000
 RMSDP=8.98D-04 MaxDP=3.56D-02 DE=-1.82D-01 OVMax= 4.98D-02

 Cycle   6  Pass 1  IDiag  1:
 E= -2230.05945500460     Delta-E=       -0.005696192075 Rises=F Damp=F
 DIIS: error= 2.26D-03 at cycle   6 NSaved=   6.
 NSaved= 6 IEnMin= 6 EnMin= -2230.05945500460     IErMin= 6 ErrMin= 2.26D-03
 ErrMax= 2.26D-03  0.00D+00 EMaxC= 1.00D-01 BMatC= 3.34D-03 BMatP= 2.70D-02
 IDIUse=3 WtCom= 9.77D-01 WtEn= 2.26D-02
 Coeff-Com: -0.498D-02 0.520D-02 0.190D-01 0.253D-01 0.331D+00 0.624D+00
 Coeff-En:   0.000D+00 0.000D+00 0.000D+00 0.000D+00 0.120D+00 0.880D+00
 Coeff:     -0.487D-02 0.508D-02 0.186D-01 0.247D-01 0.326D+00 0.630D+00
 Gap=     0.122 Goal=   None    Shift=    0.000
 Gap=     0.197 Goal=   None    Shift=    0.000
 RMSDP=3.23D-04 MaxDP=8.97D-03 DE=-5.70D-03 OVMax= 3.64D-02

 Cycle   7  Pass 1  IDiag  1:
 E= -2230.06080166983     Delta-E=       -0.001346665236 Rises=F Damp=F
 DIIS: error= 1.34D-03 at cycle   7 NSaved=   7.
 NSaved= 7 IEnMin= 7 EnMin= -2230.06080166983     IErMin= 7 ErrMin= 1.34D-03
 ErrMax= 1.34D-03  0.00D+00 EMaxC= 1.00D-01 BMatC= 2.82D-04 BMatP= 3.34D-03
 IDIUse=3 WtCom= 9.87D-01 WtEn= 1.34D-02
 Coeff-Com:  0.125D-03-0.250D-03 0.174D-02-0.205D-02 0.823D-01 0.315D+00
 Coeff-Com:  0.603D+00
 Coeff-En:   0.000D+00 0.000D+00 0.000D+00 0.000D+00 0.000D+00 0.000D+00
 Coeff-En:   0.100D+01
 Coeff:      0.124D-03-0.246D-03 0.171D-02-0.202D-02 0.812D-01 0.311D+00
 Coeff:      0.609D+00
 Gap=     0.123 Goal=   None    Shift=    0.000
 Gap=     0.198 Goal=   None    Shift=    0.000
 RMSDP=1.55D-04 MaxDP=6.72D-03 DE=-1.35D-03 OVMax= 3.53D-02

 Cycle   8  Pass 1  IDiag  1:
 E= -2230.06138258100     Delta-E=       -0.000580911170 Rises=F Damp=F
 DIIS: error= 1.36D-03 at cycle   8 NSaved=   8.
 NSaved= 8 IEnMin= 8 EnMin= -2230.06138258100     IErMin= 7 ErrMin= 1.34D-03
 ErrMax= 1.36D-03  0.00D+00 EMaxC= 1.00D-01 BMatC= 1.71D-04 BMatP= 2.82D-04
 IDIUse=3 WtCom= 9.87D-01 WtEn= 1.34D-02
 Coeff-Com:  0.223D-02-0.233D-02-0.115D-02-0.562D-02-0.197D-01 0.593D-01
 Coeff-Com:  0.227D+00 0.740D+00
 Coeff-En:   0.000D+00 0.000D+00 0.000D+00 0.000D+00 0.000D+00 0.000D+00
 Coeff-En:   0.000D+00 0.100D+01
 Coeff:      0.220D-02-0.230D-02-0.113D-02-0.554D-02-0.194D-01 0.585D-01
 Coeff:      0.224D+00 0.743D+00
 Gap=     0.125 Goal=   None    Shift=    0.000
 Gap=     0.198 Goal=   None    Shift=    0.000
 RMSDP=1.83D-04 MaxDP=8.19D-03 DE=-5.81D-04 OVMax= 4.36D-02

 Cycle   9  Pass 1  IDiag  1:
 E= -2230.06204446076     Delta-E=       -0.000661879757 Rises=F Damp=F
 DIIS: error= 1.34D-03 at cycle   9 NSaved=   9.
 NSaved= 9 IEnMin= 9 EnMin= -2230.06204446076     IErMin= 9 ErrMin= 1.34D-03
 ErrMax= 1.34D-03  0.00D+00 EMaxC= 1.00D-01 BMatC= 1.57D-04 BMatP= 1.71D-04
 IDIUse=3 WtCom= 9.87D-01 WtEn= 1.34D-02
 Coeff-Com:  0.263D-02-0.277D-02 0.365D-02 0.393D-02-0.925D-03-0.596D-01
 Coeff-Com: -0.438D+00-0.340D+00 0.183D+01
 Coeff-En:   0.000D+00 0.000D+00 0.000D+00 0.000D+00 0.000D+00 0.000D+00
 Coeff-En:   0.000D+00 0.000D+00 0.100D+01
 Coeff:      0.260D-02-0.273D-02 0.360D-02 0.388D-02-0.913D-03-0.588D-01
 Coeff:     -0.432D+00-0.336D+00 0.182D+01
 Gap=     0.129 Goal=   None    Shift=    0.000
 Gap=     0.200 Goal=   None    Shift=    0.000
 RMSDP=4.23D-04 MaxDP=1.86D-02 DE=-6.62D-04 OVMax= 1.01D-01

 Cycle  10  Pass 1  IDiag  1:
 E= -2230.06351955044     Delta-E=       -0.001475089681 Rises=F Damp=F
 DIIS: error= 1.26D-03 at cycle  10 NSaved=  10.
 NSaved=10 IEnMin=10 EnMin= -2230.06351955044     IErMin=10 ErrMin= 1.26D-03
 ErrMax= 1.26D-03  0.00D+00 EMaxC= 1.00D-01 BMatC= 1.32D-04 BMatP= 1.57D-04
 IDIUse=3 WtCom= 9.87D-01 WtEn= 1.26D-02
 Coeff-Com: -0.216D-04 0.237D-04 0.498D-02 0.498D-02 0.864D-01 0.264D+00
 Coeff-Com:  0.601D+00-0.125D+00-0.275D+01 0.291D+01
 Coeff-En:   0.000D+00 0.000D+00 0.000D+00 0.000D+00 0.000D+00 0.000D+00
 Coeff-En:   0.000D+00 0.000D+00 0.000D+00 0.100D+01
 Coeff:     -0.214D-04 0.234D-04 0.492D-02 0.492D-02 0.853D-01 0.261D+00
 Coeff:      0.593D+00-0.123D+00-0.271D+01 0.289D+01
 Gap=     0.131 Goal=   None    Shift=    0.000
 Gap=     0.202 Goal=   None    Shift=    0.000
 RMSDP=6.14D-04 MaxDP=2.41D-02 DE=-1.48D-03 OVMax= 1.47D-01

 Cycle  11  Pass 1  IDiag  1:
 E= -2230.06539972204     Delta-E=       -0.001880171597 Rises=F Damp=F
 DIIS: error= 1.09D-03 at cycle  11 NSaved=  11.
 NSaved=11 IEnMin=11 EnMin= -2230.06539972204     IErMin=11 ErrMin= 1.09D-03
 ErrMax= 1.09D-03  0.00D+00 EMaxC= 1.00D-01 BMatC= 9.77D-05 BMatP= 1.32D-04
 IDIUse=3 WtCom= 9.89D-01 WtEn= 1.09D-02
 Coeff-Com:  0.665D-02-0.766D-02-0.346D-02-0.117D-01 0.693D-02 0.101D+00
 Coeff-Com:  0.442D+00 0.115D+01-0.144D+01-0.270D+01 0.345D+01
 Coeff-En:   0.000D+00 0.000D+00 0.000D+00 0.000D+00 0.000D+00 0.000D+00
 Coeff-En:   0.000D+00 0.000D+00 0.000D+00 0.000D+00 0.100D+01
 Coeff:      0.657D-02-0.757D-02-0.342D-02-0.115D-01 0.685D-02 0.997D-01
 Coeff:      0.437D+00 0.114D+01-0.142D+01-0.267D+01 0.342D+01
 Gap=     0.138 Goal=   None    Shift=    0.000
 Gap=     0.207 Goal=   None    Shift=    0.000
 RMSDP=1.04D-03 MaxDP=3.64D-02 DE=-1.88D-03 OVMax= 2.49D-01

 Cycle  12  Pass 1  IDiag  1:
 E= -2230.06750472759     Delta-E=       -0.002105005557 Rises=F Damp=F
 DIIS: error= 5.54D-04 at cycle  12 NSaved=  12.
 NSaved=12 IEnMin=12 EnMin= -2230.06750472759     IErMin=12 ErrMin= 5.54D-04
 ErrMax= 5.54D-04  0.00D+00 EMaxC= 1.00D-01 BMatC= 9.57D-05 BMatP= 9.77D-05
 IDIUse=3 WtCom= 9.94D-01 WtEn= 5.54D-03
 Coeff-Com:  0.665D-02-0.772D-02-0.247D-02-0.572D-02-0.127D-01-0.142D-01
 Coeff-Com:  0.117D+00 0.663D+00 0.476D+00-0.261D+01 0.192D+01 0.477D+00
 Coeff-En:   0.000D+00 0.000D+00 0.000D+00 0.000D+00 0.000D+00 0.000D+00
 Coeff-En:   0.000D+00 0.000D+00 0.000D+00 0.000D+00 0.000D+00 0.100D+01
 Coeff:      0.661D-02-0.768D-02-0.246D-02-0.569D-02-0.126D-01-0.141D-01
 Coeff:      0.117D+00 0.660D+00 0.473D+00-0.260D+01 0.191D+01 0.479D+00
 Gap=     0.138 Goal=   None    Shift=    0.000
 Gap=     0.206 Goal=   None    Shift=    0.000
 RMSDP=1.87D-04 MaxDP=5.46D-03 DE=-2.11D-03 OVMax= 3.59D-02

 Cycle  13  Pass 1  IDiag  1:
 E= -2230.06732215544     Delta-E=        0.000182572157 Rises=F Damp=F
 DIIS: error= 5.68D-04 at cycle  13 NSaved=  13.
 NSaved=13 IEnMin=12 EnMin= -2230.06750472759     IErMin=12 ErrMin= 5.54D-04
 ErrMax= 5.68D-04  0.00D+00 EMaxC= 1.00D-01 BMatC= 5.25D-05 BMatP= 9.57D-05
 IDIUse=3 WtCom= 9.94D-01 WtEn= 5.54D-03
 Rare condition: small coef for last iteration:  0.000D+00
 Coeff-Com:  0.678D-03-0.686D-03 0.849D-04-0.609D-03-0.164D-01-0.819D-01
 Coeff-Com: -0.191D+00 0.351D-01 0.709D+00-0.844D+00-0.435D+00 0.536D+00
 Coeff-Com:  0.129D+01
 Coeff-En:   0.000D+00 0.000D+00 0.000D+00 0.000D+00 0.000D+00 0.000D+00
 Coeff-En:   0.000D+00 0.000D+00 0.000D+00 0.000D+00 0.000D+00 0.000D+00
 Coeff-En:   0.100D+01
 Coeff:      0.678D-03-0.686D-03 0.849D-04-0.609D-03-0.164D-01-0.819D-01
 Coeff:     -0.191D+00 0.351D-01 0.709D+00-0.844D+00-0.435D+00 0.536D+00
 Coeff:      0.129D+01
 Gap=     0.158 Goal=   None    Shift=    0.000
 Gap=     0.210 Goal=   None    Shift=    0.000
 RMSDP=8.10D-04 MaxDP=3.31D-02 DE= 1.83D-04 OVMax= 1.90D-01

 Cycle  14  Pass 1  IDiag  1:
 E= -2230.06790702329     Delta-E=       -0.000584867851 Rises=F Damp=F
 DIIS: error= 7.29D-04 at cycle  14 NSaved=  14.
 NSaved=14 IEnMin=14 EnMin= -2230.06790702329     IErMin=12 ErrMin= 5.54D-04
 ErrMax= 7.29D-04  0.00D+00 EMaxC= 1.00D-01 BMatC= 2.48D-04 BMatP= 5.25D-05
 IDIUse=3 WtCom= 9.94D-01 WtEn= 5.54D-03
 Coeff-Com: -0.912D-03 0.111D-02 0.140D-02 0.203D-02 0.325D-02-0.386D-01
 Coeff-Com: -0.143D+00-0.266D+00-0.101D+00 0.567D+00-0.537D+00-0.343D+00
 Coeff-Com:  0.137D+01 0.486D+00
 Coeff-En:   0.000D+00 0.000D+00 0.000D+00 0.000D+00 0.000D+00 0.000D+00
 Coeff-En:   0.000D+00 0.000D+00 0.000D+00 0.000D+00 0.000D+00 0.000D+00
 Coeff-En:   0.000D+00 0.100D+01
 Coeff:     -0.907D-03 0.110D-02 0.139D-02 0.202D-02 0.323D-02-0.384D-01
 Coeff:     -0.143D+00-0.265D+00-0.100D+00 0.564D+00-0.534D+00-0.341D+00
 Coeff:      0.136D+01 0.488D+00
 Gap=     0.160 Goal=   None    Shift=    0.000
 Gap=     0.210 Goal=   None    Shift=    0.000
 RMSDP=3.07D-05 MaxDP=9.84D-04 DE=-5.85D-04 OVMax= 5.51D-03

 Cycle  15  Pass 1  IDiag  1:
 E= -2230.06788674044     Delta-E=        0.000020282851 Rises=F Damp=F
 DIIS: error= 8.30D-04 at cycle  15 NSaved=  15.
 NSaved=15 IEnMin=14 EnMin= -2230.06790702329     IErMin=12 ErrMin= 5.54D-04
 ErrMax= 8.30D-04  0.00D+00 EMaxC= 1.00D-01 BMatC= 3.09D-04 BMatP= 5.25D-05
 IDIUse=3 WtCom= 9.94D-01 WtEn= 5.54D-03
 Rare condition: small coef for last iteration:  0.000D+00
 Coeff-Com: -0.113D-02 0.137D-02 0.134D-02 0.111D-02 0.878D-02-0.148D-01
 Coeff-Com: -0.811D-01-0.188D+00-0.508D+00 0.630D+00-0.220D+00-0.566D+00
 Coeff-Com:  0.141D+01 0.201D-01 0.505D+00
 Coeff-En:   0.000D+00 0.000D+00 0.000D+00 0.000D+00 0.000D+00 0.000D+00
 Coeff-En:   0.000D+00 0.000D+00 0.000D+00 0.000D+00 0.000D+00 0.000D+00
 Coeff-En:   0.000D+00 0.000D+00 0.100D+01
 Coeff:     -0.113D-02 0.137D-02 0.134D-02 0.111D-02 0.878D-02-0.148D-01
 Coeff:     -0.811D-01-0.188D+00-0.508D+00 0.630D+00-0.220D+00-0.566D+00
 Coeff:      0.141D+01 0.201D-01 0.505D+00
 Gap=     0.162 Goal=   None    Shift=    0.000
 Gap=     0.210 Goal=   None    Shift=    0.000
 RMSDP=2.05D-05 MaxDP=8.22D-04 DE= 2.03D-05 OVMax= 1.67D-03

 Cycle  16  Pass 1  IDiag  1:
 E= -2230.06785569371     Delta-E=        0.000031046728 Rises=F Damp=F
 DIIS: error= 9.40D-04 at cycle  16 NSaved=  16.
 NSaved=16 IEnMin=14 EnMin= -2230.06790702329     IErMin=12 ErrMin= 5.54D-04
 ErrMax= 9.40D-04  0.00D+00 EMaxC= 1.00D-01 BMatC= 3.94D-04 BMatP= 5.25D-05
 IDIUse=3 WtCom= 9.94D-01 WtEn= 5.54D-03
 Rare condition: small coef for last iteration:  0.000D+00
 Coeff-Com: -0.993D-03 0.120D-02 0.142D-02 0.159D-02 0.860D-02-0.173D-01
 Coeff-Com: -0.935D-01-0.229D+00-0.401D+00 0.701D+00-0.322D+00-0.502D+00
 Coeff-Com:  0.124D+01 0.319D+00 0.118D+01-0.887D+00
 Coeff-En:   0.000D+00 0.000D+00 0.000D+00 0.000D+00 0.000D+00 0.000D+00
 Coeff-En:   0.000D+00 0.000D+00 0.000D+00 0.000D+00 0.000D+00 0.000D+00
 Coeff-En:   0.000D+00 0.000D+00 0.000D+00 0.100D+01
 Coeff:     -0.993D-03 0.120D-02 0.142D-02 0.159D-02 0.860D-02-0.173D-01
 Coeff:     -0.935D-01-0.229D+00-0.401D+00 0.701D+00-0.322D+00-0.502D+00
 Coeff:      0.124D+01 0.319D+00 0.118D+01-0.887D+00
 Gap=     0.160 Goal=   None    Shift=    0.000
 Gap=     0.210 Goal=   None    Shift=    0.000
 RMSDP=2.35D-05 MaxDP=8.57D-04 DE= 3.10D-05 OVMax= 2.96D-03

 Cycle  17  Pass 1  IDiag  1:
 E= -2230.06788929496     Delta-E=       -0.000033601253 Rises=F Damp=F
 DIIS: error= 8.25D-04 at cycle  17 NSaved=  17.
 NSaved=17 IEnMin=14 EnMin= -2230.06790702329     IErMin=12 ErrMin= 5.54D-04
 ErrMax= 8.25D-04  0.00D+00 EMaxC= 1.00D-01 BMatC= 3.05D-04 BMatP= 5.25D-05
 IDIUse=3 WtCom= 9.94D-01 WtEn= 5.54D-03
 Coeff-Com: -0.481D-03 0.582D-03 0.111D-02 0.588D-03 0.158D-01 0.213D-01
 Coeff-Com:  0.152D-01-0.106D+00-0.640D+00 0.682D+00 0.882D-01-0.420D+00
 Coeff-Com:  0.314D+00 0.139D+00 0.302D+01-0.585D+01 0.372D+01
 Coeff-En:   0.000D+00 0.000D+00 0.000D+00 0.000D+00 0.000D+00 0.000D+00
 Coeff-En:   0.000D+00 0.000D+00 0.000D+00 0.000D+00 0.000D+00 0.000D+00
 Coeff-En:   0.000D+00 0.000D+00 0.000D+00 0.000D+00 0.100D+01
 Coeff:     -0.478D-03 0.578D-03 0.110D-02 0.585D-03 0.157D-01 0.212D-01
 Coeff:      0.151D-01-0.105D+00-0.636D+00 0.678D+00 0.877D-01-0.418D+00
 Coeff:      0.312D+00 0.138D+00 0.301D+01-0.582D+01 0.370D+01
 Gap=     0.151 Goal=   None    Shift=    0.000
 Gap=     0.209 Goal=   None    Shift=    0.000
 RMSDP=9.51D-05 MaxDP=3.36D-03 DE=-3.36D-05 OVMax= 1.23D-02

 Cycle  18  Pass 1  IDiag  1:
 E= -2230.06798351017     Delta-E=       -0.000094215211 Rises=F Damp=F
 DIIS: error= 3.82D-04 at cycle  18 NSaved=  18.
 NSaved=18 IEnMin=18 EnMin= -2230.06798351017     IErMin=18 ErrMin= 3.82D-04
 ErrMax= 3.82D-04  0.00D+00 EMaxC= 1.00D-01 BMatC= 6.23D-05 BMatP= 5.25D-05
 IDIUse=3 WtCom= 9.94D-01 WtEn= 5.54D-03
 Coeff-Com: -0.230D-03 0.287D-03 0.400D-03 0.123D-04 0.489D-02 0.986D-02
 Coeff-Com:  0.125D-01 0.245D-01-0.185D+00 0.112D+00 0.730D-01-0.129D-01
 Coeff-Com: -0.449D-01-0.409D-01 0.340D+00-0.155D+01 0.764D+00 0.149D+01
 Coeff-En:   0.000D+00 0.000D+00 0.000D+00 0.000D+00 0.000D+00 0.000D+00
 Coeff-En:   0.000D+00 0.000D+00 0.000D+00 0.000D+00 0.000D+00 0.000D+00
 Coeff-En:   0.000D+00 0.000D+00 0.000D+00 0.000D+00 0.000D+00 0.100D+01
 Coeff:     -0.229D-03 0.286D-03 0.398D-03 0.122D-04 0.486D-02 0.980D-02
 Coeff:      0.124D-01 0.244D-01-0.184D+00 0.111D+00 0.726D-01-0.128D-01
 Coeff:     -0.446D-01-0.407D-01 0.338D+00-0.154D+01 0.760D+00 0.149D+01
 Gap=     0.145 Goal=   None    Shift=    0.000
 Gap=     0.209 Goal=   None    Shift=    0.000
 RMSDP=7.20D-05 MaxDP=2.59D-03 DE=-9.42D-05 OVMax= 8.22D-03

 Cycle  19  Pass 1  IDiag  1:
 E= -2230.06801018139     Delta-E=       -0.000026671219 Rises=F Damp=F
 DIIS: error= 4.53D-05 at cycle  19 NSaved=  19.
 NSaved=19 IEnMin=19 EnMin= -2230.06801018139     IErMin=19 ErrMin= 4.53D-05
 ErrMax= 4.53D-05  0.00D+00 EMaxC= 1.00D-01 BMatC= 5.57D-07 BMatP= 5.25D-05
 IDIUse=1 WtCom= 1.00D+00 WtEn= 0.00D+00
 Coeff-Com: -0.352D-04 0.466D-04-0.240D-04-0.580D-04-0.107D-02 0.903D-03
 Coeff-Com: -0.155D-02 0.306D-01 0.444D-01-0.955D-01 0.281D-01 0.472D-01
 Coeff-Com: -0.500D-01-0.314D-01-0.632D+00 0.109D+01-0.784D+00 0.307D+00
 Coeff-Com:  0.105D+01
 Coeff:     -0.352D-04 0.466D-04-0.240D-04-0.580D-04-0.107D-02 0.903D-03
 Coeff:     -0.155D-02 0.306D-01 0.444D-01-0.955D-01 0.281D-01 0.472D-01
 Coeff:     -0.500D-01-0.314D-01-0.632D+00 0.109D+01-0.784D+00 0.307D+00
 Coeff:      0.105D+01
 Gap=     0.143 Goal=   None    Shift=    0.000
 Gap=     0.209 Goal=   None    Shift=    0.000
 RMSDP=1.91D-05 MaxDP=5.83D-04 DE=-2.67D-05 OVMax= 2.76D-03

 Cycle  20  Pass 1  IDiag  1:
 E= -2230.06801063650     Delta-E=       -0.000000455111 Rises=F Damp=F
 DIIS: error= 3.97D-05 at cycle  20 NSaved=  20.
 NSaved=20 IEnMin=20 EnMin= -2230.06801063650     IErMin=20 ErrMin= 3.97D-05
 ErrMax= 3.97D-05  0.00D+00 EMaxC= 1.00D-01 BMatC= 8.82D-07 BMatP= 5.57D-07
 IDIUse=1 WtCom= 1.00D+00 WtEn= 0.00D+00
 Coeff-Com:  0.928D-04-0.114D-03-0.971D-04-0.482D-04-0.444D-03 0.116D-02
 Coeff-Com:  0.170D-02 0.303D-02 0.129D-01-0.242D-01 0.224D-01-0.258D-01
 Coeff-Com: -0.171D-01-0.169D-01-0.433D-01 0.337D+00-0.970D-01-0.335D+00
 Coeff-Com: -0.280D-01 0.121D+01
 Coeff:      0.928D-04-0.114D-03-0.971D-04-0.482D-04-0.444D-03 0.116D-02
 Coeff:      0.170D-02 0.303D-02 0.129D-01-0.242D-01 0.224D-01-0.258D-01
 Coeff:     -0.171D-01-0.169D-01-0.433D-01 0.337D+00-0.970D-01-0.335D+00
 Coeff:     -0.280D-01 0.121D+01
 Gap=     0.143 Goal=   None    Shift=    0.000
 Gap=     0.209 Goal=   None    Shift=    0.000
 RMSDP=5.78D-06 MaxDP=1.71D-04 DE=-4.55D-07 OVMax= 8.90D-04

 Cycle  21  Pass 1  IDiag  1:
 E= -2230.06801091073     Delta-E=       -0.000000274228 Rises=F Damp=F
 DIIS: error= 1.95D-05 at cycle  21 NSaved=  20.
 NSaved=20 IEnMin=20 EnMin= -2230.06801091073     IErMin=20 ErrMin= 1.95D-05
 ErrMax= 1.95D-05  0.00D+00 EMaxC= 1.00D-01 BMatC= 1.84D-07 BMatP= 5.57D-07
 IDIUse=1 WtCom= 1.00D+00 WtEn= 0.00D+00
 Coeff-Com:  0.177D-06-0.110D-04-0.958D-05-0.287D-03-0.138D-02 0.112D-02
 Coeff-Com:  0.307D-02 0.114D-01-0.474D-02-0.229D-01 0.225D-01 0.308D-02
 Coeff-Com:  0.111D-01-0.815D-01 0.646D-01-0.720D-01 0.175D+00-0.149D+00
 Coeff-Com: -0.490D+00 0.153D+01
 Coeff:      0.177D-06-0.110D-04-0.958D-05-0.287D-03-0.138D-02 0.112D-02
 Coeff:      0.307D-02 0.114D-01-0.474D-02-0.229D-01 0.225D-01 0.308D-02
 Coeff:      0.111D-01-0.815D-01 0.646D-01-0.720D-01 0.175D+00-0.149D+00
 Coeff:     -0.490D+00 0.153D+01
 Gap=     0.144 Goal=   None    Shift=    0.000
 Gap=     0.209 Goal=   None    Shift=    0.000
 RMSDP=2.95D-06 MaxDP=9.17D-05 DE=-2.74D-07 OVMax= 3.72D-04

 Cycle  22  Pass 1  IDiag  1:
 E= -2230.06801098271     Delta-E=       -0.000000071978 Rises=F Damp=F
 DIIS: error= 7.02D-06 at cycle  22 NSaved=  20.
 NSaved=20 IEnMin=20 EnMin= -2230.06801098271     IErMin=20 ErrMin= 7.02D-06
 ErrMax= 7.02D-06  0.00D+00 EMaxC= 1.00D-01 BMatC= 2.46D-08 BMatP= 1.84D-07
 IDIUse=1 WtCom= 1.00D+00 WtEn= 0.00D+00
 Coeff-Com:  0.475D-05 0.103D-04-0.862D-04-0.295D-03 0.445D-03 0.120D-02
 Coeff-Com:  0.245D-02-0.221D-02-0.523D-02 0.858D-02-0.158D-03 0.431D-02
 Coeff-Com: -0.263D-01 0.359D-02-0.214D-01 0.843D-01-0.223D-01-0.242D+00
 Coeff-Com:  0.215D+00 0.100D+01
 Coeff:      0.475D-05 0.103D-04-0.862D-04-0.295D-03 0.445D-03 0.120D-02
 Coeff:      0.245D-02-0.221D-02-0.523D-02 0.858D-02-0.158D-03 0.431D-02
 Coeff:     -0.263D-01 0.359D-02-0.214D-01 0.843D-01-0.223D-01-0.242D+00
 Coeff:      0.215D+00 0.100D+01
 Gap=     0.144 Goal=   None    Shift=    0.000
 Gap=     0.209 Goal=   None    Shift=    0.000
 RMSDP=1.18D-06 MaxDP=4.07D-05 DE=-7.20D-08 OVMax= 1.24D-04

 Cycle  23  Pass 1  IDiag  1:
 E= -2230.06801099227     Delta-E=       -0.000000009561 Rises=F Damp=F
 DIIS: error= 1.55D-06 at cycle  23 NSaved=  20.
 NSaved=20 IEnMin=20 EnMin= -2230.06801099227     IErMin=20 ErrMin= 1.55D-06
 ErrMax= 1.55D-06  0.00D+00 EMaxC= 1.00D-01 BMatC= 1.06D-09 BMatP= 2.46D-08
 IDIUse=1 WtCom= 1.00D+00 WtEn= 0.00D+00
 Coeff-Com: -0.132D-05 0.142D-04 0.138D-03 0.129D-04 0.189D-03-0.150D-02
 Coeff-Com:  0.104D-03 0.141D-02-0.973D-03 0.719D-03-0.139D-02-0.186D-02
 Coeff-Com:  0.486D-02-0.245D-02 0.418D-03 0.120D-01-0.389D-02-0.111D+00
 Coeff-Com:  0.154D+00 0.949D+00
 Coeff:     -0.132D-05 0.142D-04 0.138D-03 0.129D-04 0.189D-03-0.150D-02
 Coeff:      0.104D-03 0.141D-02-0.973D-03 0.719D-03-0.139D-02-0.186D-02
 Coeff:      0.486D-02-0.245D-02 0.418D-03 0.120D-01-0.389D-02-0.111D+00
 Coeff:      0.154D+00 0.949D+00
 Gap=     0.144 Goal=   None    Shift=    0.000
 Gap=     0.209 Goal=   None    Shift=    0.000
 RMSDP=4.98D-07 MaxDP=1.83D-05 DE=-9.56D-09 OVMax= 3.88D-05

 Cycle  24  Pass 1  IDiag  1:
 E= -2230.06801099253     Delta-E=       -0.000000000258 Rises=F Damp=F
 DIIS: error= 1.07D-06 at cycle  24 NSaved=  20.
 NSaved=20 IEnMin=20 EnMin= -2230.06801099253     IErMin=20 ErrMin= 1.07D-06
 ErrMax= 1.07D-06  0.00D+00 EMaxC= 1.00D-01 BMatC= 5.52D-10 BMatP= 1.06D-09
 IDIUse=1 WtCom= 1.00D+00 WtEn= 0.00D+00
 Coeff-Com:  0.959D-05 0.158D-04-0.286D-04-0.195D-03 0.355D-04 0.299D-04
 Coeff-Com:  0.260D-03-0.308D-03 0.701D-04-0.497D-03-0.376D-03 0.303D-02
 Coeff-Com: -0.130D-02-0.591D-02 0.314D-02 0.192D-01-0.163D-01-0.803D-01
 Coeff-Com:  0.477D-01 0.103D+01
 Coeff:      0.959D-05 0.158D-04-0.286D-04-0.195D-03 0.355D-04 0.299D-04
 Coeff:      0.260D-03-0.308D-03 0.701D-04-0.497D-03-0.376D-03 0.303D-02
 Coeff:     -0.130D-02-0.591D-02 0.314D-02 0.192D-01-0.163D-01-0.803D-01
 Coeff:      0.477D-01 0.103D+01
 Gap=     0.144 Goal=   None    Shift=    0.000
 Gap=     0.209 Goal=   None    Shift=    0.000
 RMSDP=1.95D-07 MaxDP=7.06D-06 DE=-2.58D-10 OVMax= 2.03D-05

 Cycle  25  Pass 1  IDiag  1:
 E= -2230.06801099274     Delta-E=       -0.000000000215 Rises=F Damp=F
 DIIS: error= 1.75D-07 at cycle  25 NSaved=  20.
 NSaved=20 IEnMin=20 EnMin= -2230.06801099274     IErMin=20 ErrMin= 1.75D-07
 ErrMax= 1.75D-07  0.00D+00 EMaxC= 1.00D-01 BMatC= 1.40D-11 BMatP= 5.52D-10
 IDIUse=1 WtCom= 1.00D+00 WtEn= 0.00D+00
 Coeff-Com: -0.666D-05-0.260D-04-0.458D-04 0.767D-04 0.221D-04-0.435D-04
 Coeff-Com: -0.386D-04 0.645D-04 0.443D-04 0.168D-03 0.240D-03-0.108D-03
 Coeff-Com: -0.148D-02-0.747D-04 0.421D-02 0.679D-03-0.177D-01-0.222D-01
 Coeff-Com:  0.139D+00 0.897D+00
 Coeff:     -0.666D-05-0.260D-04-0.458D-04 0.767D-04 0.221D-04-0.435D-04
 Coeff:     -0.386D-04 0.645D-04 0.443D-04 0.168D-03 0.240D-03-0.108D-03
 Coeff:     -0.148D-02-0.747D-04 0.421D-02 0.679D-03-0.177D-01-0.222D-01
 Coeff:      0.139D+00 0.897D+00
 Gap=     0.144 Goal=   None    Shift=    0.000
 Gap=     0.209 Goal=   None    Shift=    0.000
 RMSDP=2.92D-08 MaxDP=1.07D-06 DE=-2.15D-10 OVMax= 2.74D-06

 Cycle  26  Pass 1  IDiag  1:
 E= -2230.06801099274     Delta-E=       -0.000000000001 Rises=F Damp=F
 DIIS: error= 3.41D-08 at cycle  26 NSaved=  20.
 NSaved=20 IEnMin=20 EnMin= -2230.06801099274     IErMin=20 ErrMin= 3.41D-08
 ErrMax= 3.41D-08  0.00D+00 EMaxC= 1.00D-01 BMatC= 5.66D-13 BMatP= 1.40D-11
 IDIUse=1 WtCom= 1.00D+00 WtEn= 0.00D+00
 Coeff-Com: -0.322D-06 0.447D-05-0.572D-05 0.120D-04-0.108D-04 0.158D-05
 Coeff-Com: -0.366D-05 0.516D-04 0.206D-03-0.384D-03 0.232D-03-0.138D-04
 Coeff-Com: -0.248D-03-0.444D-03 0.777D-03 0.349D-02-0.551D-02-0.676D-01
 Coeff-Com:  0.166D+00 0.903D+00
 Coeff:     -0.322D-06 0.447D-05-0.572D-05 0.120D-04-0.108D-04 0.158D-05
 Coeff:     -0.366D-05 0.516D-04 0.206D-03-0.384D-03 0.232D-03-0.138D-04
 Coeff:     -0.248D-03-0.444D-03 0.777D-03 0.349D-02-0.551D-02-0.676D-01
 Coeff:      0.166D+00 0.903D+00
 Gap=     0.144 Goal=   None    Shift=    0.000
 Gap=     0.209 Goal=   None    Shift=    0.000
 RMSDP=9.19D-09 MaxDP=3.09D-07 DE=-9.09D-13 OVMax= 1.13D-06

 SCF Done:  E(UB971) =  -2230.06801099     A.U. after   26 cycles
            NFock= 26  Conv=0.92D-08     -V/T= 2.0017
 <Sx>= 0.0000 <Sy>= 0.0000 <Sz>= 0.5000 <S**2>= 0.7535 S= 0.5017
 <L.S>= 0.000000000000E+00
 KE= 2.226386480671D+03 PE=-6.073292726221D+03 EE= 1.227120720655D+03
 Annihilation of the first spin contaminant:
 S**2 before annihilation     0.7535,   after     0.7500
 Leave Link  502 at Sun Feb  8 00:59:15 2015, MaxMem=   524288000 cpu:       137.1
 (Enter /opt/g09/l508.exe)
 QCSCF skips out because SCF is already converged.
 Leave Link  508 at Sun Feb  8 00:59:15 2015, MaxMem=   524288000 cpu:         0.0
 (Enter /opt/g09/l801.exe)
 DoSCS=F DFT=T ScalE2(SS,OS)=  1.000000  1.000000
 Range of M.O.s used for correlation:     1   148
 NBasis=   148 NAE=    37 NBE=    36 NFC=     0 NFV=     0
 NROrb=    148 NOA=    37 NOB=    36 NVA=   111 NVB=   112

 **** Warning!!: The largest alpha MO coefficient is  0.15314419D+02


 **** Warning!!: The largest beta MO coefficient is  0.16084626D+02

 Leave Link  801 at Sun Feb  8 00:59:15 2015, MaxMem=   524288000 cpu:         0.3
 (Enter /opt/g09/l1101.exe)
 Using compressed storage, NAtomX=     4.
 Will process      5 centers per pass.
 Leave Link 1101 at Sun Feb  8 00:59:15 2015, MaxMem=   524288000 cpu:         2.3
 (Enter /opt/g09/l1102.exe)
 Symmetrizing basis deriv contribution to polar:
 IMax=3 JMax=2 DiffMx= 0.00D+00
 Leave Link 1102 at Sun Feb  8 00:59:15 2015, MaxMem=   524288000 cpu:         0.3
 (Enter /opt/g09/l1110.exe)
 Forming Gx(P) for the SCF density, NAtomX=     4.
 Integral derivatives from FoFJK, PRISM(SPDF).
 Do as many integral derivatives as possible in FoFJK.
 G2DrvN: MDV=     524287864.
 G2DrvN: will do     5 centers at a time, making    1 passes.
 Calling FoFCou, ICntrl=  3107 FMM=F I1Cent=   0 AccDes= 0.00D+00.
 FoFJK:  IHMeth= 1 ICntrl=    3107 DoSepK=F KAlg= 0 I1Cent=   0 FoldK=F
 IRaf=         0 NMat=   1 IRICut=       1 DoRegI=T DoRafI=F ISym2E= 0.
 FoFCou: FMM=F IPFlag=           0 FMFlag=      100000 FMFlg1=           0
         NFxFlg=           0 DoJE=F BraDBF=F KetDBF=F FulRan=T
         wScrn=  0.000000 ICntrl=    3107 IOpCl=  1 I1Cent=           0 NGrid=           0
         NMat0=    1 NMatS0=      1 NMatT0=    0 NMatD0=    1 NMtDS0=    0 NMtDT0=    0
 Symmetry not used in FoFCou.
 End of G2Drv F.D. properties file   721 does not exist.
 End of G2Drv F.D. properties file   722 does not exist.
 End of G2Drv F.D. properties file   788 does not exist.
 Leave Link 1110 at Sun Feb  8 00:59:27 2015, MaxMem=   524288000 cpu:        92.6
 (Enter /opt/g09/l1002.exe)
 Minotr:  UHF open shell wavefunction.
          IDoAtm=1111
          Direct CPHF calculation.
          Differentiating once with respect to electric field.
                with respect to dipole field.
          Differentiating once with respect to nuclear coordinates.
          Requested convergence is 1.0D-08 RMS, and 1.0D-07 maximum.
          Secondary convergence is 1.0D-12 RMS, and 1.0D-12 maximum.
          NewPWx=T KeepS1=F KeepF1=F KeepIn=T MapXYZ=F SortEE=F KeepMc=T.
          MDV=     524287660 using IRadAn=       1.
 Generate precomputed XC quadrature information.
 Keep R1 and R2 ints in memory in canonical form, NReq=123638933.
 FoFCou: FMM=F IPFlag=           0 FMFlag=           0 FMFlg1=           0
         NFxFlg=           0 DoJE=F BraDBF=F KetDBF=F FulRan=T
         wScrn=  0.000000 ICntrl=     600 IOpCl=  0 I1Cent=           0 NGrid=           0
         NMat0=    1 NMatS0=  11026 NMatT0=    0 NMatD0=    1 NMtDS0=    0 NMtDT0=    0
 Symmetry not used in FoFCou.
          Solving linear equations simultaneously, MaxMat=       0.
          There are    15 degrees of freedom in the 1st order CPHF.  IDoFFX=6 NUNeed=     3.
     12 vectors produced by pass  0 Test12= 5.43D-14 6.67D-09 XBig12= 2.02D+02 4.51D+00.
 AX will form    12 AO Fock derivatives at one time.
     12 vectors produced by pass  1 Test12= 5.43D-14 6.67D-09 XBig12= 4.36D+01 1.14D+00.
     12 vectors produced by pass  2 Test12= 5.43D-14 6.67D-09 XBig12= 1.34D+00 1.99D-01.
     12 vectors produced by pass  3 Test12= 5.43D-14 6.67D-09 XBig12= 1.58D-01 8.59D-02.
     12 vectors produced by pass  4 Test12= 5.43D-14 6.67D-09 XBig12= 5.85D-03 2.07D-02.
     12 vectors produced by pass  5 Test12= 5.43D-14 6.67D-09 XBig12= 8.86D-05 1.78D-03.
     12 vectors produced by pass  6 Test12= 5.43D-14 6.67D-09 XBig12= 9.80D-07 2.69D-04.
     12 vectors produced by pass  7 Test12= 5.43D-14 6.67D-09 XBig12= 2.33D-08 4.41D-05.
      7 vectors produced by pass  8 Test12= 5.43D-14 6.67D-09 XBig12= 2.04D-10 4.32D-06.
      3 vectors produced by pass  9 Test12= 5.43D-14 6.67D-09 XBig12= 4.97D-12 7.80D-07.
      3 vectors produced by pass 10 Test12= 5.43D-14 6.67D-09 XBig12= 7.30D-14 4.87D-08.
      1 vectors produced by pass 11 Test12= 5.43D-14 6.67D-09 XBig12= 9.05D-16 1.09D-08.
 InvSVY:  IOpt=1 It=  1 EMax= 1.33D-15
 Solved reduced A of dimension   110 with    12 vectors.
 FullF1:  Do perturbations    1 to     3.
 Isotropic polarizability for W=    0.000000       71.96 Bohr**3.
 End of Minotr F.D. properties file   721 does not exist.
 End of Minotr F.D. properties file   722 does not exist.
 End of Minotr F.D. properties file   788 does not exist.
 Leave Link 1002 at Sun Feb  8 00:59:51 2015, MaxMem=   524288000 cpu:       189.4
 (Enter /opt/g09/l701.exe)
 Compute integral second derivatives.
 ... and contract with generalized density number  0.
 Leave Link  701 at Sun Feb  8 00:59:52 2015, MaxMem=   524288000 cpu:         3.9
 (Enter /opt/g09/l702.exe)
 L702 exits ... SP integral derivatives will be done elsewhere.
 Leave Link  702 at Sun Feb  8 00:59:52 2015, MaxMem=   524288000 cpu:         0.3
 (Enter /opt/g09/l703.exe)
 Compute integral second derivatives, UseDBF=F ICtDFT=           0.
 Integral derivatives from FoFJK, PRISM(SPDF).
 Calling FoFJK, ICntrl=    100127 FMM=F ISym2X=0 I1Cent= 0 IOpClX= 1 NMat=1 NMatS=1 NMatT=0.
 FoFJK:  IHMeth= 1 ICntrl=  100127 DoSepK=F KAlg= 0 I1Cent=   0 FoldK=F
 IRaf=         0 NMat=   1 IRICut=       1 DoRegI=T DoRafI=F ISym2E= 0.
 FoFCou: FMM=F IPFlag=           0 FMFlag=      100000 FMFlg1=         800
         NFxFlg=           0 DoJE=F BraDBF=F KetDBF=F FulRan=T
         wScrn=  0.000000 ICntrl=  100127 IOpCl=  1 I1Cent=           0 NGrid=           0
         NMat0=    1 NMatS0=      1 NMatT0=    0 NMatD0=    1 NMtDS0=    0 NMtDT0=    0
 Symmetry not used in FoFCou.
 Leave Link  703 at Sun Feb  8 01:00:20 2015, MaxMem=   524288000 cpu:       219.9
 (Enter /opt/g09/l716.exe)
 Dipole        = 6.96929674D-05-4.91594265D-07-3.13665183D-08
 Polarizability= 8.39915903D+01 3.59562674D-03 8.39935940D+01
                -4.57164978D-06-3.69566446D-05 4.79091451D+01
 -------------------------------------------------------------------
 Center     Atomic                   Forces (Hartrees/Bohr)
 Number     Number              X              Y              Z
 -------------------------------------------------------------------
      1       17           0.000002134   -0.000000762   -0.000000027
      2       22          -0.000003828    0.000000129    0.000000000
      3       17           0.000002126    0.000000112   -0.000000029
      4       17          -0.000000432    0.000000521    0.000000055
 -------------------------------------------------------------------
 Cartesian Forces:  Max     0.000003828 RMS     0.000001437
 Force constants in Cartesian coordinates: 
                1             2             3             4             5 
      1  0.102849D+00
      2 -0.705965D-01  0.571740D-01
      3  0.000000D+00  0.000000D+00  0.818635D-03
      4 -0.102283D+00  0.651510D-01  0.000000D+00  0.243700D+00
      5  0.651470D-01 -0.601400D-01  0.000000D+00 -0.386815D-04  0.243648D+00
      6  0.000000D+00  0.000000D+00 -0.258639D-02  0.000000D+00  0.000000D+00
      7 -0.500099D-02  0.477351D-02  0.000000D+00 -0.127158D+00 -0.508576D-01
      8 -0.238436D-02  0.620038D-02  0.000000D+00 -0.508599D-01 -0.353868D-01
      9  0.000000D+00  0.000000D+00  0.885305D-03  0.000000D+00  0.000000D+00
     10  0.443465D-02  0.672038D-03  0.000000D+00 -0.142595D-01 -0.142507D-01
     11  0.783386D-02 -0.323447D-02  0.000000D+00 -0.142523D-01 -0.148121D+00
     12  0.000000D+00  0.000000D+00  0.882451D-03  0.000000D+00  0.000000D+00
                6             7             8             9            10 
      6  0.784082D-02
      7  0.000000D+00  0.129792D+00
      8  0.000000D+00  0.551094D-01  0.303489D-01
      9 -0.262192D-02  0.000000D+00  0.000000D+00  0.851358D-03
     10  0.000000D+00  0.236680D-02 -0.186514D-02  0.000000D+00  0.745805D-02
     11  0.000000D+00 -0.902534D-02 -0.116255D-02  0.000000D+00  0.154438D-01
     12 -0.263250D-02  0.000000D+00  0.000000D+00  0.885259D-03  0.000000D+00
               11            12 
     11  0.152518D+00
     12  0.000000D+00  0.864794D-03
 FormGI is forming the generalized inverse of G from B-inverse, IUseBI=4.
 Force constants in internal coordinates: 
                1             2             3             4             5 
      1  0.154210D+00
      2  0.852655D-02  0.154295D+00
      3  0.852746D-02  0.852320D-02  0.154144D+00
      4 -0.325977D-02 -0.315122D-02  0.641612D-02  0.337291D-01
      5 -0.314907D-02  0.641143D-02 -0.317078D-02 -0.168343D-01  0.336982D-01
      6  0.640883D-02 -0.326022D-02 -0.324533D-02 -0.168948D-01 -0.168639D-01
      7  0.000000D+00  0.000000D+00  0.000000D+00  0.000000D+00  0.000000D+00
                6             7 
      6  0.337587D-01
      7  0.000000D+00  0.113248D-01
 Leave Link  716 at Sun Feb  8 01:00:20 2015, MaxMem=   524288000 cpu:         0.3
 (Enter /opt/g09/l103.exe)

 GradGradGradGradGradGradGradGradGradGradGradGradGradGradGradGradGradGrad
 Berny optimization.
 Red2BG is reusing G-inverse.
 Internal  Forces:  Max     0.000002174 RMS     0.000001142
 Search for a local minimum.
 Step number   1 out of a maximum of   20
 All quantities printed in internal units (Hartrees-Bohrs-Radians)
 RMS Force = .11417D-05 SwitMx=.10000D-02 MixMth= 2
 Mixed Optimization -- En-DIIS/RFO-DIIS
 Second derivative matrix not updated -- analytic derivatives used.
 The second derivative matrix:
                          R1        R2        R3        A1        A2
           R1           0.15421
           R2           0.00853   0.15429
           R3           0.00853   0.00852   0.15414
           A1          -0.00326  -0.00315   0.00642   0.03373
           A2          -0.00315   0.00641  -0.00317  -0.01683   0.03370
           A3           0.00641  -0.00326  -0.00325  -0.01689  -0.01686
           D1           0.00000   0.00000   0.00000   0.00000   0.00000
                          A3        D1
           A3           0.03376
           D1           0.00000   0.01132
 ITU=  0
     Eigenvalues ---    0.01132   0.04959   0.04967   0.14662   0.14669
     Eigenvalues ---    0.17127
 RFO step:  Lambda= 0.00000000D+00 EMin= 1.13247838D-02
 Linear search not attempted -- first point.
 Iteration  1 RMS(Cart)=  0.00000613 RMS(Int)=  0.00000000
 Iteration  2 RMS(Cart)=  0.00000000 RMS(Int)=  0.00000000
 ITry= 1 IFail=0 DXMaxC= 9.15D-06 DCOld= 1.00D+10 DXMaxT= 3.00D-01 DXLimC= 3.00D+00 Rises=F
 Variable       Old X    -DE/DX   Delta X   Delta X   Delta X     New X
                                 (Linear)    (Quad)   (Total)
    R1        4.16336   0.00000   0.00000   0.00001   0.00001   4.16337
    R2        4.16346   0.00000   0.00000  -0.00001  -0.00001   4.16344
    R3        4.16348   0.00000   0.00000   0.00000   0.00000   4.16349
    A1        2.09427   0.00000   0.00000   0.00000   0.00000   2.09427
    A2        2.09441   0.00000   0.00000   0.00000   0.00000   2.09441
    A3        2.09450   0.00000   0.00000   0.00001   0.00001   2.09451
    D1        3.14159   0.00000   0.00000   0.00000   0.00000   3.14159
         Item               Value     Threshold  Converged?
 Maximum Force            0.000002     0.000015     YES
 RMS     Force            0.000001     0.000010     YES
 Maximum Displacement     0.000009     0.000060     YES
 RMS     Displacement     0.000006     0.000040     YES
 Predicted change in Energy=-3.151602D-11
 Optimization completed.
    -- Stationary point found.
                           ----------------------------
                           !   Optimized Parameters   !
                           ! (Angstroms and Degrees)  !
 --------------------------                            --------------------------
 ! Name  Definition              Value          Derivative Info.                !
 --------------------------------------------------------------------------------
 ! R1    R(1,2)                  2.2032         -DE/DX =    0.0                 !
 ! R2    R(2,3)                  2.2032         -DE/DX =    0.0                 !
 ! R3    R(2,4)                  2.2032         -DE/DX =    0.0                 !
 ! A1    A(1,2,3)              119.9929         -DE/DX =    0.0                 !
 ! A2    A(1,2,4)              120.001          -DE/DX =    0.0                 !
 ! A3    A(3,2,4)              120.0061         -DE/DX =    0.0                 !
 ! D1    D(1,2,4,3)            180.0            -DE/DX =    0.0                 !
 --------------------------------------------------------------------------------
 Lowest energy point so far.  Saving SCF results.
 GradGradGradGradGradGradGradGradGradGradGradGradGradGradGradGradGradGrad

 Largest change from initial coordinates is atom    0       0.000 Angstoms.
 Leave Link  103 at Sun Feb  8 01:00:20 2015, MaxMem=   524288000 cpu:         0.0
 (Enter /opt/g09/l202.exe)
                          Input orientation:                          
 ---------------------------------------------------------------------
 Center     Atomic      Atomic             Coordinates (Angstroms)
 Number     Number       Type             X           Y           Z
 ---------------------------------------------------------------------
      1         17           0        1.781930   -1.295540   -0.000100
      2         22           0        0.000020    0.000100   -0.000100
      3         17           0       -2.012930   -0.895530   -0.000100
      4         17           0        0.231090    2.191170   -0.000100
 ---------------------------------------------------------------------
                    Distance matrix (angstroms):
                    1          2          3          4
     1  Cl   0.000000
     2  Ti   2.203154   0.000000
     3  Cl   3.815884   2.203207   0.000000
     4  Cl   3.816052   2.203221   3.816195   0.000000
 Symmetry turned off by external request.
 Stoichiometry    Cl3Ti(2)
 Framework group  CS[SG(Cl3Ti)]
 Deg. of freedom     5
 Full point group                 CS      NOp   2
 Rotational constants (GHZ):      1.9850894      1.9847156      0.9924512
 Leave Link  202 at Sun Feb  8 01:00:20 2015, MaxMem=   524288000 cpu:         0.0
 (Enter /opt/g09/l716.exe)
 Dipole        = 6.96929674D-05-4.91594265D-07-3.13665183D-08
 Polarizability= 8.39915903D+01 3.59562674D-03 8.39935940D+01
                -4.57164978D-06-3.69566446D-05 4.79091451D+01
 Full mass-weighted force constant matrix:
 Low frequencies ---   -6.3255   -4.4340   -3.9847   -0.0062   -0.0050   -0.0042
 Low frequencies ---   79.3490   97.4046   97.4782
 Diagonal vibrational polarizability:
       24.1208156      24.1112685      93.3535579
 Harmonic frequencies (cm**-1), IR intensities (KM/Mole), Raman scattering
 activities (A**4/AMU), depolarization ratios for plane and unpolarized
 incident light, reduced masses (AMU), force constants (mDyne/A),
 and normal coordinates:
                      1                      2                      3
                      A                      A                      A
 Frequencies --     79.3483                97.4045                97.4782
 Red. masses --     42.9477                36.3020                36.3004
 Frc consts  --      0.1593                 0.2029                 0.2032
 IR Inten    --     21.8410                 1.5233                 1.5136
  Atom  AN      X      Y      Z        X      Y      Z        X      Y      Z
     1  17     0.00   0.00   0.36     0.31   0.58   0.00     0.39  -0.09   0.00
     2  22     0.00   0.00  -0.78    -0.24  -0.21   0.00     0.21  -0.24   0.00
     3  17     0.00   0.00   0.36    -0.41   0.03   0.00    -0.16   0.63   0.00
     4  17     0.00   0.00   0.36     0.43  -0.32   0.00    -0.51  -0.21   0.00
                      4                      5                      6
                      A                      A                      A
 Frequencies --    359.7504               491.3867               491.4777
 Red. masses --     34.9689                41.0956                41.0948
 Frc consts  --      2.6665                 5.8465                 5.8485
 IR Inten    --      0.0001               177.8099               177.7889
  Atom  AN      X      Y      Z        X      Y      Z        X      Y      Z
     1  17    -0.47   0.34   0.00     0.23  -0.21   0.00    -0.42   0.28   0.00
     2  22     0.00   0.00   0.00     0.05   0.69   0.00     0.69  -0.05   0.00
     3  17     0.53   0.23   0.00    -0.24  -0.14   0.00    -0.48  -0.20   0.00
     4  17    -0.06  -0.57   0.00    -0.06  -0.59   0.00    -0.04  -0.01   0.00

 -------------------
 - Thermochemistry -
 -------------------
 Temperature   298.150 Kelvin.  Pressure   1.00000 Atm.
 Atom     1 has atomic number 17 and mass  34.96885
 Atom     2 has atomic number 22 and mass  47.94795
 Atom     3 has atomic number 17 and mass  34.96885
 Atom     4 has atomic number 17 and mass  34.96885
 Molecular mass:   152.85450 amu.
 Principal axes and moments of inertia in atomic units:
                           1         2         3
     Eigenvalues --   909.14860 909.319811818.46840
           X            0.33705   0.94149   0.00000
           Y            0.94149  -0.33705   0.00000
           Z            0.00000   0.00000   1.00000
 This molecule is an asymmetric top.
 Rotational symmetry number  1.
 Warning -- assumption of classical behavior for rotation
           may cause significant error
 Rotational temperatures (Kelvin)      0.09527     0.09525     0.04763
 Rotational constants (GHZ):           1.98509     1.98472     0.99245
 Zero-point vibrational energy       9670.9 (Joules/Mol)
                                    2.31140 (Kcal/Mol)
 Warning -- explicit consideration of   6 degrees of freedom as
           vibrations may cause significant error
 Vibrational temperatures:    114.16   140.14   140.25   517.60   707.00
          (Kelvin)            707.13
 
 Zero-point correction=                           0.003683 (Hartree/Particle)
 Thermal correction to Energy=                    0.009582
 Thermal correction to Enthalpy=                  0.010526
 Thermal correction to Gibbs Free Energy=        -0.029651
 Sum of electronic and zero-point Energies=          -2230.064328
 Sum of electronic and thermal Energies=             -2230.058429
 Sum of electronic and thermal Enthalpies=           -2230.057485
 Sum of electronic and thermal Free Energies=        -2230.097662
 
                     E (Thermal)             CV                S
                      KCal/Mol        Cal/Mol-Kelvin    Cal/Mol-Kelvin
 Total                    6.013             15.920             84.559
 Electronic               0.000              0.000              1.377
 Translational            0.889              2.981             40.983
 Rotational               0.889              2.981             28.799
 Vibrational              4.235              9.958             13.400
 Vibration     1          0.600              1.963              3.907
 Vibration     2          0.603              1.951              3.506
 Vibration     3          0.603              1.951              3.504
 Vibration     4          0.734              1.555              1.123
 Vibration     5          0.847              1.269              0.680
 Vibration     6          0.847              1.269              0.680
                       Q            Log10(Q)             Ln(Q)
 Total Bot       0.434849D+14         13.638339         31.403436
 Total V=0       0.215081D+16         15.332603         35.304623
 Vib (Bot)       0.666901D+00         -0.175939         -0.405114
 Vib (Bot)    1  0.259570D+01          0.414254          0.953856
 Vib (Bot)    2  0.210801D+01          0.323872          0.745743
 Vib (Bot)    3  0.210638D+01          0.323538          0.744973
 Vib (Bot)    4  0.509579D+00         -0.292789         -0.674171
 Vib (Bot)    5  0.337016D+00         -0.472349         -1.087625
 Vib (Bot)    6  0.336927D+00         -0.472464         -1.087889
 Vib (V=0)       0.329857D+02          1.518325          3.496073
 Vib (V=0)    1  0.314342D+01          0.497402          1.145310
 Vib (V=0)    2  0.266649D+01          0.425940          0.980764
 Vib (V=0)    3  0.266491D+01          0.425683          0.980172
 Vib (V=0)    4  0.121391D+01          0.084187          0.193848
 Vib (V=0)    5  0.110298D+01          0.042566          0.098012
 Vib (V=0)    6  0.110293D+01          0.042546          0.097967
 Electronic      0.200000D+01          0.301030          0.693147
 Translational   0.742801D+08          7.870873         18.123354
 Rotational      0.438910D+06          5.642375         12.992049
 
                                                  freq-fine-ticl3-b971-6311+gdp.g
 au
                                                             IR Spectrum
 
                                                                                                                                     
      4                                 3                                                                                            
      9                                 6                                                                  9    7                    
      1                                 0                                                                  7    9                    
 
      X                                                                                                    X    X                    
      X                                                                                                                              
      X                                                                                                                              
      X                                                                                                                              
      X                                                                                                                              
      X                                                                                                                              
      X                                                                                                                              
      X                                                                                                                              
      X                                                                                                                              
      X                                                                                                                              
      X                                                                                                                              
      X                                                                                                                              
      X                                                                                                                              
      X                                                                                                                              
      X                                                                                                                              
      X                                                                                                                              
      X                                                                                                                              
      X                                                                                                                              
      X                                                                                                                              
      X                                                                                                                              
 
 -------------------------------------------------------------------
 Center     Atomic                   Forces (Hartrees/Bohr)
 Number     Number              X              Y              Z
 -------------------------------------------------------------------
      1       17           0.000002134   -0.000000762   -0.000000027
      2       22          -0.000003828    0.000000129    0.000000000
      3       17           0.000002126    0.000000112   -0.000000029
      4       17          -0.000000432    0.000000521    0.000000055
 -------------------------------------------------------------------
 Cartesian Forces:  Max     0.000003828 RMS     0.000001437
 Force constants in Cartesian coordinates: 
                1             2             3             4             5 
      1  0.102849D+00
      2 -0.705965D-01  0.571740D-01
      3  0.000000D+00  0.000000D+00  0.818635D-03
      4 -0.102283D+00  0.651510D-01  0.000000D+00  0.243700D+00
      5  0.651470D-01 -0.601400D-01  0.000000D+00 -0.386815D-04  0.243648D+00
      6  0.000000D+00  0.000000D+00 -0.258639D-02  0.000000D+00  0.000000D+00
      7 -0.500099D-02  0.477351D-02  0.000000D+00 -0.127158D+00 -0.508576D-01
      8 -0.238436D-02  0.620038D-02  0.000000D+00 -0.508599D-01 -0.353868D-01
      9  0.000000D+00  0.000000D+00  0.885305D-03  0.000000D+00  0.000000D+00
     10  0.443465D-02  0.672038D-03  0.000000D+00 -0.142595D-01 -0.142507D-01
     11  0.783386D-02 -0.323447D-02  0.000000D+00 -0.142523D-01 -0.148121D+00
     12  0.000000D+00  0.000000D+00  0.882451D-03  0.000000D+00  0.000000D+00
                6             7             8             9            10 
      6  0.784082D-02
      7  0.000000D+00  0.129792D+00
      8  0.000000D+00  0.551094D-01  0.303489D-01
      9 -0.262192D-02  0.000000D+00  0.000000D+00  0.851358D-03
     10  0.000000D+00  0.236680D-02 -0.186514D-02  0.000000D+00  0.745805D-02
     11  0.000000D+00 -0.902534D-02 -0.116255D-02  0.000000D+00  0.154438D-01
     12 -0.263250D-02  0.000000D+00  0.000000D+00  0.885259D-03  0.000000D+00
               11            12 
     11  0.152518D+00
     12  0.000000D+00  0.864794D-03
 Red2BG is reusing G-inverse.
 Force constants in internal coordinates: 
                1             2             3             4             5 
      1  0.154210D+00
      2  0.852655D-02  0.154295D+00
      3  0.852746D-02  0.852320D-02  0.154144D+00
      4 -0.325977D-02 -0.315122D-02  0.641612D-02  0.337291D-01
      5 -0.314907D-02  0.641143D-02 -0.317078D-02 -0.168343D-01  0.336982D-01
      6  0.640883D-02 -0.326022D-02 -0.324533D-02 -0.168948D-01 -0.168639D-01
      7  0.000000D+00  0.000000D+00  0.000000D+00  0.000000D+00  0.000000D+00
                6             7 
      6  0.337587D-01
      7  0.000000D+00  0.113248D-01
 Leave Link  716 at Sun Feb  8 01:00:20 2015, MaxMem=   524288000 cpu:         0.3
 (Enter /opt/g09/l9999.exe)
 1\1\GINC-HOGARTH\Freq\UB971\6-311+G(d,p)\Cl3Ti1(2)\PB556\08-Feb-2015\0
 \\#p uB971/6-311+G(d,p) Opt=(Tight, CalcAll) Freq GFInput Population=N
 one Integral(Grid=UltraFine) SCF=XQC Guess=MIX NoSymmetry\\freq-fine-t
 icl3-b971-6311+gdp.gau\\0,2\Cl,1.78193,-1.29554,-0.0001\Ti,0.00002,0.0
 001,-0.0001\Cl,-2.01293,-0.89553,-0.0001\Cl,0.23109,2.19117,-0.0001\\V
 ersion=ES64L-G09RevD.01\HF=-2230.068011\S2=0.753498\S2-1=0.\S2A=0.7500
 11\RMSD=9.186e-09\RMSF=1.437e-06\ZeroPoint=0.0036834\Thermal=0.0095817
 \Dipole=0.0000697,-0.0000005,0.\DipoleDeriv=-0.9276589,0.501699,-0.000
 0004,0.5016579,-0.602429,0.,0.0000001,0.0000002,-0.2861396,2.295134,0.
 0000654,0.,-0.000045,2.2951949,-0.0000007,0.,-0.0000005,0.8586342,-1.1
 181369,-0.3917493,0.0000004,-0.391654,-0.41191,0.,0.,0.0000003,-0.2862
 19,-0.2493382,-0.1100151,0.,-0.1099588,-1.2808559,0.0000007,0.,0.,-0.2
 862756\Polar=83.9915903,0.0035956,83.993594,-0.0000046,-0.000037,47.90
 91451\PG=CS [SG(Cl3Ti1)]\NImag=0\\0.10284916,-0.07059652,0.05717404,0.
 ,0.,0.00081864,-0.10228283,0.06515097,-0.00000001,0.24369984,0.0651470
 2,-0.06013995,-0.00000003,-0.00003868,0.24364770,0.00000002,-0.0000000
 1,-0.00258639,0.,0.00000008,0.00784082,-0.00500099,0.00477351,0.,-0.12
 715750,-0.05085762,-0.00000002,0.12979169,-0.00238436,0.00620038,0.,-0
 .05085995,-0.03538676,-0.00000001,0.05510945,0.03034894,0.,0.,0.000885
 31,0.,-0.00000003,-0.00262192,0.,0.,0.00085136,0.00443465,0.00067204,0
 .00000001,-0.01425951,-0.01425072,0.,0.00236680,-0.00186514,0.,0.00745
 805,0.00783386,-0.00323447,0.00000002,-0.01425234,-0.14812099,-0.00000
 005,-0.00902534,-0.00116255,0.00000002,0.01544382,0.15251801,0.,0.,0.0
 0088245,0.,-0.00000002,-0.00263250,0.,0.,0.00088526,0.,0.00000002,0.00
 086479\\-0.00000213,0.00000076,0.00000003,0.00000383,-0.00000013,0.,-0
 .00000213,-0.00000011,0.00000003,0.00000043,-0.00000052,-0.00000006\\\
 @


 HEAVEN'S NET CASTS WIDE.
 THOUGH ITS MESHES ARE COARSE, NOTHING SLIPS THROUGH.

                                          -- LAO-TSU
 Leave Link 9999 at Sun Feb  8 01:00:20 2015, MaxMem=   524288000 cpu:         0.3
 Job cpu time:       0 days  0 hours 10 minutes 55.9 seconds.
 File lengths (MBytes):  RWF=     34 Int=      0 D2E=      0 Chk=      3 Scr=      1
 Normal termination of Gaussian 09 at Sun Feb  8 01:00:20 2015.
 (Enter /opt/g09/l1.exe)
 Link1:  Proceeding to internal job step number  2.
 ----------------------------------------------------------------------
 #P Geom=AllCheck Guess=TCheck SCRF=Check GenChk UB971/6-311+G(d,p) Fre
 q
 ----------------------------------------------------------------------
 1/7=10,10=4,29=7,30=1,38=1,40=1/1,3;
 2/12=2,15=1,40=1/2;
 3/5=4,6=6,7=111,11=2,14=-4,16=1,24=10,25=1,30=1,70=2,71=2,74=-20,75=-5,116=2,140=1/1,2,3;
 4/5=101/1;
 5/5=2,8=3,13=1,98=1/2,8;
 8/6=4,10=90,11=11/1;
 11/6=1,8=1,9=11,15=111,16=1,31=1/1,2,10;
 10/6=1,31=1/2;
 7/8=1,10=1,25=1,30=1/1,2,3,16;
 1/7=10,10=4,30=1/3;
 99//99;
 Leave Link    1 at Sun Feb  8 01:00:20 2015, MaxMem=   524288000 cpu:         0.4
 (Enter /opt/g09/l101.exe)
 Structure from the checkpoint file:  "/scratch/pb556/g09_run/mech//Gau-17428.chk"
 ---------------------------------
 freq-fine-ticl3-b971-6311+gdp.gau
 ---------------------------------
 Charge =  0 Multiplicity = 2
 Redundant internal coordinates found in file.
 Cl,0,1.78193,-1.29554,-0.0001
 Ti,0,0.00002,0.0001,-0.0001
 Cl,0,-2.01293,-0.89553,-0.0001
 Cl,0,0.23109,2.19117,-0.0001
 Recover connectivity data from disk.
 NAtoms=      4 NQM=        4 NQMF=       0 NMMI=      0 NMMIF=      0
                NMic=       0 NMicF=      0.
                    Isotopes and Nuclear Properties:
 (Nuclear quadrupole moments (NQMom) in fm**2, nuclear magnetic moments (NMagM)
  in nuclear magnetons)

  Atom         1           2           3           4
 IAtWgt=          35          48          35          35
 AtmWgt=  34.9688527  47.9479467  34.9688527  34.9688527
 NucSpn=           3           0           3           3
 AtZEff= -14.2400000 -23.9800000 -14.2400000 -14.2400000
 NQMom=   -8.1650000   0.0000000  -8.1650000  -8.1650000
 NMagM=    0.8218740   0.0000000   0.8218740   0.8218740
 AtZNuc=  17.0000000  22.0000000  17.0000000  17.0000000
 Leave Link  101 at Sun Feb  8 01:00:20 2015, MaxMem=   524288000 cpu:         1.8
 (Enter /opt/g09/l103.exe)

 GradGradGradGradGradGradGradGradGradGradGradGradGradGradGradGradGradGrad
 Berny optimization.
 Initialization pass.
                           ----------------------------
                           !    Initial Parameters    !
                           ! (Angstroms and Degrees)  !
 --------------------------                            --------------------------
 ! Name  Definition              Value          Derivative Info.                !
 --------------------------------------------------------------------------------
 ! R1    R(1,2)                  2.2032         calculate D2E/DX2 analytically  !
 ! R2    R(2,3)                  2.2032         calculate D2E/DX2 analytically  !
 ! R3    R(2,4)                  2.2032         calculate D2E/DX2 analytically  !
 ! A1    A(1,2,3)              119.9929         calculate D2E/DX2 analytically  !
 ! A2    A(1,2,4)              120.001          calculate D2E/DX2 analytically  !
 ! A3    A(3,2,4)              120.0061         calculate D2E/DX2 analytically  !
 ! D1    D(1,2,4,3)            180.0            calculate D2E/DX2 analytically  !
 --------------------------------------------------------------------------------
 Trust Radius=3.00D-01 FncErr=1.00D-07 GrdErr=1.00D-07
 Number of steps in this run=      2 maximum allowed number of steps=      2.
 GradGradGradGradGradGradGradGradGradGradGradGradGradGradGradGradGradGrad

 Leave Link  103 at Sun Feb  8 01:00:20 2015, MaxMem=   524288000 cpu:         0.1
 (Enter /opt/g09/l202.exe)
                          Input orientation:                          
 ---------------------------------------------------------------------
 Center     Atomic      Atomic             Coordinates (Angstroms)
 Number     Number       Type             X           Y           Z
 ---------------------------------------------------------------------
      1         17           0        1.781930   -1.295540   -0.000100
      2         22           0        0.000020    0.000100   -0.000100
      3         17           0       -2.012930   -0.895530   -0.000100
      4         17           0        0.231090    2.191170   -0.000100
 ---------------------------------------------------------------------
                    Distance matrix (angstroms):
                    1          2          3          4
     1  Cl   0.000000
     2  Ti   2.203154   0.000000
     3  Cl   3.815884   2.203207   0.000000
     4  Cl   3.816052   2.203221   3.816195   0.000000
 Symmetry turned off by external request.
 Stoichiometry    Cl3Ti(2)
 Framework group  CS[SG(Cl3Ti)]
 Deg. of freedom     5
 Full point group                 CS      NOp   2
 Rotational constants (GHZ):      1.9850894      1.9847156      0.9924512
 Leave Link  202 at Sun Feb  8 01:00:20 2015, MaxMem=   524288000 cpu:         0.0
 (Enter /opt/g09/l301.exe)
 Standard basis: 6-311+G(d,p) (5D, 7F)
 Ernie: Thresh=  0.10000D-02 Tol=  0.10000D-05 Strict=F.
 AO basis set in the form of general basis input (Overlap normalization):
      1 0
 S   6 1.00       0.000000000000
      0.1058190000D+06  0.7380002465D-03
      0.1587200000D+05  0.5718001910D-02
      0.3619650000D+04  0.2949500985D-01
      0.1030800000D+04  0.1172860392D+00
      0.3399080000D+03  0.3629491212D+00
      0.1245380000D+03  0.5841491951D+00
 S   3 1.00       0.000000000000
      0.1245380000D+03  0.1341769734D+00
      0.4951350000D+02  0.6242498762D+00
      0.2080560000D+02  0.2917559421D+00
 S   1 1.00       0.000000000000
      0.6583460000D+01  0.1000000000D+01
 S   1 1.00       0.000000000000
      0.2564680000D+01  0.1000000000D+01
 S   1 1.00       0.000000000000
      0.5597630000D+00  0.1000000000D+01
 S   1 1.00       0.000000000000
      0.1832730000D+00  0.1000000000D+01
 SP   1 1.00       0.000000000000
      0.4830000000D-01  0.1000000000D+01  0.1000000000D+01
 P   5 1.00       0.000000000000
      0.5897760000D+03  0.3665569355D-02
      0.1398490000D+03  0.2836791942D-01
      0.4514130000D+02  0.1247566028D+00
      0.1687330000D+02  0.3396546305D+00
      0.2771520000D+01  0.7475859630D+00
 P   2 1.00       0.000000000000
      0.6741100000D+01 -0.1572243813D+01
      0.2771520000D+01  0.9923888817D+00
 P   1 1.00       0.000000000000
      0.1023870000D+01  0.1000000000D+01
 P   1 1.00       0.000000000000
      0.3813680000D+00  0.1000000000D+01
 P   1 1.00       0.000000000000
      0.1094370000D+00  0.1000000000D+01
 D   1 1.00       0.000000000000
      0.7500000000D+00  0.1000000000D+01
 ****
      2 0
 S   6 1.00       0.000000000000
      0.2060820000D+06  0.5673151380D-03
      0.3122680000D+05  0.4379672866D-02
      0.7199320000D+04  0.2242029425D-01
      0.2048750000D+04  0.9063426645D-01
      0.6707900000D+03  0.2890357165D+00
      0.2436500000D+03  0.6803470061D+00
 S   1 1.00       0.000000000000
      0.9592500000D+02  0.1000000000D+01
 S   1 1.00       0.000000000000
      0.3981010000D+02  0.1000000000D+01
 S   1 1.00       0.000000000000
      0.1222050000D+02  0.1000000000D+01
[...]
 End of Minotr F.D. properties file   721 does not exist.
 End of Minotr F.D. properties file   722 does not exist.
 End of Minotr F.D. properties file   788 does not exist.
 Leave Link 1002 at Sun Feb  8 01:01:00 2015, MaxMem=   524288000 cpu:       188.4
 (Enter /opt/g09/l701.exe)
 Compute integral second derivatives.
 ... and contract with generalized density number  0.
 Leave Link  701 at Sun Feb  8 01:01:01 2015, MaxMem=   524288000 cpu:         3.9
 (Enter /opt/g09/l702.exe)
 L702 exits ... SP integral derivatives will be done elsewhere.
 Leave Link  702 at Sun Feb  8 01:01:01 2015, MaxMem=   524288000 cpu:         0.3
 (Enter /opt/g09/l703.exe)
 Compute integral second derivatives, UseDBF=F ICtDFT=           0.
 Integral derivatives from FoFJK, PRISM(SPDF).
 Calling FoFJK, ICntrl=    100127 FMM=F ISym2X=0 I1Cent= 0 IOpClX= 1 NMat=1 NMatS=1 NMatT=0.
 FoFJK:  IHMeth= 1 ICntrl=  100127 DoSepK=F KAlg= 0 I1Cent=   0 FoldK=F
 IRaf=         0 NMat=   1 IRICut=       1 DoRegI=T DoRafI=F ISym2E= 0.
 FoFCou: FMM=F IPFlag=           0 FMFlag=      100000 FMFlg1=         800
         NFxFlg=           0 DoJE=F BraDBF=F KetDBF=F FulRan=T
         wScrn=  0.000000 ICntrl=  100127 IOpCl=  1 I1Cent=           0 NGrid=           0
         NMat0=    1 NMatS0=      1 NMatT0=    0 NMatD0=    1 NMtDS0=    0 NMtDT0=    0
 Symmetry not used in FoFCou.
 Leave Link  703 at Sun Feb  8 01:01:28 2015, MaxMem=   524288000 cpu:       220.3
 (Enter /opt/g09/l716.exe)
 Dipole        = 6.97202337D-05-2.20245596D-08 2.64862637D-08
 Polarizability= 8.39915797D+01 3.59648084D-03 8.39935902D+01
                -4.13754511D-06-3.34712218D-05 4.79091351D+01
 Full mass-weighted force constant matrix:
 Low frequencies ---   -6.3217   -4.4308   -3.9845    0.0036    0.0042    0.0042
 Low frequencies ---   79.3491   97.4046   97.4782
 Diagonal vibrational polarizability:
       24.1208122      24.1112588      93.3533895
 Harmonic frequencies (cm**-1), IR intensities (KM/Mole), Raman scattering
 activities (A**4/AMU), depolarization ratios for plane and unpolarized
 incident light, reduced masses (AMU), force constants (mDyne/A),
 and normal coordinates:
                      1                      2                      3
                      A                      A                      A
 Frequencies --     79.3484                97.4046                97.4782
 Red. masses --     42.9477                36.3020                36.3004
 Frc consts  --      0.1593                 0.2029                 0.2032
 IR Inten    --     21.8410                 1.5233                 1.5136
  Atom  AN      X      Y      Z        X      Y      Z        X      Y      Z
     1  17     0.00   0.00   0.36     0.31   0.58   0.00     0.39  -0.09   0.00
     2  22     0.00   0.00  -0.78    -0.24  -0.21   0.00     0.21  -0.24   0.00
     3  17     0.00   0.00   0.36    -0.41   0.03   0.00    -0.16   0.63   0.00
     4  17     0.00   0.00   0.36     0.43  -0.32   0.00    -0.51  -0.21   0.00
                      4                      5                      6
                      A                      A                      A
 Frequencies --    359.7504               491.3867               491.4777
 Red. masses --     34.9689                41.0956                41.0948
 Frc consts  --      2.6665                 5.8465                 5.8485
 IR Inten    --      0.0001               177.8098               177.7889
  Atom  AN      X      Y      Z        X      Y      Z        X      Y      Z
     1  17    -0.47   0.34   0.00     0.23  -0.21   0.00    -0.42   0.28   0.00
     2  22     0.00   0.00   0.00     0.05   0.69   0.00     0.69  -0.05   0.00
     3  17     0.53   0.23   0.00    -0.24  -0.14   0.00    -0.48  -0.20   0.00
     4  17    -0.06  -0.57   0.00    -0.06  -0.59   0.00    -0.04  -0.01   0.00

 -------------------
 - Thermochemistry -
 -------------------
 Temperature   298.150 Kelvin.  Pressure   1.00000 Atm.
 Atom     1 has atomic number 17 and mass  34.96885
 Atom     2 has atomic number 22 and mass  47.94795
 Atom     3 has atomic number 17 and mass  34.96885
 Atom     4 has atomic number 17 and mass  34.96885
 Molecular mass:   152.85450 amu.
 Principal axes and moments of inertia in atomic units:
                           1         2         3
     Eigenvalues --   909.14860 909.319811818.46840
           X            0.33705   0.94149   0.00000
           Y            0.94149  -0.33705   0.00000
           Z            0.00000   0.00000   1.00000
 This molecule is an asymmetric top.
 Rotational symmetry number  1.
 Warning -- assumption of classical behavior for rotation
           may cause significant error
 Rotational temperatures (Kelvin)      0.09527     0.09525     0.04763
 Rotational constants (GHZ):           1.98509     1.98472     0.99245
 Zero-point vibrational energy       9670.9 (Joules/Mol)
                                    2.31140 (Kcal/Mol)
 Warning -- explicit consideration of   6 degrees of freedom as
           vibrations may cause significant error
 Vibrational temperatures:    114.16   140.14   140.25   517.60   707.00
          (Kelvin)            707.13
 
 Zero-point correction=                           0.003683 (Hartree/Particle)
 Thermal correction to Energy=                    0.009582
 Thermal correction to Enthalpy=                  0.010526
 Thermal correction to Gibbs Free Energy=        -0.029651
 Sum of electronic and zero-point Energies=          -2230.064328
 Sum of electronic and thermal Energies=             -2230.058429
 Sum of electronic and thermal Enthalpies=           -2230.057485
 Sum of electronic and thermal Free Energies=        -2230.097662
 
                     E (Thermal)             CV                S
                      KCal/Mol        Cal/Mol-Kelvin    Cal/Mol-Kelvin
 Total                    6.013             15.920             84.559
 Electronic               0.000              0.000              1.377
 Translational            0.889              2.981             40.983
 Rotational               0.889              2.981             28.799
 Vibrational              4.235              9.958             13.400
 Vibration     1          0.600              1.963              3.907
 Vibration     2          0.603              1.951              3.506
 Vibration     3          0.603              1.951              3.504
 Vibration     4          0.734              1.555              1.123
 Vibration     5          0.847              1.269              0.680
 Vibration     6          0.847              1.269              0.680
                       Q            Log10(Q)             Ln(Q)
 Total Bot       0.434849D+14         13.638338         31.403435
 Total V=0       0.215081D+16         15.332602         35.304622
 Vib (Bot)       0.666900D+00         -0.175939         -0.405115
 Vib (Bot)    1  0.259570D+01          0.414254          0.953854
 Vib (Bot)    2  0.210801D+01          0.323872          0.745743
 Vib (Bot)    3  0.210638D+01          0.323538          0.744973
 Vib (Bot)    4  0.509579D+00         -0.292789         -0.674171
 Vib (Bot)    5  0.337016D+00         -0.472349         -1.087625
 Vib (Bot)    6  0.336927D+00         -0.472464         -1.087889
 Vib (V=0)       0.329856D+02          1.518325          3.496072
 Vib (V=0)    1  0.314341D+01          0.497402          1.145309
 Vib (V=0)    2  0.266649D+01          0.425940          0.980764
 Vib (V=0)    3  0.266491D+01          0.425683          0.980172
 Vib (V=0)    4  0.121391D+01          0.084187          0.193848
 Vib (V=0)    5  0.110298D+01          0.042566          0.098012
 Vib (V=0)    6  0.110293D+01          0.042546          0.097967
 Electronic      0.200000D+01          0.301030          0.693147
 Translational   0.742801D+08          7.870873         18.123354
 Rotational      0.438910D+06          5.642375         12.992049
 
                                                  freq-fine-ticl3-b971-6311+gdp.g
 au
                                                             IR Spectrum
 
                                                                                                                                     
      4                                 3                                                                                            
      9                                 6                                                                  9    7                    
      1                                 0                                                                  7    9                    
 
      X                                                                                                    X    X                    
      X                                                                                                                              
      X                                                                                                                              
      X                                                                                                                              
      X                                                                                                                              
      X                                                                                                                              
      X                                                                                                                              
      X                                                                                                                              
      X                                                                                                                              
      X                                                                                                                              
      X                                                                                                                              
      X                                                                                                                              
      X                                                                                                                              
      X                                                                                                                              
      X                                                                                                                              
      X                                                                                                                              
      X                                                                                                                              
      X                                                                                                                              
      X                                                                                                                              
      X                                                                                                                              
 
 -------------------------------------------------------------------
 Center     Atomic                   Forces (Hartrees/Bohr)
 Number     Number              X              Y              Z
 -------------------------------------------------------------------
      1       17           0.000002143   -0.000000768   -0.000000024
      2       22          -0.000003825    0.000000151    0.000000000
      3       17           0.000002115    0.000000108   -0.000000026
      4       17          -0.000000434    0.000000508    0.000000050
 -------------------------------------------------------------------
 Cartesian Forces:  Max     0.000003825 RMS     0.000001437
 Force constants in Cartesian coordinates: 
                1             2             3             4             5 
      1  0.102849D+00
      2 -0.705965D-01  0.571740D-01
      3  0.000000D+00  0.000000D+00  0.818678D-03
      4 -0.102283D+00  0.651510D-01  0.000000D+00  0.243700D+00
      5  0.651470D-01 -0.601400D-01  0.000000D+00 -0.386825D-04  0.243648D+00
      6  0.000000D+00  0.000000D+00 -0.258640D-02  0.000000D+00  0.000000D+00
      7 -0.500099D-02  0.477351D-02  0.000000D+00 -0.127158D+00 -0.508576D-01
      8 -0.238436D-02  0.620038D-02  0.000000D+00 -0.508599D-01 -0.353868D-01
      9  0.000000D+00  0.000000D+00  0.885283D-03  0.000000D+00  0.000000D+00
     10  0.443465D-02  0.672038D-03  0.000000D+00 -0.142595D-01 -0.142507D-01
     11  0.783386D-02 -0.323447D-02  0.000000D+00 -0.142523D-01 -0.148121D+00
     12  0.000000D+00  0.000000D+00  0.882440D-03  0.000000D+00  0.000000D+00
                6             7             8             9            10 
      6  0.784083D-02
      7  0.000000D+00  0.129792D+00
      8  0.000000D+00  0.551094D-01  0.303489D-01
      9 -0.262193D-02  0.000000D+00  0.000000D+00  0.851401D-03
     10  0.000000D+00  0.236680D-02 -0.186514D-02  0.000000D+00  0.745805D-02
     11  0.000000D+00 -0.902534D-02 -0.116256D-02  0.000000D+00  0.154438D-01
     12 -0.263250D-02  0.000000D+00  0.000000D+00  0.885248D-03  0.000000D+00
               11            12 
     11  0.152518D+00
     12  0.000000D+00  0.864813D-03
 FormGI is forming the generalized inverse of G from B-inverse, IUseBI=4.
 Force constants in internal coordinates: 
                1             2             3             4             5 
      1  0.154210D+00
      2  0.852655D-02  0.154295D+00
      3  0.852746D-02  0.852320D-02  0.154144D+00
      4 -0.325977D-02 -0.315121D-02  0.641612D-02  0.337291D-01
      5 -0.314907D-02  0.641143D-02 -0.317078D-02 -0.168343D-01  0.336982D-01
      6  0.640883D-02 -0.326022D-02 -0.324533D-02 -0.168948D-01 -0.168638D-01
      7  0.000000D+00  0.000000D+00  0.000000D+00  0.000000D+00  0.000000D+00
                6             7 
      6  0.337587D-01
      7  0.000000D+00  0.113248D-01
 Leave Link  716 at Sun Feb  8 01:01:28 2015, MaxMem=   524288000 cpu:         0.3
 (Enter /opt/g09/l103.exe)

 GradGradGradGradGradGradGradGradGradGradGradGradGradGradGradGradGradGrad
 Berny optimization.
 Red2BG is reusing G-inverse.
 Internal  Forces:  Max     0.000002185 RMS     0.000001141
 Search for a local minimum.
 Step number   1 out of a maximum of    2
 All quantities printed in internal units (Hartrees-Bohrs-Radians)
 Second derivative matrix not updated -- analytic derivatives used.
 The second derivative matrix:
                          R1        R2        R3        A1        A2
           R1           0.15421
           R2           0.00853   0.15429
           R3           0.00853   0.00852   0.15414
           A1          -0.00326  -0.00315   0.00642   0.03373
           A2          -0.00315   0.00641  -0.00317  -0.01683   0.03370
           A3           0.00641  -0.00326  -0.00325  -0.01689  -0.01686
           D1           0.00000   0.00000   0.00000   0.00000   0.00000
                          A3        D1
           A3           0.03376
           D1           0.00000   0.01132
 ITU=  0
     Eigenvalues ---    0.01132   0.04959   0.04967   0.14662   0.14669
     Eigenvalues ---    0.17127
 Angle between quadratic step and forces=   9.60 degrees.
 Linear search not attempted -- first point.
 Iteration  1 RMS(Cart)=  0.00000606 RMS(Int)=  0.00000000
 Iteration  2 RMS(Cart)=  0.00000000 RMS(Int)=  0.00000000
 ITry= 1 IFail=0 DXMaxC= 9.14D-06 DCOld= 1.00D+10 DXMaxT= 3.00D-01 DXLimC= 3.00D+00 Rises=F
 Variable       Old X    -DE/DX   Delta X   Delta X   Delta X     New X
                                 (Linear)    (Quad)   (Total)
    R1        4.16336   0.00000   0.00000   0.00001   0.00001   4.16337
    R2        4.16346   0.00000   0.00000  -0.00001  -0.00001   4.16344
    R3        4.16348   0.00000   0.00000   0.00000   0.00000   4.16349
    A1        2.09427   0.00000   0.00000   0.00000   0.00000   2.09427
    A2        2.09441   0.00000   0.00000   0.00000   0.00000   2.09441
    A3        2.09450   0.00000   0.00000   0.00001   0.00001   2.09451
    D1        3.14159   0.00000   0.00000   0.00000   0.00000  -3.14159
         Item               Value     Threshold  Converged?
 Maximum Force            0.000002     0.000015     YES
 RMS     Force            0.000001     0.000010     YES
 Maximum Displacement     0.000009     0.000060     YES
 RMS     Displacement     0.000006     0.000040     YES
 Predicted change in Energy=-3.145758D-11
 Optimization completed.
    -- Stationary point found.
                           ----------------------------
                           !   Optimized Parameters   !
                           ! (Angstroms and Degrees)  !
 --------------------------                            --------------------------
 ! Name  Definition              Value          Derivative Info.                !
 --------------------------------------------------------------------------------
 ! R1    R(1,2)                  2.2032         -DE/DX =    0.0                 !
 ! R2    R(2,3)                  2.2032         -DE/DX =    0.0                 !
 ! R3    R(2,4)                  2.2032         -DE/DX =    0.0                 !
 ! A1    A(1,2,3)              119.9929         -DE/DX =    0.0                 !
 ! A2    A(1,2,4)              120.001          -DE/DX =    0.0                 !
 ! A3    A(3,2,4)              120.0061         -DE/DX =    0.0                 !
 ! D1    D(1,2,4,3)           -180.0            -DE/DX =    0.0                 !
 --------------------------------------------------------------------------------
 GradGradGradGradGradGradGradGradGradGradGradGradGradGradGradGradGradGrad

 Leave Link  103 at Sun Feb  8 01:01:28 2015, MaxMem=   524288000 cpu:         0.0
 (Enter /opt/g09/l9999.exe)
 1\1\GINC-HOGARTH\Freq\UB971\6-311+G(d,p)\Cl3Ti1(2)\PB556\08-Feb-2015\0
 \\#P Geom=AllCheck Guess=TCheck SCRF=Check GenChk UB971/6-311+G(d,p) F
 req\\freq-fine-ticl3-b971-6311+gdp.gau\\0,2\Cl,1.78193,-1.29554,-0.000
 1\Ti,0.00002,0.0001,-0.0001\Cl,-2.01293,-0.89553,-0.0001\Cl,0.23109,2.
 19117,-0.0001\\Version=ES64L-G09RevD.01\HF=-2230.068011\S2=0.753498\S2
 -1=0.\S2A=0.750011\RMSD=3.340e-09\RMSF=1.437e-06\ZeroPoint=0.0036834\T
 hermal=0.0095817\Dipole=0.0000697,0.,0.\DipoleDeriv=-0.9276587,0.50169
 91,-0.0000004,0.5016579,-0.6024289,0.,0.0000001,0.0000002,-0.2861397,2
 .2951337,0.0000654,0.,-0.000045,2.2951947,-0.0000007,0.,-0.0000005,0.8
 586344,-1.1181367,-0.3917493,0.0000004,-0.391654,-0.41191,0.,0.,0.0000
 002,-0.286219,-0.2493383,-0.1100151,0.,-0.1099588,-1.2808559,0.0000007
 ,0.,0.,-0.2862757\Polar=83.9915797,0.0035965,83.9935902,-0.0000041,-0.
 0000335,47.9091351\PG=CS [SG(Cl3Ti1)]\NImag=0\\0.10284917,-0.07059652,
 0.05717404,0.,0.,0.00081868,-0.10228283,0.06515097,0.,0.24369984,0.065
 14702,-0.06013995,-0.00000003,-0.00003868,0.24364769,0.00000002,-0.000
 00001,-0.00258640,0.,0.00000007,0.00784083,-0.00500099,0.00477351,0.,-
 0.12715750,-0.05085761,-0.00000002,0.12979169,-0.00238436,0.00620038,0
 .,-0.05085995,-0.03538676,-0.00000001,0.05510945,0.03034894,0.,0.,0.00
 088528,0.,-0.00000003,-0.00262193,0.,0.,0.00085140,0.00443465,0.000672
 04,0.,-0.01425951,-0.01425072,0.,0.00236680,-0.00186514,0.,0.00745805,
 0.00783386,-0.00323447,0.00000001,-0.01425234,-0.14812098,-0.00000005,
 -0.00902534,-0.00116256,0.00000002,0.01544382,0.15251800,0.,0.,0.00088
 244,0.,-0.00000002,-0.00263250,0.,0.,0.00088525,0.,0.00000002,0.000864
 81\\-0.00000214,0.00000077,0.00000002,0.00000382,-0.00000015,0.,-0.000
 00212,-0.00000011,0.00000003,0.00000043,-0.00000051,-0.00000005\\\@


 QUANTUM MECHANICS IS BOHRING -- M.S. GORDON
 Job cpu time:       0 days  0 hours  8 minutes 54.7 seconds.
 File lengths (MBytes):  RWF=     34 Int=      0 D2E=      0 Chk=      3 Scr=      1
 Normal termination of Gaussian 09 at Sun Feb  8 01:01:29 2015.
