 Entering Gaussian System, Link 0=g09
 Input=freq-fine-ClTi.gau
 Output=freq-fine-ClTi.log
 Initial command:
 /opt/g09/l1.exe "/scratch/pb556/g09_run/ticl_thermo//Gau-16015.inp" -scrdir="/scratch/pb556/g09_run/ticl_thermo//"
 Entering Link 1 = /opt/g09/l1.exe PID=     16024.
  
 Copyright (c) 1988,1990,1992,1993,1995,1998,2003,2009,2013,
            Gaussian, Inc.  All Rights Reserved.
  
 This is part of the Gaussian(R) 09 program.  It is based on
 the Gaussian(R) 03 system (copyright 2003, Gaussian, Inc.),
 the Gaussian(R) 98 system (copyright 1998, Gaussian, Inc.),
 the Gaussian(R) 94 system (copyright 1995, Gaussian, Inc.),
 the Gaussian 92(TM) system (copyright 1992, Gaussian, Inc.),
 the Gaussian 90(TM) system (copyright 1990, Gaussian, Inc.),
 the Gaussian 88(TM) system (copyright 1988, Gaussian, Inc.),
 the Gaussian 86(TM) system (copyright 1986, Carnegie Mellon
 University), and the Gaussian 82(TM) system (copyright 1983,
 Carnegie Mellon University). Gaussian is a federally registered
 trademark of Gaussian, Inc.
  
 This software contains proprietary and confidential information,
 including trade secrets, belonging to Gaussian, Inc.
  
 This software is provided under written license and may be
 used, copied, transmitted, or stored only in accord with that
 written license.
  
 The following legend is applicable only to US Government
 contracts under FAR:
  
                    RESTRICTED RIGHTS LEGEND
  
 Use, reproduction and disclosure by the US Government is
 subject to restrictions as set forth in subparagraphs (a)
 and (c) of the Commercial Computer Software - Restricted
 Rights clause in FAR 52.227-19.
  
 Gaussian, Inc.
 340 Quinnipiac St., Bldg. 40, Wallingford CT 06492
  
  
 ---------------------------------------------------------------
 Warning -- This program may not be used in any manner that
 competes with the business of Gaussian, Inc. or will provide
 assistance to any competitor of Gaussian, Inc.  The licensee
 of this program is prohibited from giving any competitor of
 Gaussian, Inc. access to this program.  By using this program,
 the user acknowledges that Gaussian, Inc. is engaged in the
 business of creating and licensing software in the field of
 computational chemistry and represents and warrants to the
 licensee that it is not a competitor of Gaussian, Inc. and that
 it will not use this program in any manner prohibited above.
 ---------------------------------------------------------------
  

 Cite this work as:
 Gaussian 09, Revision D.01,
 M. J. Frisch, G. W. Trucks, H. B. Schlegel, G. E. Scuseria, 
 M. A. Robb, J. R. Cheeseman, G. Scalmani, V. Barone, B. Mennucci, 
 G. A. Petersson, H. Nakatsuji, M. Caricato, X. Li, H. P. Hratchian, 
 A. F. Izmaylov, J. Bloino, G. Zheng, J. L. Sonnenberg, M. Hada, 
 M. Ehara, K. Toyota, R. Fukuda, J. Hasegawa, M. Ishida, T. Nakajima, 
 Y. Honda, O. Kitao, H. Nakai, T. Vreven, J. A. Montgomery, Jr., 
 J. E. Peralta, F. Ogliaro, M. Bearpark, J. J. Heyd, E. Brothers, 
 K. N. Kudin, V. N. Staroverov, T. Keith, R. Kobayashi, J. Normand, 
 K. Raghavachari, A. Rendell, J. C. Burant, S. S. Iyengar, J. Tomasi, 
 M. Cossi, N. Rega, J. M. Millam, M. Klene, J. E. Knox, J. B. Cross, 
 V. Bakken, C. Adamo, J. Jaramillo, R. Gomperts, R. E. Stratmann, 
 O. Yazyev, A. J. Austin, R. Cammi, C. Pomelli, J. W. Ochterski, 
 R. L. Martin, K. Morokuma, V. G. Zakrzewski, G. A. Voth, 
 P. Salvador, J. J. Dannenberg, S. Dapprich, A. D. Daniels, 
 O. Farkas, J. B. Foresman, J. V. Ortiz, J. Cioslowski, 
 and D. J. Fox, Gaussian, Inc., Wallingford CT, 2013.
 
 ******************************************
 Gaussian 09:  ES64L-G09RevD.01 24-Apr-2013
                11-Feb-2015 
 ******************************************
 %NProcShared=8
 Will use up to    8 processors via shared memory.
 %Mem=500MW
 ----------------------------------------------------------------------
 #p uB971/6-311+G(d,p) Opt=(Tight, CalcAll) Freq GFInput Population=Non
 e Integral(Grid=UltraFine) SCF=XQC Guess=MIX NoSymmetry
 ----------------------------------------------------------------------
 1/7=10,10=4,14=-1,18=20,19=15,26=4,38=1/1,3;
 2/9=110,12=2,15=1,17=6,18=5,40=1/2;
 3/5=4,6=6,7=111,11=2,16=1,24=10,25=1,30=1,71=2,74=-20,75=-5,116=2,140=1/1,2,3;
 4/13=-1/1;
 5/5=2,8=3,13=1,38=5/2,8;
 8/6=4,10=90,11=11/1;
 11/6=1,8=1,9=11,15=111,16=1,31=1/1,2,10;
 10/6=1,31=1/2;
 7/10=1,25=1,30=1/1,2,3,16;
 1/7=10,10=4,14=-1,18=20,19=15,26=4/3(3);
 2/9=110,15=1/2;
 7/8=1,9=1,25=1,30=1,44=-1/16;
 99//99;
 2/9=110,15=1/2;
 3/5=4,6=6,7=111,11=2,16=1,25=1,30=1,71=2,74=-20,75=-5,116=2,140=1/1,2,3;
 4/5=5,16=3,69=1/1;
 5/5=2,8=3,13=1,38=5/2,8;
 8/6=4,10=90,11=11/1;
 11/6=1,8=1,9=11,15=111,16=1,31=1/1,2,10;
 10/6=1,31=1/2;
 7/10=1,25=1,30=1/1,2,3,16;
 1/7=10,10=4,14=-1,18=20,19=15,26=4/3(-8);
 2/9=110,15=1/2;
 7/8=1,9=1,25=1,30=1,44=-1/16;
 99//99;
 Leave Link    1 at Wed Feb 11 17:51:30 2015, MaxMem=   524288000 cpu:         0.8
 (Enter /opt/g09/l101.exe)
 ---------------------------------------------------------------
 W:\Data\TiCl\esc\B971\gs\new\monomer\fine\success\fine-ClTi.g09
 ---------------------------------------------------------------
 Symbolic Z-matrix:
 Charge =  0 Multiplicity = 4
 Ti                   -6.16711  -0.35728   0.29393 
 Cl                   -6.92559   0.19807  -1.77833 
 
 NAtoms=      2 NQM=        2 NQMF=       0 NMMI=      0 NMMIF=      0
                NMic=       0 NMicF=      0.
                    Isotopes and Nuclear Properties:
 (Nuclear quadrupole moments (NQMom) in fm**2, nuclear magnetic moments (NMagM)
  in nuclear magnetons)

  Atom         1           2
 IAtWgt=          48          35
 AtmWgt=  47.9479467  34.9688527
 NucSpn=           0           3
 AtZEff=   0.0000000   0.0000000
 NQMom=    0.0000000  -8.1650000
 NMagM=    0.0000000   0.8218740
 AtZNuc=  22.0000000  17.0000000
 Leave Link  101 at Wed Feb 11 17:51:30 2015, MaxMem=   524288000 cpu:         1.8
 (Enter /opt/g09/l103.exe)

 GradGradGradGradGradGradGradGradGradGradGradGradGradGradGradGradGradGrad
 Berny optimization.
 Initialization pass.
                           ----------------------------
                           !    Initial Parameters    !
                           ! (Angstroms and Degrees)  !
 --------------------------                            --------------------------
 ! Name  Definition              Value          Derivative Info.                !
 --------------------------------------------------------------------------------
 ! R1    R(1,2)                  2.2755         calculate D2E/DX2 analytically  !
 --------------------------------------------------------------------------------
 Trust Radius=3.00D-01 FncErr=1.00D-07 GrdErr=1.00D-06
 Number of steps in this run=     20 maximum allowed number of steps=    100.
 GradGradGradGradGradGradGradGradGradGradGradGradGradGradGradGradGradGrad

 Leave Link  103 at Wed Feb 11 17:51:30 2015, MaxMem=   524288000 cpu:         0.1
 (Enter /opt/g09/l202.exe)
                          Input orientation:                          
 ---------------------------------------------------------------------
 Center     Atomic      Atomic             Coordinates (Angstroms)
 Number     Number       Type             X           Y           Z
 ---------------------------------------------------------------------
      1         22           0       -6.167110   -0.357280    0.293930
      2         17           0       -6.925590    0.198070   -1.778330
 ---------------------------------------------------------------------
 Symmetry turned off by external request.
 Stoichiometry    ClTi(4)
 Framework group  C*V[C*(ClTi)]
 Deg. of freedom     1
 Full point group                 C*V     NOp   4
 Rotational constants (GHZ):      0.0000000      4.8266860      4.8266860
 Leave Link  202 at Wed Feb 11 17:51:30 2015, MaxMem=   524288000 cpu:         0.2
 (Enter /opt/g09/l301.exe)
 Standard basis: 6-311+G(d,p) (5D, 7F)
 Ernie: Thresh=  0.10000D-02 Tol=  0.10000D-05 Strict=F.
 AO basis set in the form of general basis input (Overlap normalization):
      1 0
 S   6 1.00       0.000000000000
      0.2060820000D+06  0.5673151380D-03
      0.3122680000D+05  0.4379672866D-02
      0.7199320000D+04  0.2242029425D-01
      0.2048750000D+04  0.9063426645D-01
      0.6707900000D+03  0.2890357165D+00
      0.2436500000D+03  0.6803470061D+00
 S   1 1.00       0.000000000000
      0.9592500000D+02  0.1000000000D+01
 S   1 1.00       0.000000000000
      0.3981010000D+02  0.1000000000D+01
 S   1 1.00       0.000000000000
      0.1222050000D+02  0.1000000000D+01
 S   1 1.00       0.000000000000
      0.5008820000D+01  0.1000000000D+01
 S   1 1.00       0.000000000000
      0.1285690000D+01  0.1000000000D+01
 S   1 1.00       0.000000000000
      0.5128060000D+00  0.1000000000D+01
 S   1 1.00       0.000000000000
      0.8557600000D-01  0.1000000000D+01
 S   1 1.00       0.000000000000
      0.3330200000D-01  0.1000000000D+01
 S   1 1.00       0.000000000000
      0.9991000000D-02  0.1000000000D+01
 P   5 1.00       0.000000000000
      0.1264700000D+04  0.3122017423D-02
      0.3012300000D+03  0.2516579464D-01
      0.9697770000D+02  0.1184178291D+00
      0.3637270000D+02  0.3522190030D+00
      0.1478140000D+02  0.6219379661D+00
 P   1 1.00       0.000000000000
      0.6274650000D+01  0.1000000000D+01
 P   1 1.00       0.000000000000
      0.2478780000D+01  0.1000000000D+01
 P   1 1.00       0.000000000000
      0.1016180000D+01  0.1000000000D+01
 P   1 1.00       0.000000000000
      0.3981620000D+00  0.1000000000D+01
 P   1 1.00       0.000000000000
      0.1015610000D+00  0.1000000000D+01
 P   1 1.00       0.000000000000
      0.3405400000D-01  0.1000000000D+01
 D   3 1.00       0.000000000000
      0.2599240000D+02  0.5411706153D-01
      0.7086340000D+01  0.2873032281D+00
      0.2348710000D+01  0.7854540223D+00
 D   1 1.00       0.000000000000
      0.8001980000D+00  0.1000000000D+01
 D   1 1.00       0.000000000000
      0.2620490000D+00  0.1000000000D+01
 D   1 1.00       0.000000000000
      0.7200000000D-01  0.1000000000D+01
 F   1 1.00       0.000000000000
      0.6900000000D+00  0.1000000000D+01
 ****
      2 0
 S   6 1.00       0.000000000000
      0.1058190000D+06  0.7380002465D-03
      0.1587200000D+05  0.5718001910D-02
      0.3619650000D+04  0.2949500985D-01
      0.1030800000D+04  0.1172860392D+00
      0.3399080000D+03  0.3629491212D+00
      0.1245380000D+03  0.5841491951D+00
 S   3 1.00       0.000000000000
      0.1245380000D+03  0.1341769734D+00
      0.4951350000D+02  0.6242498762D+00
      0.2080560000D+02  0.2917559421D+00
 S   1 1.00       0.000000000000
      0.6583460000D+01  0.1000000000D+01
 S   1 1.00       0.000000000000
      0.2564680000D+01  0.1000000000D+01
 S   1 1.00       0.000000000000
      0.5597630000D+00  0.1000000000D+01
 S   1 1.00       0.000000000000
      0.1832730000D+00  0.1000000000D+01
 SP   1 1.00       0.000000000000
      0.4830000000D-01  0.1000000000D+01  0.1000000000D+01
 P   5 1.00       0.000000000000
      0.5897760000D+03  0.3665569355D-02
      0.1398490000D+03  0.2836791942D-01
      0.4514130000D+02  0.1247566028D+00
      0.1687330000D+02  0.3396546305D+00
      0.2771520000D+01  0.7475859630D+00
 P   2 1.00       0.000000000000
      0.6741100000D+01 -0.1572243813D+01
      0.2771520000D+01  0.9923888817D+00
 P   1 1.00       0.000000000000
      0.1023870000D+01  0.1000000000D+01
 P   1 1.00       0.000000000000
      0.3813680000D+00  0.1000000000D+01
 P   1 1.00       0.000000000000
      0.1094370000D+00  0.1000000000D+01
 D   1 1.00       0.000000000000
      0.7500000000D+00  0.1000000000D+01
 ****

    88 basis functions,   147 primitive gaussians,    96 cartesian basis functions
    21 alpha electrons       18 beta electrons
       nuclear repulsion energy        86.9747306417 Hartrees.
 IExCor= 1614 DFT=T Ex+Corr=B971 ExCW=0 ScaHFX=  0.210000
 ScaDFX=  1.000000  1.000000  1.000000  1.000000 ScalE2=  1.000000  1.000000
 IRadAn=      5 IRanWt=     -1 IRanGd=            0 ICorTp=0 IEmpDi=  4
 NAtoms=    2 NActive=    2 NUniq=    2 SFac= 1.00D+00 NAtFMM=   60 NAOKFM=F Big=F
 Integral buffers will be    131072 words long.
 Raffenetti 2 integral format.
 Two-electron integral symmetry is turned off.
 Leave Link  301 at Wed Feb 11 17:51:30 2015, MaxMem=   524288000 cpu:         0.4
 (Enter /opt/g09/l302.exe)
 NPDir=0 NMtPBC=     1 NCelOv=     1 NCel=       1 NClECP=     1 NCelD=      1
         NCelK=      1 NCelE2=     1 NClLst=     1 CellRange=     0.0.
 One-electron integrals computed using PRISM.
 NBasis=    88 RedAO= T EigKep=  3.12D-03  NBF=    88
 NBsUse=    88 1.00D-06 EigRej= -1.00D+00 NBFU=    88
 Precomputing XC quadrature grid using
 IXCGrd= 4 IRadAn=           5 IRanWt=          -1 IRanGd=           0 AccXCQ= 0.00D+00.
 Generated NRdTot=       0 NPtTot=           0 NUsed=           0 NTot=          32
 NSgBfM=    92    92    92    92    93 MxSgAt=     2 MxSgA2=     2.
 Leave Link  302 at Wed Feb 11 17:51:30 2015, MaxMem=   524288000 cpu:         1.9
 (Enter /opt/g09/l303.exe)
 DipDrv:  MaxL=1.
 Leave Link  303 at Wed Feb 11 17:51:31 2015, MaxMem=   524288000 cpu:         0.4
 (Enter /opt/g09/l401.exe)
 ExpMin= 9.99D-03 ExpMax= 2.06D+05 ExpMxC= 7.20D+03 IAcc=3 IRadAn=         5 AccDes= 0.00D+00
 Harris functional with IExCor= 1614 and IRadAn=       5 diagonalized for initial guess.
 HarFok:  IExCor= 1614 AccDes= 0.00D+00 IRadAn=         5 IDoV= 1 UseB2=F ITyADJ=14
 ICtDFT=  3500011 ScaDFX=  1.000000  1.000000  1.000000  1.000000
 FoFCou: FMM=F IPFlag=           0 FMFlag=      100000 FMFlg1=           0
         NFxFlg=           0 DoJE=T BraDBF=F KetDBF=T FulRan=T
         wScrn=  0.000000 ICntrl=     500 IOpCl=  0 I1Cent=   200000004 NGrid=           0
         NMat0=    1 NMatS0=      1 NMatT0=    0 NMatD0=    1 NMtDS0=    0 NMtDT0=    0
 Symmetry not used in FoFCou.
 Harris En= -1295.11125574948    
 JPrj=0 DoOrth=F DoCkMO=T.
 Mixing orbitals, IMix= 1 IMixAn=  0 NRI=1 NE=   21 Coef=  7.07106781D-01  7.07106781D-01
 Mixing orbitals, IMix= 1 IMixAn=  0 NRI=1 NE=   18 Coef= -7.07106781D-01  7.07106781D-01
 Initial guess <Sx>= 0.0000 <Sy>= 0.0000 <Sz>= 1.5000 <S**2>= 3.7500 S= 1.5000
 Leave Link  401 at Wed Feb 11 17:51:31 2015, MaxMem=   524288000 cpu:         2.1
 (Enter /opt/g09/l502.exe)
 UHF open shell SCF:
 Using DIIS extrapolation, IDIIS=  1040.
 Two-electron integral symmetry not used.
 Keep R1 and R2 ints in memory in canonical form, NReq=17348952.
 IVT=       34938 IEndB=       34938 NGot=   524288000 MDV=   508914091
 LenX=   508914091 LenY=   508904434
 Requested convergence on RMS density matrix=1.00D-08 within  64 cycles.
 Requested convergence on MAX density matrix=1.00D-06.
 Requested convergence on             energy=1.00D-06.
 No special actions if energy rises.
 FoFCou: FMM=F IPFlag=           0 FMFlag=           0 FMFlg1=           0
         NFxFlg=           0 DoJE=F BraDBF=F KetDBF=F FulRan=T
         wScrn=  0.000000 ICntrl=     600 IOpCl=  0 I1Cent=           0 NGrid=           0
         NMat0=    1 NMatS0=   3916 NMatT0=    0 NMatD0=    1 NMtDS0=    0 NMtDT0=    0
 Symmetry not used in FoFCou.

 Cycle   1  Pass 1  IDiag  1:
 E= -1308.54743293079    
 DIIS: error= 2.53D-01 at cycle   1 NSaved=   1.
 NSaved= 1 IEnMin= 1 EnMin= -1308.54743293079     IErMin= 1 ErrMin= 2.53D-01
 ErrMax= 2.53D-01  0.00D+00 EMaxC= 1.00D-01 BMatC= 1.44D+01 BMatP= 1.44D+01
 IDIUse=3 WtCom= 0.00D+00 WtEn= 1.00D+00
 Coeff-Com:  0.100D+01
 Coeff-En:   0.100D+01
 Coeff:      0.100D+01
 Gap=     0.050 Goal=   None    Shift=    0.000
 Gap=     0.032 Goal=   None    Shift=    0.000
 GapD=    0.032 DampG=0.250 DampE=0.125 DampFc=0.1250 IDamp=-1.
 Damping current iteration by 1.25D-01
 RMSDP=2.09D-02 MaxDP=4.61D-01              OVMax= 9.96D-01

 Cycle   2  Pass 1  IDiag  1:
 E= -1308.67865303105     Delta-E=       -0.131220100259 Rises=F Damp=T
 DIIS: error= 2.17D-01 at cycle   2 NSaved=   2.
 NSaved= 2 IEnMin= 2 EnMin= -1308.67865303105     IErMin= 2 ErrMin= 2.17D-01
 ErrMax= 2.17D-01  0.00D+00 EMaxC= 1.00D-01 BMatC= 9.02D+00 BMatP= 1.44D+01
 IDIUse=3 WtCom= 0.00D+00 WtEn= 1.00D+00
 Coeff-Com: -0.162D+01 0.262D+01
 Coeff-En:   0.206D+00 0.794D+00
 Coeff:      0.206D+00 0.794D+00
 Gap=    -0.036 Goal=   None    Shift=    0.000
 Gap=     0.000 Goal=   None    Shift=    0.000
 RMSDP=1.50D-02 MaxDP=4.09D-01 DE=-1.31D-01 OVMax= 9.90D-01

 Cycle   3  Pass 1  IDiag  1:
 E= -1308.90992298764     Delta-E=       -0.231269956593 Rises=F Damp=F
 DIIS: error= 1.01D-01 at cycle   3 NSaved=   3.
 NSaved= 3 IEnMin= 3 EnMin= -1308.90992298764     IErMin= 3 ErrMin= 1.01D-01
 ErrMax= 1.01D-01  0.00D+00 EMaxC= 1.00D-01 BMatC= 3.74D+00 BMatP= 9.02D+00
 IDIUse=3 WtCom= 0.00D+00 WtEn= 1.00D+00
 EnCoef did   100 forward-backward iterations
 Coeff-Com:  0.348D+00-0.523D-01 0.705D+00
 Coeff-En:   0.387D+00 0.976D-02 0.603D+00
 Coeff:      0.387D+00 0.976D-02 0.603D+00
 Gap=     0.102 Goal=   None    Shift=    0.000
 Gap=     0.211 Goal=   None    Shift=    0.000
 RMSDP=8.69D-03 MaxDP=2.23D-01 DE=-2.31D-01 OVMax= 4.36D-01

 Cycle   4  Pass 1  IDiag  1:
 E= -1309.46786590176     Delta-E=       -0.557942914121 Rises=F Damp=F
 DIIS: error= 1.41D-02 at cycle   4 NSaved=   4.
 NSaved= 4 IEnMin= 4 EnMin= -1309.46786590176     IErMin= 4 ErrMin= 1.41D-02
 ErrMax= 1.41D-02  0.00D+00 EMaxC= 1.00D-01 BMatC= 1.16D-01 BMatP= 3.74D+00
 IDIUse=3 WtCom= 8.59D-01 WtEn= 1.41D-01
 Coeff-Com:  0.253D+00-0.274D+00 0.154D+00 0.868D+00
 Coeff-En:   0.000D+00 0.000D+00 0.000D+00 0.100D+01
 Coeff:      0.217D+00-0.236D+00 0.132D+00 0.886D+00
 Gap=     0.068 Goal=   None    Shift=    0.000
 Gap=     0.235 Goal=   None    Shift=    0.000
 RMSDP=2.78D-03 MaxDP=5.56D-02 DE=-5.58D-01 OVMax= 2.08D-01

 Cycle   5  Pass 1  IDiag  1:
 E= -1309.49965665708     Delta-E=       -0.031790755320 Rises=F Damp=F
 DIIS: error= 9.98D-03 at cycle   5 NSaved=   5.
 NSaved= 5 IEnMin= 5 EnMin= -1309.49965665708     IErMin= 5 ErrMin= 9.98D-03
 ErrMax= 9.98D-03  0.00D+00 EMaxC= 1.00D-01 BMatC= 2.32D-02 BMatP= 1.16D-01
 IDIUse=3 WtCom= 9.00D-01 WtEn= 9.98D-02
 Coeff-Com: -0.247D-01 0.371D-01 0.369D-01 0.242D+00 0.708D+00
 Coeff-En:   0.000D+00 0.000D+00 0.000D+00 0.000D+00 0.100D+01
 Coeff:     -0.222D-01 0.334D-01 0.332D-01 0.218D+00 0.737D+00
 Gap=     0.087 Goal=   None    Shift=    0.000
 Gap=     0.236 Goal=   None    Shift=    0.000
 RMSDP=1.07D-03 MaxDP=6.47D-02 DE=-3.18D-02 OVMax= 7.10D-02

 Cycle   6  Pass 1  IDiag  1:
 E= -1309.50506547304     Delta-E=       -0.005408815958 Rises=F Damp=F
 DIIS: error= 5.43D-03 at cycle   6 NSaved=   6.
 NSaved= 6 IEnMin= 6 EnMin= -1309.50506547304     IErMin= 6 ErrMin= 5.43D-03
 ErrMax= 5.43D-03  0.00D+00 EMaxC= 1.00D-01 BMatC= 3.84D-03 BMatP= 2.32D-02
 IDIUse=3 WtCom= 9.46D-01 WtEn= 5.43D-02
 Coeff-Com: -0.182D-01 0.248D-01 0.208D-01 0.596D-01-0.198D-01 0.933D+00
 Coeff-En:   0.000D+00 0.000D+00 0.000D+00 0.000D+00 0.000D+00 0.100D+01
 Coeff:     -0.172D-01 0.234D-01 0.196D-01 0.564D-01-0.187D-01 0.937D+00
 Gap=     0.090 Goal=   None    Shift=    0.000
 Gap=     0.234 Goal=   None    Shift=    0.000
 RMSDP=7.11D-04 MaxDP=4.40D-02 DE=-5.41D-03 OVMax= 6.75D-02

 Cycle   7  Pass 1  IDiag  1:
 E= -1309.50677200168     Delta-E=       -0.001706528641 Rises=F Damp=F
 DIIS: error= 3.03D-03 at cycle   7 NSaved=   7.
 NSaved= 7 IEnMin= 7 EnMin= -1309.50677200168     IErMin= 7 ErrMin= 3.03D-03
 ErrMax= 3.03D-03  0.00D+00 EMaxC= 1.00D-01 BMatC= 1.43D-03 BMatP= 3.84D-03
 IDIUse=3 WtCom= 9.70D-01 WtEn= 3.03D-02
 Coeff-Com: -0.371D-02 0.528D-02 0.804D-02-0.950D-02-0.226D+00 0.129D+00
 Coeff-Com:  0.110D+01
 Coeff-En:   0.000D+00 0.000D+00 0.000D+00 0.000D+00 0.000D+00 0.000D+00
 Coeff-En:   0.100D+01
 Coeff:     -0.359D-02 0.512D-02 0.780D-02-0.921D-02-0.219D+00 0.125D+00
 Coeff:      0.109D+01
 Gap=     0.095 Goal=   None    Shift=    0.000
 Gap=     0.234 Goal=   None    Shift=    0.000
 RMSDP=7.41D-04 MaxDP=4.41D-02 DE=-1.71D-03 OVMax= 6.98D-02

 Cycle   8  Pass 1  IDiag  1:
 E= -1309.50802189341     Delta-E=       -0.001249891726 Rises=F Damp=F
 DIIS: error= 6.17D-04 at cycle   8 NSaved=   8.
 NSaved= 8 IEnMin= 8 EnMin= -1309.50802189341     IErMin= 8 ErrMin= 6.17D-04
 ErrMax= 6.17D-04  0.00D+00 EMaxC= 1.00D-01 BMatC= 1.15D-04 BMatP= 1.43D-03
 IDIUse=3 WtCom= 9.94D-01 WtEn= 6.17D-03
 Coeff-Com:  0.944D-03-0.118D-02 0.331D-03-0.765D-02-0.287D-01-0.125D+00
 Coeff-Com:  0.170D+00 0.991D+00
 Coeff-En:   0.000D+00 0.000D+00 0.000D+00 0.000D+00 0.000D+00 0.000D+00
 Coeff-En:   0.000D+00 0.100D+01
 Coeff:      0.938D-03-0.117D-02 0.329D-03-0.760D-02-0.285D-01-0.124D+00
 Coeff:      0.169D+00 0.991D+00
 Gap=     0.097 Goal=   None    Shift=    0.000
 Gap=     0.235 Goal=   None    Shift=    0.000
 RMSDP=4.45D-04 MaxDP=1.57D-02 DE=-1.25D-03 OVMax= 4.96D-02

 Cycle   9  Pass 1  IDiag  1:
 E= -1309.50855153145     Delta-E=       -0.000529638042 Rises=F Damp=F
 DIIS: error= 5.75D-04 at cycle   9 NSaved=   9.
 NSaved= 9 IEnMin= 9 EnMin= -1309.50855153145     IErMin= 9 ErrMin= 5.75D-04
 ErrMax= 5.75D-04  0.00D+00 EMaxC= 1.00D-01 BMatC= 9.39D-05 BMatP= 1.15D-04
 IDIUse=3 WtCom= 9.94D-01 WtEn= 5.75D-03
 Coeff-Com: -0.916D-03 0.133D-02 0.575D-03 0.140D-01 0.585D-01 0.401D-01
 Coeff-Com: -0.534D+00-0.647D+00 0.207D+01
 Coeff-En:   0.000D+00 0.000D+00 0.000D+00 0.000D+00 0.000D+00 0.000D+00
 Coeff-En:   0.000D+00 0.000D+00 0.100D+01
 Coeff:     -0.910D-03 0.132D-02 0.571D-03 0.139D-01 0.582D-01 0.399D-01
 Coeff:     -0.531D+00-0.643D+00 0.206D+01
 Gap=     0.098 Goal=   None    Shift=    0.000
 Gap=     0.237 Goal=   None    Shift=    0.000
 RMSDP=7.46D-04 MaxDP=2.09D-02 DE=-5.30D-04 OVMax= 7.96D-02

 Cycle  10  Pass 1  IDiag  1:
 E= -1309.50917034665     Delta-E=       -0.000618815204 Rises=F Damp=F
 DIIS: error= 4.31D-04 at cycle  10 NSaved=  10.
 NSaved=10 IEnMin=10 EnMin= -1309.50917034665     IErMin=10 ErrMin= 4.31D-04
 ErrMax= 4.31D-04  0.00D+00 EMaxC= 1.00D-01 BMatC= 2.08D-05 BMatP= 9.39D-05
 IDIUse=3 WtCom= 9.96D-01 WtEn= 4.31D-03
 Coeff-Com: -0.103D-02 0.126D-02-0.961D-05 0.677D-02 0.179D-01 0.350D-01
 Coeff-Com: -0.133D-01-0.269D+00-0.125D+00 0.135D+01
 Coeff-En:   0.000D+00 0.000D+00 0.000D+00 0.000D+00 0.000D+00 0.000D+00
 Coeff-En:   0.000D+00 0.000D+00 0.000D+00 0.100D+01
 Coeff:     -0.103D-02 0.126D-02-0.957D-05 0.674D-02 0.179D-01 0.349D-01
 Coeff:     -0.132D-01-0.268D+00-0.124D+00 0.135D+01
 Gap=     0.099 Goal=   None    Shift=    0.000
 Gap=     0.236 Goal=   None    Shift=    0.000
 RMSDP=3.44D-04 MaxDP=6.65D-03 DE=-6.19D-04 OVMax= 3.37D-02

 Cycle  11  Pass 1  IDiag  1:
 E= -1309.50936171763     Delta-E=       -0.000191370978 Rises=F Damp=F
 DIIS: error= 4.02D-04 at cycle  11 NSaved=  11.
 NSaved=11 IEnMin=11 EnMin= -1309.50936171763     IErMin=11 ErrMin= 4.02D-04
 ErrMax= 4.02D-04  0.00D+00 EMaxC= 1.00D-01 BMatC= 1.17D-05 BMatP= 2.08D-05
 IDIUse=3 WtCom= 9.96D-01 WtEn= 4.02D-03
 Coeff-Com: -0.444D-03 0.489D-03-0.330D-04-0.193D-02-0.989D-02-0.149D-01
 Coeff-Com:  0.158D+00 0.135D+00-0.641D+00 0.297D+00 0.108D+01
 Coeff-En:   0.000D+00 0.000D+00 0.000D+00 0.000D+00 0.000D+00 0.000D+00
 Coeff-En:   0.000D+00 0.000D+00 0.000D+00 0.000D+00 0.100D+01
 Coeff:     -0.442D-03 0.487D-03-0.328D-04-0.192D-02-0.985D-02-0.148D-01
 Coeff:      0.157D+00 0.135D+00-0.639D+00 0.296D+00 0.108D+01
 Gap=     0.099 Goal=   None    Shift=    0.000
 Gap=     0.236 Goal=   None    Shift=    0.000
 RMSDP=1.88D-04 MaxDP=2.87D-03 DE=-1.91D-04 OVMax= 2.19D-02

 Cycle  12  Pass 1  IDiag  1:
 E= -1309.50945691812     Delta-E=       -0.000095200492 Rises=F Damp=F
 DIIS: error= 3.90D-04 at cycle  12 NSaved=  12.
 NSaved=12 IEnMin=12 EnMin= -1309.50945691812     IErMin=12 ErrMin= 3.90D-04
 ErrMax= 3.90D-04  0.00D+00 EMaxC= 1.00D-01 BMatC= 8.63D-06 BMatP= 1.17D-05
 IDIUse=3 WtCom= 9.96D-01 WtEn= 3.90D-03
 Coeff-Com:  0.103D-03-0.135D-03-0.106D-04-0.228D-02-0.666D-02-0.129D-01
 Coeff-Com:  0.277D-01 0.766D-01-0.349D-01-0.349D+00 0.419D-01 0.126D+01
 Coeff-En:   0.000D+00 0.000D+00 0.000D+00 0.000D+00 0.000D+00 0.000D+00
 Coeff-En:   0.000D+00 0.000D+00 0.000D+00 0.000D+00 0.000D+00 0.100D+01
 Coeff:      0.102D-03-0.134D-03-0.106D-04-0.227D-02-0.664D-02-0.129D-01
 Coeff:      0.275D-01 0.763D-01-0.348D-01-0.347D+00 0.417D-01 0.126D+01
 Gap=     0.100 Goal=   None    Shift=    0.000
 Gap=     0.236 Goal=   None    Shift=    0.000
 RMSDP=1.57D-04 MaxDP=2.21D-03 DE=-9.52D-05 OVMax= 2.05D-02

 Cycle  13  Pass 1  IDiag  1:
 E= -1309.50954255814     Delta-E=       -0.000085640020 Rises=F Damp=F
 DIIS: error= 3.85D-04 at cycle  13 NSaved=  13.
 NSaved=13 IEnMin=13 EnMin= -1309.50954255814     IErMin=13 ErrMin= 3.85D-04
 ErrMax= 3.85D-04  0.00D+00 EMaxC= 1.00D-01 BMatC= 9.01D-06 BMatP= 8.63D-06
 IDIUse=3 WtCom= 9.96D-01 WtEn= 3.85D-03
 Coeff-Com:  0.960D-04-0.131D-03-0.797D-04-0.159D-02-0.488D-02-0.438D-02
 Coeff-Com:  0.289D-01 0.475D-01-0.424D-01-0.188D+00-0.482D-02 0.645D+00
 Coeff-Com:  0.525D+00
 Coeff-En:   0.000D+00 0.000D+00 0.000D+00 0.000D+00 0.000D+00 0.000D+00
 Coeff-En:   0.000D+00 0.000D+00 0.000D+00 0.000D+00 0.000D+00 0.000D+00
 Coeff-En:   0.100D+01
 Coeff:      0.957D-04-0.131D-03-0.794D-04-0.159D-02-0.486D-02-0.436D-02
 Coeff:      0.288D-01 0.473D-01-0.422D-01-0.187D+00-0.480D-02 0.643D+00
 Coeff:      0.527D+00
 Gap=     0.100 Goal=   None    Shift=    0.000
 Gap=     0.236 Goal=   None    Shift=    0.000
 RMSDP=4.86D-05 MaxDP=7.10D-04 DE=-8.56D-05 OVMax= 5.66D-03

 Cycle  14  Pass 1  IDiag  1:
 E= -1309.50957109118     Delta-E=       -0.000028533038 Rises=F Damp=F
 DIIS: error= 3.89D-04 at cycle  14 NSaved=  14.
 NSaved=14 IEnMin=14 EnMin= -1309.50957109118     IErMin=13 ErrMin= 3.85D-04
 ErrMax= 3.89D-04  0.00D+00 EMaxC= 1.00D-01 BMatC= 8.55D-06 BMatP= 8.63D-06
 IDIUse=3 WtCom= 9.96D-01 WtEn= 3.85D-03
 Coeff-Com:  0.193D-03-0.247D-03-0.308D-03-0.365D-03-0.400D-04 0.104D-01
 Coeff-Com: -0.580D-02 0.295D-02 0.240D+00-0.525D+00-0.436D+00 0.128D+01
 Coeff-Com:  0.520D+01-0.476D+01
 Coeff-En:   0.000D+00 0.000D+00 0.000D+00 0.000D+00 0.000D+00 0.000D+00
 Coeff-En:   0.000D+00 0.000D+00 0.000D+00 0.000D+00 0.000D+00 0.000D+00
 Coeff-En:   0.000D+00 0.100D+01
 Coeff:      0.192D-03-0.246D-03-0.307D-03-0.364D-03-0.398D-04 0.103D-01
 Coeff:     -0.577D-02 0.294D-02 0.239D+00-0.523D+00-0.435D+00 0.127D+01
 Coeff:      0.518D+01-0.474D+01
 Gap=     0.100 Goal=   None    Shift=    0.000
 Gap=     0.236 Goal=   None    Shift=    0.000
 RMSDP=1.93D-04 MaxDP=2.68D-03 DE=-2.85D-05 OVMax= 2.28D-02

 Cycle  15  Pass 1  IDiag  1:
 E= -1309.50945907849     Delta-E=        0.000112012688 Rises=F Damp=F
 DIIS: error= 3.67D-04 at cycle  15 NSaved=  15.
 NSaved=15 IEnMin=14 EnMin= -1309.50957109118     IErMin=15 ErrMin= 3.67D-04
 ErrMax= 3.67D-04  0.00D+00 EMaxC= 1.00D-01 BMatC= 8.44D-06 BMatP= 8.55D-06
 IDIUse=3 WtCom= 9.96D-01 WtEn= 3.67D-03
 Rare condition: small coef for last iteration:  0.000D+00
 Coeff-Com: -0.202D-03 0.257D-03 0.480D-04 0.247D-02 0.115D-01 0.489D-02
 Coeff-Com:  0.605D-02 0.139D-02-0.158D+00 0.581D+00-0.488D+00-0.191D+01
 Coeff-Com:  0.608D+01-0.663D+01 0.349D+01
 Coeff-En:   0.000D+00 0.000D+00 0.000D+00 0.000D+00 0.000D+00 0.000D+00
 Coeff-En:   0.000D+00 0.000D+00 0.000D+00 0.000D+00 0.000D+00 0.000D+00
 Coeff-En:   0.000D+00 0.000D+00 0.100D+01
 Coeff:     -0.202D-03 0.257D-03 0.480D-04 0.247D-02 0.115D-01 0.489D-02
 Coeff:      0.605D-02 0.139D-02-0.158D+00 0.581D+00-0.488D+00-0.191D+01
 Coeff:      0.608D+01-0.663D+01 0.349D+01
 Gap=     0.100 Goal=   None    Shift=    0.000
 Gap=     0.236 Goal=   None    Shift=    0.000
 RMSDP=4.05D-04 MaxDP=5.28D-03 DE= 1.12D-04 OVMax= 5.11D-02

 Cycle  16  Pass 1  IDiag  1:
 E= -1309.50926795560     Delta-E=        0.000191122897 Rises=F Damp=F
 DIIS: error= 3.04D-04 at cycle  16 NSaved=  16.
 NSaved=16 IEnMin=14 EnMin= -1309.50957109118     IErMin=16 ErrMin= 3.04D-04
 ErrMax= 3.04D-04  0.00D+00 EMaxC= 1.00D-01 BMatC= 6.05D-06 BMatP= 8.44D-06
 IDIUse=3 WtCom= 9.97D-01 WtEn= 3.04D-03
 Rare condition: small coef for last iteration:  0.000D+00
 Coeff-Com: -0.449D-03 0.493D-03-0.363D-04-0.744D-03-0.107D-01-0.242D-02
 Coeff-Com:  0.106D+00 0.228D+00-0.481D+00 0.183D+00 0.755D-01-0.700D+00
 Coeff-Com:  0.948D+00-0.103D+01-0.570D+00 0.226D+01
 Coeff-En:   0.000D+00 0.000D+00 0.000D+00 0.000D+00 0.000D+00 0.000D+00
 Coeff-En:   0.000D+00 0.000D+00 0.000D+00 0.000D+00 0.000D+00 0.000D+00
 Coeff-En:   0.000D+00 0.000D+00 0.000D+00 0.100D+01
 Coeff:     -0.449D-03 0.493D-03-0.363D-04-0.744D-03-0.107D-01-0.242D-02
 Coeff:      0.106D+00 0.228D+00-0.481D+00 0.183D+00 0.755D-01-0.700D+00
 Coeff:      0.948D+00-0.103D+01-0.570D+00 0.226D+01
 Gap=     0.100 Goal=   None    Shift=    0.000
 Gap=     0.236 Goal=   None    Shift=    0.000
 RMSDP=5.52D-04 MaxDP=7.41D-03 DE= 1.91D-04 OVMax= 7.28D-02

 Cycle  17  Pass 1  IDiag  1:
 E= -1309.50908907840     Delta-E=        0.000178877194 Rises=F Damp=F
 DIIS: error= 1.95D-04 at cycle  17 NSaved=  17.
 NSaved=17 IEnMin=14 EnMin= -1309.50957109118     IErMin=17 ErrMin= 1.95D-04
 ErrMax= 1.95D-04  0.00D+00 EMaxC= 1.00D-01 BMatC= 7.57D-06 BMatP= 6.05D-06
 IDIUse=3 WtCom= 9.97D-01 WtEn= 3.04D-03
 Rare condition: small coef for last iteration:  0.000D+00
 Coeff-Com: -0.376D-03 0.406D-03-0.561D-04-0.191D-02-0.122D-01-0.323D-02
 Coeff-Com:  0.101D+00 0.203D+00-0.408D+00 0.354D-01 0.733D-01-0.798D-01
 Coeff-Com:  0.136D+01-0.116D+01-0.775D+00 0.111D+01 0.563D+00
 Coeff-En:   0.000D+00 0.000D+00 0.000D+00 0.000D+00 0.000D+00 0.000D+00
 Coeff-En:   0.000D+00 0.000D+00 0.000D+00 0.000D+00 0.000D+00 0.000D+00
 Coeff-En:   0.000D+00 0.000D+00 0.000D+00 0.000D+00 0.100D+01
 Coeff:     -0.376D-03 0.406D-03-0.561D-04-0.191D-02-0.122D-01-0.323D-02
 Coeff:      0.101D+00 0.203D+00-0.408D+00 0.354D-01 0.733D-01-0.798D-01
 Coeff:      0.136D+01-0.116D+01-0.775D+00 0.111D+01 0.563D+00
 Gap=     0.100 Goal=   None    Shift=    0.000
 Gap=     0.236 Goal=   None    Shift=    0.000
 RMSDP=2.00D-05 MaxDP=3.59D-04 DE= 1.79D-04 OVMax= 2.37D-03

 Cycle  18  Pass 1  IDiag  1:
 E= -1309.50908852790     Delta-E=        0.000000550504 Rises=F Damp=F
 DIIS: error= 1.86D-04 at cycle  18 NSaved=  18.
 NSaved=18 IEnMin=14 EnMin= -1309.50957109118     IErMin=18 ErrMin= 1.86D-04
 ErrMax= 1.86D-04  0.00D+00 EMaxC= 1.00D-01 BMatC= 5.59D-06 BMatP= 6.05D-06
 IDIUse=3 WtCom= 9.98D-01 WtEn= 1.86D-03
 Rare condition: small coef for last iteration:  0.000D+00
 Coeff-Com: -0.171D-03 0.202D-03 0.167D-04-0.866D-04-0.162D-02 0.587D-03
 Coeff-Com: -0.202D-01-0.185D-01-0.398D-01 0.283D+00-0.416D-01-0.539D+00
 Coeff-Com: -0.756D+00 0.220D+01-0.159D+01-0.601D+00-0.146D+01 0.358D+01
 Coeff-En:   0.000D+00 0.000D+00 0.000D+00 0.000D+00 0.000D+00 0.000D+00
 Coeff-En:   0.000D+00 0.000D+00 0.000D+00 0.000D+00 0.000D+00 0.000D+00
 Coeff-En:   0.000D+00 0.000D+00 0.000D+00 0.000D+00 0.000D+00 0.100D+01
 Coeff:     -0.171D-03 0.202D-03 0.167D-04-0.866D-04-0.162D-02 0.587D-03
 Coeff:     -0.202D-01-0.185D-01-0.398D-01 0.283D+00-0.416D-01-0.539D+00
 Coeff:     -0.756D+00 0.220D+01-0.159D+01-0.601D+00-0.146D+01 0.358D+01
 Gap=     0.101 Goal=   None    Shift=    0.000
 Gap=     0.236 Goal=   None    Shift=    0.000
 RMSDP=6.03D-04 MaxDP=7.59D-03 DE= 5.51D-07 OVMax= 8.09D-02

 Cycle  19  Pass 1  IDiag  1:
 E= -1309.50902459619     Delta-E=        0.000063931710 Rises=F Damp=F
 DIIS: error= 2.19D-04 at cycle  19 NSaved=  19.
 NSaved=19 IEnMin=14 EnMin= -1309.50957109118     IErMin=18 ErrMin= 1.86D-04
 ErrMax= 2.19D-04  0.00D+00 EMaxC= 1.00D-01 BMatC= 7.13D-06 BMatP= 5.59D-06
 IDIUse=3 WtCom= 9.98D-01 WtEn= 1.86D-03
 Rare condition: small coef for last iteration:  0.000D+00
 Coeff-Com: -0.600D-05-0.262D-05-0.340D-04-0.359D-03-0.791D-03 0.432D-02
 Coeff-Com:  0.202D-02-0.324D-01-0.713D-01 0.309D+00 0.963D-02-0.730D+00
 Coeff-Com: -0.346D+00 0.718D+00 0.193D-01-0.493D+00-0.160D+01 0.272D+01
 Coeff-Com:  0.496D+00
 Coeff-En:   0.000D+00 0.000D+00 0.000D+00 0.000D+00 0.000D+00 0.000D+00
 Coeff-En:   0.000D+00 0.000D+00 0.000D+00 0.000D+00 0.000D+00 0.000D+00
 Coeff-En:   0.000D+00 0.000D+00 0.000D+00 0.000D+00 0.000D+00 0.000D+00
 Coeff-En:   0.100D+01
 Coeff:     -0.600D-05-0.262D-05-0.340D-04-0.359D-03-0.791D-03 0.432D-02
 Coeff:      0.202D-02-0.324D-01-0.713D-01 0.309D+00 0.963D-02-0.730D+00
 Coeff:     -0.346D+00 0.718D+00 0.193D-01-0.493D+00-0.160D+01 0.272D+01
 Coeff:      0.496D+00
 Gap=     0.101 Goal=   None    Shift=    0.000
 Gap=     0.236 Goal=   None    Shift=    0.000
 RMSDP=7.16D-05 MaxDP=9.26D-04 DE= 6.39D-05 OVMax= 9.24D-03

 Cycle  20  Pass 1  IDiag  1:
 E= -1309.50902512963     Delta-E=       -0.000000533444 Rises=F Damp=F
 DIIS: error= 1.85D-04 at cycle  20 NSaved=  20.
 NSaved=20 IEnMin=14 EnMin= -1309.50957109118     IErMin=20 ErrMin= 1.85D-04
 ErrMax= 1.85D-04  0.00D+00 EMaxC= 1.00D-01 BMatC= 4.73D-06 BMatP= 5.59D-06
 IDIUse=3 WtCom= 9.98D-01 WtEn= 1.85D-03
 Coeff-Com:  0.250D-04-0.293D-04 0.862D-05-0.202D-03 0.501D-03 0.489D-02
 Coeff-Com: -0.517D-02-0.172D-01-0.623D-03 0.760D-01-0.275D-01-0.312D+00
 Coeff-Com: -0.233D+00 0.344D+00 0.138D+00-0.144D+00-0.124D+01 0.167D+01
 Coeff-Com: -0.994D+00 0.174D+01
 Coeff-En:   0.000D+00 0.000D+00 0.000D+00 0.000D+00 0.000D+00 0.000D+00
 Coeff-En:   0.000D+00 0.000D+00 0.000D+00 0.000D+00 0.000D+00 0.000D+00
 Coeff-En:   0.000D+00 0.000D+00 0.000D+00 0.000D+00 0.000D+00 0.000D+00
 Coeff-En:   0.000D+00 0.100D+01
 Coeff:      0.249D-04-0.293D-04 0.861D-05-0.201D-03 0.500D-03 0.489D-02
 Coeff:     -0.516D-02-0.172D-01-0.622D-03 0.759D-01-0.275D-01-0.312D+00
 Coeff:     -0.232D+00 0.343D+00 0.138D+00-0.143D+00-0.123D+01 0.167D+01
 Coeff:     -0.992D+00 0.173D+01
 Gap=     0.101 Goal=   None    Shift=    0.000
 Gap=     0.236 Goal=   None    Shift=    0.000
 RMSDP=2.52D-05 MaxDP=6.10D-04 DE=-5.33D-07 OVMax= 2.54D-03

 Cycle  21  Pass 1  IDiag  1:
 E= -1309.50902737492     Delta-E=       -0.000002245287 Rises=F Damp=F
 DIIS: error= 3.79D-05 at cycle  21 NSaved=  20.
 NSaved=20 IEnMin=13 EnMin= -1309.50957109118     IErMin=20 ErrMin= 3.79D-05
 ErrMax= 3.79D-05  0.00D+00 EMaxC= 1.00D-01 BMatC= 3.51D-07 BMatP= 4.73D-06
 IDIUse=1 WtCom= 1.00D+00 WtEn= 0.00D+00
 Coeff-Com: -0.331D-05-0.117D-04 0.252D-05-0.545D-03-0.518D-03 0.183D-03
 Coeff-Com:  0.410D-02 0.205D-02-0.234D-01 0.245D-01-0.449D-01-0.532D+00
 Coeff-Com:  0.672D+00-0.198D+00 0.313D+00 0.269D+00-0.544D+00-0.361D+00
 Coeff-Com: -0.731D-01 0.149D+01
 Coeff:     -0.331D-05-0.117D-04 0.252D-05-0.545D-03-0.518D-03 0.183D-03
 Coeff:      0.410D-02 0.205D-02-0.234D-01 0.245D-01-0.449D-01-0.532D+00
 Coeff:      0.672D+00-0.198D+00 0.313D+00 0.269D+00-0.544D+00-0.361D+00
 Coeff:     -0.731D-01 0.149D+01
 Gap=     0.100 Goal=   None    Shift=    0.000
 Gap=     0.236 Goal=   None    Shift=    0.000
 RMSDP=6.91D-05 MaxDP=8.97D-04 DE=-2.25D-06 OVMax= 7.88D-03

 Cycle  22  Pass 1  IDiag  1:
 E= -1309.50902810340     Delta-E=       -0.000000728475 Rises=F Damp=F
 DIIS: error= 8.51D-05 at cycle  22 NSaved=  20.
 NSaved=20 IEnMin=12 EnMin= -1309.50957109118     IErMin=19 ErrMin= 3.79D-05
 ErrMax= 8.51D-05  0.00D+00 EMaxC= 1.00D-01 BMatC= 8.41D-07 BMatP= 3.51D-07
 IDIUse=1 WtCom= 1.00D+00 WtEn= 0.00D+00
 Coeff-Com: -0.353D-05-0.779D-04-0.285D-03-0.441D-03-0.116D-02 0.511D-02
 Coeff-Com:  0.571D-02-0.399D-01 0.328D-01 0.511D-01-0.411D+00 0.423D+00
 Coeff-Com: -0.159D+00 0.263D+00 0.364D+00-0.612D+00-0.227D+00 0.297D+00
 Coeff-Com:  0.381D+00 0.627D+00
 Coeff:     -0.353D-05-0.779D-04-0.285D-03-0.441D-03-0.116D-02 0.511D-02
 Coeff:      0.571D-02-0.399D-01 0.328D-01 0.511D-01-0.411D+00 0.423D+00
 Coeff:     -0.159D+00 0.263D+00 0.364D+00-0.612D+00-0.227D+00 0.297D+00
 Coeff:      0.381D+00 0.627D+00
 Gap=     0.100 Goal=   None    Shift=    0.000
 Gap=     0.236 Goal=   None    Shift=    0.000
 RMSDP=6.64D-06 MaxDP=9.51D-05 DE=-7.28D-07 OVMax= 6.70D-04

 Cycle  23  Pass 1  IDiag  1:
 E= -1309.50902836893     Delta-E=       -0.000000265537 Rises=F Damp=F
 DIIS: error= 4.72D-05 at cycle  23 NSaved=  20.
 NSaved=20 IEnMin=11 EnMin= -1309.50957109118     IErMin=18 ErrMin= 3.79D-05
 ErrMax= 4.72D-05  0.00D+00 EMaxC= 1.00D-01 BMatC= 2.79D-07 BMatP= 3.51D-07
 IDIUse=1 WtCom= 1.00D+00 WtEn= 0.00D+00
 Coeff-Com:  0.903D-05 0.621D-04-0.276D-03-0.104D-02 0.231D-02 0.932D-02
 Coeff-Com: -0.288D-01-0.633D-02 0.816D-01 0.136D+00-0.207D+00 0.434D-01
 Coeff-Com: -0.129D-01 0.154D+00-0.214D+00 0.203D-01 0.135D+00-0.229D+00
 Coeff-Com: -0.529D+00 0.165D+01
 Coeff:      0.903D-05 0.621D-04-0.276D-03-0.104D-02 0.231D-02 0.932D-02
 Coeff:     -0.288D-01-0.633D-02 0.816D-01 0.136D+00-0.207D+00 0.434D-01
 Coeff:     -0.129D-01 0.154D+00-0.214D+00 0.203D-01 0.135D+00-0.229D+00
 Coeff:     -0.529D+00 0.165D+01
 Gap=     0.100 Goal=   None    Shift=    0.000
 Gap=     0.236 Goal=   None    Shift=    0.000
 RMSDP=1.68D-05 MaxDP=2.39D-04 DE=-2.66D-07 OVMax= 1.81D-03

 Cycle  24  Pass 1  IDiag  1:
 E= -1309.50902879378     Delta-E=       -0.000000424851 Rises=F Damp=F
 DIIS: error= 2.48D-05 at cycle  24 NSaved=  20.
 NSaved=20 IEnMin=10 EnMin= -1309.50957109118     IErMin=20 ErrMin= 2.48D-05
 ErrMax= 2.48D-05  0.00D+00 EMaxC= 1.00D-01 BMatC= 5.93D-08 BMatP= 2.79D-07
 IDIUse=1 WtCom= 1.00D+00 WtEn= 0.00D+00
 Coeff-Com: -0.219D-03-0.843D-03 0.791D-03 0.240D-02 0.322D-02-0.110D-01
 Coeff-Com: -0.129D-01 0.340D-01 0.149D+00-0.160D+00 0.483D-01-0.495D-01
 Coeff-Com:  0.399D-01-0.708D-01 0.160D+00-0.366D+00 0.258D+00-0.141D+00
 Coeff-Com: -0.173D+00 0.129D+01
 Coeff:     -0.219D-03-0.843D-03 0.791D-03 0.240D-02 0.322D-02-0.110D-01
 Coeff:     -0.129D-01 0.340D-01 0.149D+00-0.160D+00 0.483D-01-0.495D-01
 Coeff:      0.399D-01-0.708D-01 0.160D+00-0.366D+00 0.258D+00-0.141D+00
 Coeff:     -0.173D+00 0.129D+01
 Gap=     0.100 Goal=   None    Shift=    0.000
 Gap=     0.236 Goal=   None    Shift=    0.000
 RMSDP=1.34D-05 MaxDP=2.06D-04 DE=-4.25D-07 OVMax= 1.47D-03

 Cycle  25  Pass 1  IDiag  1:
 E= -1309.50902932180     Delta-E=       -0.000000528017 Rises=F Damp=F
 DIIS: error= 2.46D-05 at cycle  25 NSaved=  20.
 NSaved=20 IEnMin= 9 EnMin= -1309.50957109118     IErMin=20 ErrMin= 2.46D-05
 ErrMax= 2.46D-05  0.00D+00 EMaxC= 1.00D-01 BMatC= 7.24D-08 BMatP= 5.93D-08
 IDIUse=1 WtCom= 1.00D+00 WtEn= 0.00D+00
 Coeff-Com:  0.491D-03-0.921D-03 0.239D-02-0.193D-02 0.559D-02 0.568D-02
 Coeff-Com: -0.601D-01-0.259D+00 0.354D+00-0.161D+00 0.176D+00-0.713D-01
 Coeff-Com:  0.372D-01-0.282D-01-0.132D+00 0.461D+00 0.722D+00-0.246D+01
 Coeff-Com: -0.767D+00 0.317D+01
 Coeff:      0.491D-03-0.921D-03 0.239D-02-0.193D-02 0.559D-02 0.568D-02
 Coeff:     -0.601D-01-0.259D+00 0.354D+00-0.161D+00 0.176D+00-0.713D-01
 Coeff:      0.372D-01-0.282D-01-0.132D+00 0.461D+00 0.722D+00-0.246D+01
 Coeff:     -0.767D+00 0.317D+01
 Gap=     0.100 Goal=   None    Shift=    0.000
 Gap=     0.236 Goal=   None    Shift=    0.000
 RMSDP=4.14D-05 MaxDP=6.42D-04 DE=-5.28D-07 OVMax= 4.71D-03

 Cycle  26  Pass 1  IDiag  1:
 E= -1309.50903090762     Delta-E=       -0.000001585818 Rises=F Damp=F
 DIIS: error= 2.37D-05 at cycle  26 NSaved=  20.
 NSaved=20 IEnMin= 8 EnMin= -1309.50957109118     IErMin=20 ErrMin= 2.37D-05
 ErrMax= 2.37D-05  0.00D+00 EMaxC= 1.00D-01 BMatC= 6.34D-08 BMatP= 5.93D-08
 IDIUse=1 WtCom= 1.00D+00 WtEn= 0.00D+00
 Coeff-Com: -0.265D-02 0.185D-03 0.105D-01-0.258D-01-0.206D-01 0.367D-01
 Coeff-Com:  0.107D+00-0.147D-01-0.103D+00 0.127D-01 0.109D+00-0.927D-01
 Coeff-Com: -0.960D+00 0.151D+01-0.675D+00-0.185D+01 0.546D+01-0.658D+00
 Coeff-Com: -0.690D+01 0.506D+01
 Coeff:     -0.265D-02 0.185D-03 0.105D-01-0.258D-01-0.206D-01 0.367D-01
 Coeff:      0.107D+00-0.147D-01-0.103D+00 0.127D-01 0.109D+00-0.927D-01
 Coeff:     -0.960D+00 0.151D+01-0.675D+00-0.185D+01 0.546D+01-0.658D+00
 Coeff:     -0.690D+01 0.506D+01
 Gap=     0.100 Goal=   None    Shift=    0.000
 Gap=     0.236 Goal=   None    Shift=    0.000
 RMSDP=1.05D-04 MaxDP=1.57D-03 DE=-1.59D-06 OVMax= 1.24D-02

 Cycle  27  Pass 1  IDiag  1:
 E= -1309.50903435322     Delta-E=       -0.000003445603 Rises=F Damp=F
 DIIS: error= 1.93D-05 at cycle  27 NSaved=  20.
 NSaved=20 IEnMin= 7 EnMin= -1309.50957109118     IErMin=20 ErrMin= 1.93D-05
 ErrMax= 1.93D-05  0.00D+00 EMaxC= 1.00D-01 BMatC= 4.19D-08 BMatP= 5.93D-08
 IDIUse=1 WtCom= 1.00D+00 WtEn= 0.00D+00
 Coeff-Com: -0.177D-02 0.129D-01-0.372D-01-0.159D-01 0.106D+00 0.633D-01
 Coeff-Com: -0.381D-01 0.643D-01-0.218D+00 0.175D+00-0.129D+00-0.440D+00
 Coeff-Com:  0.468D+00 0.380D-02-0.130D+01 0.331D+01 0.165D+01-0.544D+01
 Coeff-Com:  0.626D+00 0.213D+01
 Coeff:     -0.177D-02 0.129D-01-0.372D-01-0.159D-01 0.106D+00 0.633D-01
 Coeff:     -0.381D-01 0.643D-01-0.218D+00 0.175D+00-0.129D+00-0.440D+00
 Coeff:      0.468D+00 0.380D-02-0.130D+01 0.331D+01 0.165D+01-0.544D+01
 Coeff:      0.626D+00 0.213D+01
 Gap=     0.100 Goal=   None    Shift=    0.000
 Gap=     0.236 Goal=   None    Shift=    0.000
 RMSDP=1.34D-04 MaxDP=1.92D-03 DE=-3.45D-06 OVMax= 1.61D-02

 Cycle  28  Pass 1  IDiag  1:
 E= -1309.50903741615     Delta-E=       -0.000003062923 Rises=F Damp=F
 DIIS: error= 3.16D-05 at cycle  28 NSaved=  20.
 NSaved=20 IEnMin= 6 EnMin= -1309.50957109118     IErMin=19 ErrMin= 1.93D-05
 ErrMax= 3.16D-05  0.00D+00 EMaxC= 1.00D-01 BMatC= 1.14D-07 BMatP= 4.19D-08
 IDIUse=1 WtCom= 1.00D+00 WtEn= 0.00D+00
 Coeff-Com:  0.846D-03 0.516D-02-0.477D-02-0.185D-01-0.222D-01 0.233D-02
 Coeff-Com:  0.937D-01-0.389D-01 0.637D-01-0.106D+00 0.301D+00-0.655D+00
 Coeff-Com:  0.588D+00 0.197D+00-0.203D+01 0.145D+01 0.170D+01-0.215D+01
 Coeff-Com:  0.173D+00 0.145D+01
 Coeff:      0.846D-03 0.516D-02-0.477D-02-0.185D-01-0.222D-01 0.233D-02
 Coeff:      0.937D-01-0.389D-01 0.637D-01-0.106D+00 0.301D+00-0.655D+00
 Coeff:      0.588D+00 0.197D+00-0.203D+01 0.145D+01 0.170D+01-0.215D+01
 Coeff:      0.173D+00 0.145D+01
 Gap=     0.100 Goal=   None    Shift=    0.000
 Gap=     0.236 Goal=   None    Shift=    0.000
 RMSDP=8.28D-05 MaxDP=1.16D-03 DE=-3.06D-06 OVMax= 9.99D-03

 Cycle  29  Pass 1  IDiag  1:
 E= -1309.50903862799     Delta-E=       -0.000001211847 Rises=F Damp=F
 DIIS: error= 1.69D-05 at cycle  29 NSaved=  20.
 NSaved=20 IEnMin= 5 EnMin= -1309.50957109118     IErMin=20 ErrMin= 1.69D-05
 ErrMax= 1.69D-05  0.00D+00 EMaxC= 1.00D-01 BMatC= 3.70D-08 BMatP= 4.19D-08
 IDIUse=1 WtCom= 1.00D+00 WtEn= 0.00D+00
 Coeff-Com: -0.224D-02 0.723D-02-0.901D-02 0.204D+00-0.278D+00 0.581D-01
 Coeff-Com:  0.772D-01 0.194D-01-0.118D+00-0.157D-02 0.229D+00-0.407D+00
 Coeff-Com: -0.246D+00 0.989D+00-0.869D+00-0.505D+00 0.185D+01-0.113D+01
 Coeff-Com: -0.117D+01 0.231D+01
 Coeff:     -0.224D-02 0.723D-02-0.901D-02 0.204D+00-0.278D+00 0.581D-01
 Coeff:      0.772D-01 0.194D-01-0.118D+00-0.157D-02 0.229D+00-0.407D+00
 Coeff:     -0.246D+00 0.989D+00-0.869D+00-0.505D+00 0.185D+01-0.113D+01
 Coeff:     -0.117D+01 0.231D+01
 Gap=     0.100 Goal=   None    Shift=    0.000
 Gap=     0.236 Goal=   None    Shift=    0.000
 RMSDP=5.96D-05 MaxDP=8.05D-04 DE=-1.21D-06 OVMax= 7.19D-03

 Cycle  30  Pass 1  IDiag  1:
 E= -1309.50903918647     Delta-E=       -0.000000558476 Rises=F Damp=F
 DIIS: error= 1.09D-05 at cycle  30 NSaved=  20.
 NSaved=20 IEnMin= 5 EnMin= -1309.50957109118     IErMin=20 ErrMin= 1.09D-05
 ErrMax= 1.09D-05  0.00D+00 EMaxC= 1.00D-01 BMatC= 1.75D-08 BMatP= 3.70D-08
 IDIUse=1 WtCom= 1.00D+00 WtEn= 0.00D+00
 Coeff-Com: -0.299D-02 0.592D-03 0.289D-01-0.152D-01 0.253D-02-0.200D-01
 Coeff-Com: -0.248D-01-0.229D-01 0.579D-01 0.166D+00-0.281D+00 0.130D+00
 Coeff-Com:  0.905D+00-0.688D+00-0.823D+00 0.746D+00 0.635D-01-0.335D+00
 Coeff-Com: -0.403D+00 0.152D+01
 Coeff:     -0.299D-02 0.592D-03 0.289D-01-0.152D-01 0.253D-02-0.200D-01
 Coeff:     -0.248D-01-0.229D-01 0.579D-01 0.166D+00-0.281D+00 0.130D+00
 Coeff:      0.905D+00-0.688D+00-0.823D+00 0.746D+00 0.635D-01-0.335D+00
 Coeff:     -0.403D+00 0.152D+01
 Gap=     0.100 Goal=   None    Shift=    0.000
 Gap=     0.236 Goal=   None    Shift=    0.000
 RMSDP=7.15D-06 MaxDP=8.42D-05 DE=-5.58D-07 OVMax= 9.38D-04

 Cycle  31  Pass 1  IDiag  1:
 E= -1309.50903926063     Delta-E=       -0.000000074160 Rises=F Damp=F
 DIIS: error= 6.82D-06 at cycle  31 NSaved=  20.
 NSaved=20 IEnMin= 5 EnMin= -1309.50957109118     IErMin=20 ErrMin= 6.82D-06
 ErrMax= 6.82D-06  0.00D+00 EMaxC= 1.00D-01 BMatC= 9.95D-09 BMatP= 1.75D-08
 IDIUse=1 WtCom= 1.00D+00 WtEn= 0.00D+00
 Coeff-Com:  0.150D-02-0.461D-02 0.295D-02 0.737D-01-0.929D-01 0.725D-02
 Coeff-Com:  0.138D-01-0.966D-02 0.213D-01-0.528D-01 0.195D+00-0.303D+00
 Coeff-Com: -0.205D-01 0.764D+00-0.933D+00 0.159D+00 0.502D+00-0.672D+00
 Coeff-Com: -0.730D+00 0.208D+01
 Coeff:      0.150D-02-0.461D-02 0.295D-02 0.737D-01-0.929D-01 0.725D-02
 Coeff:      0.138D-01-0.966D-02 0.213D-01-0.528D-01 0.195D+00-0.303D+00
 Coeff:     -0.205D-01 0.764D+00-0.933D+00 0.159D+00 0.502D+00-0.672D+00
 Coeff:     -0.730D+00 0.208D+01
 Gap=     0.100 Goal=   None    Shift=    0.000
 Gap=     0.236 Goal=   None    Shift=    0.000
 RMSDP=3.79D-05 MaxDP=4.70D-04 DE=-7.42D-08 OVMax= 4.59D-03

 Cycle  32  Pass 1  IDiag  1:
 E= -1309.50903945008     Delta-E=       -0.000000189456 Rises=F Damp=F
 DIIS: error= 1.65D-05 at cycle  32 NSaved=  20.
 NSaved=20 IEnMin= 5 EnMin= -1309.50957109118     IErMin=19 ErrMin= 6.82D-06
 ErrMax= 1.65D-05  0.00D+00 EMaxC= 1.00D-01 BMatC= 3.18D-08 BMatP= 9.95D-09
 IDIUse=1 WtCom= 1.00D+00 WtEn= 0.00D+00
 Coeff-Com:  0.570D-03 0.397D-02-0.103D-01-0.614D-01 0.724D-01-0.506D-01
 Coeff-Com:  0.516D-01 0.281D-02 0.780D-02 0.317D+00-0.506D+00-0.468D+00
 Coeff-Com:  0.899D+00-0.229D+00-0.129D+00 0.158D+00-0.103D+00-0.434D+00
 Coeff-Com:  0.653D+00 0.826D+00
 Coeff:      0.570D-03 0.397D-02-0.103D-01-0.614D-01 0.724D-01-0.506D-01
 Coeff:      0.516D-01 0.281D-02 0.780D-02 0.317D+00-0.506D+00-0.468D+00
 Coeff:      0.899D+00-0.229D+00-0.129D+00 0.158D+00-0.103D+00-0.434D+00
 Coeff:      0.653D+00 0.826D+00
 Gap=     0.100 Goal=   None    Shift=    0.000
 Gap=     0.236 Goal=   None    Shift=    0.000
 RMSDP=2.81D-06 MaxDP=4.62D-05 DE=-1.89D-07 OVMax= 3.25D-04

 Cycle  33  Pass 1  IDiag  1:
 E= -1309.50903946700     Delta-E=       -0.000000016914 Rises=F Damp=F
 DIIS: error= 7.83D-06 at cycle  33 NSaved=  20.
 NSaved=20 IEnMin= 5 EnMin= -1309.50957109118     IErMin=18 ErrMin= 6.82D-06
 ErrMax= 7.83D-06  0.00D+00 EMaxC= 1.00D-01 BMatC= 8.47D-09 BMatP= 9.95D-09
 IDIUse=1 WtCom= 1.00D+00 WtEn= 0.00D+00
 Coeff-Com: -0.235D-03 0.179D-02-0.263D-02-0.639D-01 0.584D-01 0.128D-01
 Coeff-Com:  0.129D-02-0.345D-01 0.184D-01-0.305D+00-0.418D-01 0.608D+00
 Coeff-Com: -0.326D+00-0.427D-01 0.236D+00-0.313D-01 0.342D+00-0.110D+01
 Coeff-Com: -0.114D+01 0.281D+01
 Coeff:     -0.235D-03 0.179D-02-0.263D-02-0.639D-01 0.584D-01 0.128D-01
 Coeff:      0.129D-02-0.345D-01 0.184D-01-0.305D+00-0.418D-01 0.608D+00
 Coeff:     -0.326D+00-0.427D-01 0.236D+00-0.313D-01 0.342D+00-0.110D+01
 Coeff:     -0.114D+01 0.281D+01
 Gap=     0.100 Goal=   None    Shift=    0.000
 Gap=     0.236 Goal=   None    Shift=    0.000
 RMSDP=3.25D-05 MaxDP=4.51D-04 DE=-1.69D-08 OVMax= 3.80D-03

 Cycle  34  Pass 1  IDiag  1:
 E= -1309.50903952746     Delta-E=       -0.000000060465 Rises=F Damp=F
 DIIS: error= 1.97D-06 at cycle  34 NSaved=  20.
 NSaved=20 IEnMin= 5 EnMin= -1309.50957109118     IErMin=20 ErrMin= 1.97D-06
 ErrMax= 1.97D-06  0.00D+00 EMaxC= 1.00D-01 BMatC= 7.83D-10 BMatP= 8.47D-09
 IDIUse=1 WtCom= 1.00D+00 WtEn= 0.00D+00
 Coeff-Com: -0.103D-03-0.667D-04 0.156D-02-0.124D-01 0.131D-01-0.318D-02
 Coeff-Com: -0.722D-04-0.431D-03 0.282D-02-0.422D-01 0.107D-01 0.745D-01
 Coeff-Com:  0.250D-02-0.693D-01-0.115D+00 0.374D+00-0.189D+00-0.424D+00
 Coeff-Com:  0.214D+00 0.116D+01
 Coeff:     -0.103D-03-0.667D-04 0.156D-02-0.124D-01 0.131D-01-0.318D-02
 Coeff:     -0.722D-04-0.431D-03 0.282D-02-0.422D-01 0.107D-01 0.745D-01
 Coeff:      0.250D-02-0.693D-01-0.115D+00 0.374D+00-0.189D+00-0.424D+00
 Coeff:      0.214D+00 0.116D+01
 Gap=     0.100 Goal=   None    Shift=    0.000
 Gap=     0.236 Goal=   None    Shift=    0.000
 RMSDP=3.91D-06 MaxDP=5.92D-05 DE=-6.05D-08 OVMax= 4.32D-04

 Cycle  35  Pass 1  IDiag  1:
 E= -1309.50903952855     Delta-E=       -0.000000001085 Rises=F Damp=F
 DIIS: error= 2.16D-06 at cycle  35 NSaved=  20.
 NSaved=20 IEnMin= 5 EnMin= -1309.50957109118     IErMin=19 ErrMin= 1.97D-06
 ErrMax= 2.16D-06  0.00D+00 EMaxC= 1.00D-01 BMatC= 5.96D-10 BMatP= 7.83D-10
 IDIUse=1 WtCom= 1.00D+00 WtEn= 0.00D+00
 Coeff-Com: -0.956D-04 0.191D-03 0.751D-03-0.984D-03 0.653D-02-0.681D-02
 Coeff-Com: -0.260D-02-0.434D-03 0.529D-02-0.265D-01 0.155D-01 0.330D-01
 Coeff-Com: -0.233D-01-0.220D-01 0.509D-01-0.398D-01 0.518D-01-0.782D-01
 Coeff-Com:  0.219D+00 0.818D+00
 Coeff:     -0.956D-04 0.191D-03 0.751D-03-0.984D-03 0.653D-02-0.681D-02
 Coeff:     -0.260D-02-0.434D-03 0.529D-02-0.265D-01 0.155D-01 0.330D-01
 Coeff:     -0.233D-01-0.220D-01 0.509D-01-0.398D-01 0.518D-01-0.782D-01
 Coeff:      0.219D+00 0.818D+00
 Gap=     0.100 Goal=   None    Shift=    0.000
 Gap=     0.236 Goal=   None    Shift=    0.000
 RMSDP=6.49D-07 MaxDP=1.34D-05 DE=-1.08D-09 OVMax= 6.89D-05

 Cycle  36  Pass 1  IDiag  1:
 E= -1309.50903952876     Delta-E=       -0.000000000210 Rises=F Damp=F
 DIIS: error= 3.15D-07 at cycle  36 NSaved=  20.
 NSaved=20 IEnMin= 5 EnMin= -1309.50957109118     IErMin=20 ErrMin= 3.15D-07
 ErrMax= 3.15D-07  0.00D+00 EMaxC= 1.00D-01 BMatC= 1.22D-11 BMatP= 5.96D-10
 IDIUse=1 WtCom= 1.00D+00 WtEn= 0.00D+00
 Coeff-Com:  0.213D-03-0.688D-03 0.216D-03 0.675D-02-0.661D-02 0.233D-03
 Coeff-Com: -0.207D-02-0.282D-02 0.612D-02 0.844D-02-0.361D-02-0.209D-01
 Coeff-Com:  0.217D-01-0.128D-01 0.405D-01 0.623D-01-0.165D+00-0.531D-01
 Coeff-Com: -0.217D+00 0.134D+01
 Coeff:      0.213D-03-0.688D-03 0.216D-03 0.675D-02-0.661D-02 0.233D-03
 Coeff:     -0.207D-02-0.282D-02 0.612D-02 0.844D-02-0.361D-02-0.209D-01
 Coeff:      0.217D-01-0.128D-01 0.405D-01 0.623D-01-0.165D+00-0.531D-01
 Coeff:     -0.217D+00 0.134D+01
 Gap=     0.100 Goal=   None    Shift=    0.000
 Gap=     0.236 Goal=   None    Shift=    0.000
 RMSDP=4.36D-07 MaxDP=5.94D-06 DE=-2.10D-10 OVMax= 5.13D-05

 Cycle  37  Pass 1  IDiag  1:
 E= -1309.50903952878     Delta-E=       -0.000000000020 Rises=F Damp=F
 DIIS: error= 2.89D-07 at cycle  37 NSaved=  20.
 NSaved=20 IEnMin= 5 EnMin= -1309.50957109118     IErMin=20 ErrMin= 2.89D-07
 ErrMax= 2.89D-07  0.00D+00 EMaxC= 1.00D-01 BMatC= 1.67D-11 BMatP= 1.22D-11
 IDIUse=1 WtCom= 1.00D+00 WtEn= 0.00D+00
 Coeff-Com:  0.564D-04-0.336D-04 0.292D-03-0.122D-02 0.210D-02-0.723D-03
 Coeff-Com: -0.131D-02-0.221D-02 0.313D-02 0.419D-03-0.746D-03 0.165D-01
 Coeff-Com: -0.409D-04-0.376D-01-0.391D-02 0.260D-01-0.381D-01-0.235D+00
 Coeff-Com:  0.332D+00 0.941D+00
 Coeff:      0.564D-04-0.336D-04 0.292D-03-0.122D-02 0.210D-02-0.723D-03
 Coeff:     -0.131D-02-0.221D-02 0.313D-02 0.419D-03-0.746D-03 0.165D-01
 Coeff:     -0.409D-04-0.376D-01-0.391D-02 0.260D-01-0.381D-01-0.235D+00
 Coeff:      0.332D+00 0.941D+00
 Gap=     0.100 Goal=   None    Shift=    0.000
 Gap=     0.236 Goal=   None    Shift=    0.000
 RMSDP=1.41D-07 MaxDP=1.89D-06 DE=-1.96D-11 OVMax= 1.38D-05

 Cycle  38  Pass 1  IDiag  1:
 E= -1309.50903952878     Delta-E=       -0.000000000005 Rises=F Damp=F
 DIIS: error= 2.66D-07 at cycle  38 NSaved=  20.
 NSaved=20 IEnMin= 5 EnMin= -1309.50957109118     IErMin=20 ErrMin= 2.66D-07
 ErrMax= 2.66D-07  0.00D+00 EMaxC= 1.00D-01 BMatC= 6.79D-12 BMatP= 1.22D-11
 IDIUse=1 WtCom= 1.00D+00 WtEn= 0.00D+00
 Coeff-Com: -0.828D-05 0.476D-04-0.234D-03-0.100D-02 0.199D-02-0.994D-03
 Coeff-Com:  0.199D-03-0.226D-03 0.295D-03-0.990D-03 0.196D-02-0.395D-02
 Coeff-Com: -0.125D-01 0.236D-01 0.124D-01-0.112D-01 0.783D-01-0.379D+00
 Coeff-Com: -0.587D-01 0.135D+01
 Coeff:     -0.828D-05 0.476D-04-0.234D-03-0.100D-02 0.199D-02-0.994D-03
 Coeff:      0.199D-03-0.226D-03 0.295D-03-0.990D-03 0.196D-02-0.395D-02
 Coeff:     -0.125D-01 0.236D-01 0.124D-01-0.112D-01 0.783D-01-0.379D+00
 Coeff:     -0.587D-01 0.135D+01
 Gap=     0.100 Goal=   None    Shift=    0.000
 Gap=     0.236 Goal=   None    Shift=    0.000
 RMSDP=1.34D-07 MaxDP=2.59D-06 DE=-5.00D-12 OVMax= 1.53D-05

 Cycle  39  Pass 1  IDiag  1:
 E= -1309.50903952879     Delta-E=       -0.000000000005 Rises=F Damp=F
 DIIS: error= 1.30D-07 at cycle  39 NSaved=  20.
 NSaved=20 IEnMin= 5 EnMin= -1309.50957109118     IErMin=20 ErrMin= 1.30D-07
 ErrMax= 1.30D-07  0.00D+00 EMaxC= 1.00D-01 BMatC= 1.64D-12 BMatP= 6.79D-12
 IDIUse=1 WtCom= 1.00D+00 WtEn= 0.00D+00
 Coeff-Com: -0.409D-05 0.296D-04 0.133D-04-0.862D-03 0.119D-02-0.472D-03
 Coeff-Com:  0.290D-04-0.944D-04 0.212D-03-0.201D-02 0.248D-02-0.548D-02
 Coeff-Com:  0.894D-02 0.599D-02-0.650D-02 0.275D-01-0.163D+00-0.434D-01
 Coeff-Com:  0.386D+00 0.789D+00
 Coeff:     -0.409D-05 0.296D-04 0.133D-04-0.862D-03 0.119D-02-0.472D-03
 Coeff:      0.290D-04-0.944D-04 0.212D-03-0.201D-02 0.248D-02-0.548D-02
 Coeff:      0.894D-02 0.599D-02-0.650D-02 0.275D-01-0.163D+00-0.434D-01
 Coeff:      0.386D+00 0.789D+00
 Gap=     0.100 Goal=   None    Shift=    0.000
 Gap=     0.236 Goal=   None    Shift=    0.000
 RMSDP=4.34D-08 MaxDP=6.06D-07 DE=-5.46D-12 OVMax= 5.31D-06

 Cycle  40  Pass 1  IDiag  1:
 E= -1309.50903952879     Delta-E=        0.000000000001 Rises=F Damp=F
 DIIS: error= 5.34D-08 at cycle  40 NSaved=  20.
 NSaved=20 IEnMin= 5 EnMin= -1309.50957109118     IErMin=20 ErrMin= 5.34D-08
 ErrMax= 5.34D-08  0.00D+00 EMaxC= 1.00D-01 BMatC= 1.98D-13 BMatP= 1.64D-12
 IDIUse=1 WtCom= 1.00D+00 WtEn= 0.00D+00
 Coeff-Com: -0.317D-05 0.109D-04 0.170D-04-0.124D-03 0.207D-03-0.130D-03
 Coeff-Com: -0.140D-04-0.680D-05 0.585D-04 0.169D-02-0.311D-02 0.877D-03
 Coeff-Com:  0.790D-03 0.328D-03 0.382D-02-0.134D-01 0.340D-01-0.480D-01
 Coeff-Com: -0.130D+00 0.115D+01
 Coeff:     -0.317D-05 0.109D-04 0.170D-04-0.124D-03 0.207D-03-0.130D-03
 Coeff:     -0.140D-04-0.680D-05 0.585D-04 0.169D-02-0.311D-02 0.877D-03
 Coeff:      0.790D-03 0.328D-03 0.382D-02-0.134D-01 0.340D-01-0.480D-01
 Coeff:     -0.130D+00 0.115D+01
 Gap=     0.100 Goal=   None    Shift=    0.000
 Gap=     0.236 Goal=   None    Shift=    0.000
 RMSDP=2.19D-08 MaxDP=4.20D-07 DE= 9.09D-13 OVMax= 2.18D-06

 Cycle  41  Pass 1  IDiag  1:
 E= -1309.50903952879     Delta-E=       -0.000000000003 Rises=F Damp=F
 DIIS: error= 5.18D-08 at cycle  41 NSaved=  20.
 NSaved=20 IEnMin= 5 EnMin= -1309.50957109118     IErMin=20 ErrMin= 5.18D-08
 ErrMax= 5.18D-08  0.00D+00 EMaxC= 1.00D-01 BMatC= 4.50D-14 BMatP= 1.98D-13
 IDIUse=1 WtCom= 1.00D+00 WtEn= 0.00D+00
 Large coefficients: NSaved= 20 BigCof=    0.00 CofMax=   10.00 Det=-4.80D-15
 Inversion failed.  Reducing to 19 matrices.
 Large coefficients: NSaved= 19 BigCof=    0.00 CofMax=   10.00 Det=-4.82D-15
 Inversion failed.  Reducing to 18 matrices.
 Large coefficients: NSaved= 18 BigCof=    0.00 CofMax=   10.00 Det=-5.21D-15
 Inversion failed.  Reducing to 17 matrices.
 Large coefficients: NSaved= 17 BigCof=    0.00 CofMax=   10.00 Det=-6.06D-15
 Inversion failed.  Reducing to 16 matrices.
 Large coefficients: NSaved= 16 BigCof=    0.00 CofMax=   10.00 Det=-6.18D-15
 Inversion failed.  Reducing to 15 matrices.
 Coeff-Com:  0.225D-05 0.130D-05-0.957D-05 0.168D-04-0.280D-04-0.305D-05
 Coeff-Com:  0.283D-04-0.270D-04 0.234D-04-0.321D-02 0.690D-02-0.191D-01
 Coeff-Com: -0.517D-01 0.225D+00 0.842D+00
 Coeff:      0.225D-05 0.130D-05-0.957D-05 0.168D-04-0.280D-04-0.305D-05
 Coeff:      0.283D-04-0.270D-04 0.234D-04-0.321D-02 0.690D-02-0.191D-01
 Coeff:     -0.517D-01 0.225D+00 0.842D+00
 Gap=     0.100 Goal=   None    Shift=    0.000
 Gap=     0.236 Goal=   None    Shift=    0.000
 RMSDP=1.25D-08 MaxDP=1.59D-07 DE=-3.18D-12 OVMax= 1.66D-06

 Cycle  42  Pass 1  IDiag  1:
 E= -1309.50903952879     Delta-E=       -0.000000000003 Rises=F Damp=F
 DIIS: error= 5.22D-08 at cycle  42 NSaved=  16.
 NSaved=16 IEnMin= 5 EnMin= -1309.50957109118     IErMin=15 ErrMin= 5.18D-08
 ErrMax= 5.22D-08  0.00D+00 EMaxC= 1.00D-01 BMatC= 4.70D-14 BMatP= 4.50D-14
 IDIUse=1 WtCom= 1.00D+00 WtEn= 0.00D+00
 Large coefficients: NSaved= 16 BigCof=    0.00 CofMax=   10.00 Det=-1.69D-15
 Inversion failed.  Reducing to 15 matrices.
 Coeff-Com: -0.183D-05 0.303D-05 0.562D-05-0.334D-04 0.445D-04-0.293D-04
 Coeff-Com:  0.779D-05-0.208D-04 0.302D-04-0.444D-02 0.114D-01 0.431D-01
 Coeff-Com: -0.105D+00 0.151D+00 0.904D+00
 Coeff:     -0.183D-05 0.303D-05 0.562D-05-0.334D-04 0.445D-04-0.293D-04
 Coeff:      0.779D-05-0.208D-04 0.302D-04-0.444D-02 0.114D-01 0.431D-01
 Coeff:     -0.105D+00 0.151D+00 0.904D+00
 Gap=     0.100 Goal=   None    Shift=    0.000
 Gap=     0.236 Goal=   None    Shift=    0.000
 RMSDP=5.38D-09 MaxDP=8.86D-08 DE=-2.73D-12 OVMax= 7.77D-07

 SCF Done:  E(UB971) =  -1309.50903953     A.U. after   42 cycles
            NFock= 42  Conv=0.54D-08     -V/T= 2.0013
 <Sx>= 0.0000 <Sy>= 0.0000 <Sz>= 1.5000 <S**2>= 3.7541 S= 1.5010
 <L.S>= 0.000000000000E+00
 KE= 1.307765016223D+03 PE=-3.281831669410D+03 EE= 5.775828830170D+02
 Annihilation of the first spin contaminant:
 S**2 before annihilation     3.7541,   after     3.7500
 Leave Link  502 at Wed Feb 11 17:51:43 2015, MaxMem=   524288000 cpu:        76.5
 (Enter /opt/g09/l508.exe)
 QCSCF skips out because SCF is already converged.
 Leave Link  508 at Wed Feb 11 17:51:43 2015, MaxMem=   524288000 cpu:         0.0
 (Enter /opt/g09/l801.exe)
 DoSCS=F DFT=T ScalE2(SS,OS)=  1.000000  1.000000
 Range of M.O.s used for correlation:     1    88
 NBasis=    88 NAE=    21 NBE=    18 NFC=     0 NFV=     0
 NROrb=     88 NOA=    21 NOB=    18 NVA=    67 NVB=    70
 Leave Link  801 at Wed Feb 11 17:51:43 2015, MaxMem=   524288000 cpu:         0.3
 (Enter /opt/g09/l1101.exe)
 Using compressed storage, NAtomX=     2.
 Will process      3 centers per pass.
 Leave Link 1101 at Wed Feb 11 17:51:44 2015, MaxMem=   524288000 cpu:         2.1
 (Enter /opt/g09/l1102.exe)
 Symmetrizing basis deriv contribution to polar:
 IMax=3 JMax=2 DiffMx= 0.00D+00
 Leave Link 1102 at Wed Feb 11 17:51:44 2015, MaxMem=   524288000 cpu:         0.3
 (Enter /opt/g09/l1110.exe)
 Forming Gx(P) for the SCF density, NAtomX=     2.
 Integral derivatives from FoFJK, PRISM(SPDF).
 Do as many integral derivatives as possible in FoFJK.
 G2DrvN: MDV=     524287880.
 G2DrvN: will do     3 centers at a time, making    1 passes.
 Calling FoFCou, ICntrl=  3107 FMM=F I1Cent=   0 AccDes= 0.00D+00.
 FoFJK:  IHMeth= 1 ICntrl=    3107 DoSepK=F KAlg= 0 I1Cent=   0 FoldK=F
 IRaf=         0 NMat=   1 IRICut=       1 DoRegI=T DoRafI=F ISym2E= 0.
 FoFCou: FMM=F IPFlag=           0 FMFlag=      100000 FMFlg1=           0
         NFxFlg=           0 DoJE=F BraDBF=F KetDBF=F FulRan=T
         wScrn=  0.000000 ICntrl=    3107 IOpCl=  1 I1Cent=           0 NGrid=           0
         NMat0=    1 NMatS0=      1 NMatT0=    0 NMatD0=    1 NMtDS0=    0 NMtDT0=    0
 Symmetry not used in FoFCou.
 End of G2Drv F.D. properties file   721 does not exist.
 End of G2Drv F.D. properties file   722 does not exist.
 End of G2Drv F.D. properties file   788 does not exist.
 Leave Link 1110 at Wed Feb 11 17:51:46 2015, MaxMem=   524288000 cpu:        22.6
 (Enter /opt/g09/l1002.exe)
 Minotr:  UHF open shell wavefunction.
          IDoAtm=11
          Direct CPHF calculation.
          Differentiating once with respect to electric field.
                with respect to dipole field.
          Differentiating once with respect to nuclear coordinates.
          Requested convergence is 1.0D-08 RMS, and 1.0D-07 maximum.
          Secondary convergence is 1.0D-12 RMS, and 1.0D-12 maximum.
          NewPWx=T KeepS1=F KeepF1=F KeepIn=T MapXYZ=F SortEE=F KeepMc=T.
          MDV=     524287800 using IRadAn=       1.
 Generate precomputed XC quadrature information.
 Keep R1 and R2 ints in memory in canonical form, NReq=17328989.
 FoFCou: FMM=F IPFlag=           0 FMFlag=           0 FMFlg1=           0
         NFxFlg=           0 DoJE=F BraDBF=F KetDBF=F FulRan=T
         wScrn=  0.000000 ICntrl=     600 IOpCl=  0 I1Cent=           0 NGrid=           0
         NMat0=    1 NMatS0=   3916 NMatT0=    0 NMatD0=    1 NMtDS0=    0 NMtDT0=    0
 Symmetry not used in FoFCou.
          Solving linear equations simultaneously, MaxMat=       0.
          There are     9 degrees of freedom in the 1st order CPHF.  IDoFFX=6 NUNeed=     3.
      6 vectors produced by pass  0 Test12= 2.96D-14 1.11D-08 XBig12= 2.45D+02 1.28D+01.
 AX will form     6 AO Fock derivatives at one time.
      6 vectors produced by pass  1 Test12= 2.96D-14 1.11D-08 XBig12= 4.78D+01 2.54D+00.
      6 vectors produced by pass  2 Test12= 2.96D-14 1.11D-08 XBig12= 7.94D+00 7.61D-01.
      6 vectors produced by pass  3 Test12= 2.96D-14 1.11D-08 XBig12= 1.06D+00 4.86D-01.
      6 vectors produced by pass  4 Test12= 2.96D-14 1.11D-08 XBig12= 9.43D-02 1.10D-01.
      6 vectors produced by pass  5 Test12= 2.96D-14 1.11D-08 XBig12= 5.56D-03 2.05D-02.
      6 vectors produced by pass  6 Test12= 2.96D-14 1.11D-08 XBig12= 1.79D-04 3.74D-03.
      6 vectors produced by pass  7 Test12= 2.96D-14 1.11D-08 XBig12= 2.73D-06 3.96D-04.
      6 vectors produced by pass  8 Test12= 2.96D-14 1.11D-08 XBig12= 4.76D-08 4.57D-05.
      4 vectors produced by pass  9 Test12= 2.96D-14 1.11D-08 XBig12= 6.27D-10 5.36D-06.
      3 vectors produced by pass 10 Test12= 2.96D-14 1.11D-08 XBig12= 9.87D-12 8.00D-07.
      2 vectors produced by pass 11 Test12= 2.96D-14 1.11D-08 XBig12= 7.84D-14 7.66D-08.
 InvSVY:  IOpt=1 It=  1 EMax= 8.88D-16
 Solved reduced A of dimension    63 with     6 vectors.
 FullF1:  Do perturbations    1 to     3.
 Isotropic polarizability for W=    0.000000       99.25 Bohr**3.
 End of Minotr F.D. properties file   721 does not exist.
 End of Minotr F.D. properties file   722 does not exist.
 End of Minotr F.D. properties file   788 does not exist.
 Leave Link 1002 at Wed Feb 11 17:51:53 2015, MaxMem=   524288000 cpu:        48.1
 (Enter /opt/g09/l701.exe)
 Compute integral second derivatives.
 ... and contract with generalized density number  0.
 Leave Link  701 at Wed Feb 11 17:51:53 2015, MaxMem=   524288000 cpu:         4.3
 (Enter /opt/g09/l702.exe)
 L702 exits ... SP integral derivatives will be done elsewhere.
 Leave Link  702 at Wed Feb 11 17:51:53 2015, MaxMem=   524288000 cpu:         0.3
 (Enter /opt/g09/l703.exe)
 Compute integral second derivatives, UseDBF=F ICtDFT=           0.
 Integral derivatives from FoFJK, PRISM(SPDF).
 Calling FoFJK, ICntrl=    100127 FMM=F ISym2X=0 I1Cent= 0 IOpClX= 1 NMat=1 NMatS=1 NMatT=0.
 FoFJK:  IHMeth= 1 ICntrl=  100127 DoSepK=F KAlg= 0 I1Cent=   0 FoldK=F
 IRaf=         0 NMat=   1 IRICut=       1 DoRegI=T DoRafI=F ISym2E= 0.
 FoFCou: FMM=F IPFlag=           0 FMFlag=      100000 FMFlg1=         800
         NFxFlg=           0 DoJE=F BraDBF=F KetDBF=F FulRan=T
         wScrn=  0.000000 ICntrl=  100127 IOpCl=  1 I1Cent=           0 NGrid=           0
         NMat0=    1 NMatS0=      1 NMatT0=    0 NMatD0=    1 NMtDS0=    0 NMtDT0=    0
 Symmetry not used in FoFCou.
 Leave Link  703 at Wed Feb 11 17:52:00 2015, MaxMem=   524288000 cpu:        53.8
 (Enter /opt/g09/l716.exe)
 Dipole        = 5.50644829D-01-4.03146368D-01 1.50442937D+00
 Polarizability= 9.56797423D+01-1.57037202D+00 9.59231685D+01
                 4.20530768D+00-2.78895323D+00 1.06147573D+02
 -------------------------------------------------------------------
 Center     Atomic                   Forces (Hartrees/Bohr)
 Number     Number              X              Y              Z
 -------------------------------------------------------------------
      1       22          -0.000000804   -0.000002907   -0.000000380
      2       17           0.000000804    0.000002907    0.000000380
 -------------------------------------------------------------------
 Cartesian Forces:  Max     0.000002907 RMS     0.000001755
 Force constants in Cartesian coordinates: 
                1             2             3             4             5 
      1  0.135301D-01
      2 -0.987630D-02  0.728488D-02
      3  0.366501D-01 -0.267338D-01  0.100150D+00
      4 -0.135301D-01  0.987630D-02 -0.366501D-01  0.135301D-01
      5  0.987630D-02 -0.728488D-02  0.267338D-01 -0.987630D-02  0.728488D-02
      6 -0.366501D-01  0.267338D-01 -0.100150D+00  0.366501D-01 -0.267338D-01
                6 
      6  0.100150D+00
 FormGI is forming the generalized inverse of G from B-inverse, IUseBI=4.
 Force constants in internal coordinates: 
                1 
      1  0.120735D+00
 Leave Link  716 at Wed Feb 11 17:52:00 2015, MaxMem=   524288000 cpu:         0.3
 (Enter /opt/g09/l103.exe)

 GradGradGradGradGradGradGradGradGradGradGradGradGradGradGradGradGradGrad
 Berny optimization.
 Red2BG is reusing G-inverse.
 Internal  Forces:  Max     0.000000095 RMS     0.000000095
 Search for a local minimum.
 Step number   1 out of a maximum of   20
 All quantities printed in internal units (Hartrees-Bohrs-Radians)
 RMS Force = .95244D-07 SwitMx=.10000D-02 MixMth= 2
 Mixed Optimization -- En-DIIS/RFO-DIIS
 Second derivative matrix not updated -- analytic derivatives used.
 The second derivative matrix:
                          R1
           R1           0.12074
 ITU=  0
     Eigenvalues ---    0.12074
 RFO step:  Lambda=-7.51343432D-14 EMin= 1.20735272D-01
 Linear search not attempted -- first point.
 Iteration  1 RMS(Cart)=  0.00000056 RMS(Int)=  0.00000000
 ITry= 1 IFail=0 DXMaxC= 3.59D-07 DCOld= 1.00D+10 DXMaxT= 3.00D-01 DXLimC= 3.00D+00 Rises=F
 Variable       Old X    -DE/DX   Delta X   Delta X   Delta X     New X
                                 (Linear)    (Quad)   (Total)
    R1        4.30010   0.00000   0.00000   0.00000   0.00000   4.30010
         Item               Value     Threshold  Converged?
 Maximum Force            0.000000     0.000015     YES
 RMS     Force            0.000000     0.000010     YES
 Maximum Displacement     0.000000     0.000060     YES
 RMS     Displacement     0.000001     0.000040     YES
 Predicted change in Energy=-3.756714D-14
 Optimization completed.
    -- Stationary point found.
                           ----------------------------
                           !   Optimized Parameters   !
                           ! (Angstroms and Degrees)  !
 --------------------------                            --------------------------
 ! Name  Definition              Value          Derivative Info.                !
 --------------------------------------------------------------------------------
 ! R1    R(1,2)                  2.2755         -DE/DX =    0.0                 !
 --------------------------------------------------------------------------------
 Lowest energy point so far.  Saving SCF results.
 GradGradGradGradGradGradGradGradGradGradGradGradGradGradGradGradGradGrad

 Largest change from initial coordinates is atom    0       0.000 Angstoms.
 Leave Link  103 at Wed Feb 11 17:52:00 2015, MaxMem=   524288000 cpu:         0.0
 (Enter /opt/g09/l202.exe)
                          Input orientation:                          
 ---------------------------------------------------------------------
 Center     Atomic      Atomic             Coordinates (Angstroms)
 Number     Number       Type             X           Y           Z
 ---------------------------------------------------------------------
      1         22           0       -6.167110   -0.357280    0.293930
      2         17           0       -6.925590    0.198070   -1.778330
 ---------------------------------------------------------------------
 Symmetry turned off by external request.
 Stoichiometry    ClTi(4)
 Framework group  C*V[C*(ClTi)]
 Deg. of freedom     1
 Full point group                 C*V     NOp   4
 Rotational constants (GHZ):      0.0000000      4.8266860      4.8266860
 Leave Link  202 at Wed Feb 11 17:52:00 2015, MaxMem=   524288000 cpu:         0.2
 (Enter /opt/g09/l716.exe)
 Dipole        = 5.50644829D-01-4.03146368D-01 1.50442937D+00
 Polarizability= 9.56797423D+01-1.57037202D+00 9.59231685D+01
                 4.20530768D+00-2.78895323D+00 1.06147573D+02
 Full mass-weighted force constant matrix:
 Low frequencies ---   -0.0050    0.0020    0.0026    7.0977   15.7973  397.2071
 Diagonal vibrational polarizability:
        1.2090372       0.6508714       9.0533862
 Harmonic frequencies (cm**-1), IR intensities (KM/Mole), Raman scattering
 activities (A**4/AMU), depolarization ratios for plane and unpolarized
 incident light, reduced masses (AMU), force constants (mDyne/A),
 and normal coordinates:
                      1
                      A
 Frequencies --    397.2070
 Red. masses --     39.4754
 Frc consts  --      3.6695
 IR Inten    --     63.9818
  Atom  AN      X      Y      Z
     1  22     0.20  -0.14   0.54
     2  17    -0.27   0.20  -0.74

 -------------------
 - Thermochemistry -
 -------------------
 Temperature   298.150 Kelvin.  Pressure   1.00000 Atm.
 Atom     1 has atomic number 22 and mass  47.94795
 Atom     2 has atomic number 17 and mass  34.96885
 Molecular mass:    82.91680 amu.
 Principal axes and moments of inertia in atomic units:
                           1         2         3
     Eigenvalues --     0.00000 373.90897 373.90897
           X            0.33332  -0.20236   0.92084
           Y           -0.24405   0.92489   0.29159
           Z            0.91068   0.32193  -0.25890
 This molecule is a prolate symmetric top.
 Rotational symmetry number  1.
 Rotational temperature (Kelvin)      0.23164
 Rotational constant (GHZ):           4.826686
 Zero-point vibrational energy       2375.8 (Joules/Mol)
                                    0.56784 (Kcal/Mol)
 Warning -- explicit consideration of   1 degrees of freedom as
           vibrations may cause significant error
 Vibrational temperatures:    571.49
          (Kelvin)
 
 Zero-point correction=                           0.000905 (Hartree/Particle)
 Thermal correction to Energy=                    0.003577
 Thermal correction to Enthalpy=                  0.004522
 Thermal correction to Gibbs Free Energy=        -0.023560
 Sum of electronic and zero-point Energies=          -1309.508135
 Sum of electronic and thermal Energies=             -1309.505462
 Sum of electronic and thermal Enthalpies=           -1309.504518
 Sum of electronic and thermal Free Energies=        -1309.532600
 
                     E (Thermal)             CV                S
                      KCal/Mol        Cal/Mol-Kelvin    Cal/Mol-Kelvin
 Total                    2.245              6.444             59.103
 Electronic               0.000              0.000              2.755
 Translational            0.889              2.981             39.160
 Rotational               0.592              1.987             16.216
 Vibrational              0.764              1.476              0.973
 Vibration     1          0.764              1.476              0.973
                       Q            Log10(Q)             Ln(Q)
 Total Bot       0.687001D+11         10.836957         24.953016
 Total V=0       0.179136D+12         11.253183         25.911412
 Vib (Bot)       0.449640D+00         -0.347135         -0.799309
 Vib (Bot)    1  0.449640D+00         -0.347135         -0.799309
 Vib (V=0)       0.117244D+01          0.069091          0.159087
 Vib (V=0)    1  0.117244D+01          0.069091          0.159087
 Electronic      0.400000D+01          0.602060          1.386294
 Translational   0.296769D+08          7.472419         17.205881
 Rotational      0.128710D+04          3.109614          7.160150
 -------------------------------------------------------------------
 Center     Atomic                   Forces (Hartrees/Bohr)
 Number     Number              X              Y              Z
 -------------------------------------------------------------------
      1       22          -0.000000804   -0.000002907   -0.000000380
      2       17           0.000000804    0.000002907    0.000000380
 -------------------------------------------------------------------
 Cartesian Forces:  Max     0.000002907 RMS     0.000001755
 Force constants in Cartesian coordinates: 
                1             2             3             4             5 
      1  0.135301D-01
      2 -0.987630D-02  0.728488D-02
      3  0.366501D-01 -0.267338D-01  0.100150D+00
      4 -0.135301D-01  0.987630D-02 -0.366501D-01  0.135301D-01
      5  0.987630D-02 -0.728488D-02  0.267338D-01 -0.987630D-02  0.728488D-02
      6 -0.366501D-01  0.267338D-01 -0.100150D+00  0.366501D-01 -0.267338D-01
                6 
      6  0.100150D+00
 Red2BG is reusing G-inverse.
 Force constants in internal coordinates: 
                1 
      1  0.120735D+00
 Leave Link  716 at Wed Feb 11 17:52:00 2015, MaxMem=   524288000 cpu:         0.3
 (Enter /opt/g09/l9999.exe)
 1\1\GINC-RENOIR\Freq\UB971\6-311+G(d,p)\Cl1Ti1(4)\PB556\11-Feb-2015\0\
 \#p uB971/6-311+G(d,p) Opt=(Tight, CalcAll) Freq GFInput Population=No
 ne Integral(Grid=UltraFine) SCF=XQC Guess=MIX NoSymmetry\\W:\Data\TiCl
 \esc\B971\gs\new\monomer\fine\success\fine-ClTi.g09\\0,4\Ti,-6.16711,-
 0.35728,0.29393\Cl,-6.92559,0.19807,-1.77833\\Version=ES64L-G09RevD.01
 \HF=-1309.5090395\S2=3.754099\S2-1=0.\S2A=3.750006\RMSD=5.380e-09\RMSF
 =1.755e-06\Thermal=0.0035775\Dipole=0.5506448,-0.4031464,1.5044294\Dip
 oleDeriv=0.4674444,-0.0618371,0.2333218,-0.0608762,0.4272722,-0.172034
 3,0.2336443,-0.1717924,1.020676,-0.4674444,0.0618371,-0.2333218,0.0608
 762,-0.4272722,0.1720343,-0.2336443,0.1717924,-1.020676\Polar=95.67974
 23,-1.570372,95.9231685,4.2053077,-2.7889532,106.1475728\PG=C*V [C*(Cl
 1Ti1)]\NImag=0\\0.01353010,-0.00987630,0.00728488,0.03665006,-0.026733
 79,0.10014986,-0.01353010,0.00987630,-0.03665006,0.01353010,0.00987630
 ,-0.00728488,0.02673379,-0.00987630,0.00728488,-0.03665006,0.02673379,
 -0.10014986,0.03665006,-0.02673379,0.10014986\\0.00000080,0.00000291,0
 .00000038,-0.00000080,-0.00000291,-0.00000038\\\@


 Happiness is a conscious choice, not an automatic response.
 -- Mildred Barthel
 Leave Link 9999 at Wed Feb 11 17:52:01 2015, MaxMem=   524288000 cpu:         0.3
 Job cpu time:       0 days  0 hours  3 minutes 41.7 seconds.
 File lengths (MBytes):  RWF=      9 Int=      0 D2E=      0 Chk=      2 Scr=      1
 Normal termination of Gaussian 09 at Wed Feb 11 17:52:01 2015.
 (Enter /opt/g09/l1.exe)
 Link1:  Proceeding to internal job step number  2.
 ----------------------------------------------------------------------
 #P Geom=AllCheck Guess=TCheck SCRF=Check GenChk UB971/6-311+G(d,p) Fre
 q
 ----------------------------------------------------------------------
 1/7=10,10=4,29=7,30=1,38=1,40=1/1,3;
 2/12=2,15=1,40=1/2;
 3/5=4,6=6,7=111,11=2,14=-4,16=1,24=10,25=1,30=1,70=2,71=2,74=-20,75=-5,116=2,140=1/1,2,3;
 4/5=101/1;
 5/5=2,8=3,13=1,98=1/2,8;
 8/6=4,10=90,11=11/1;
 11/6=1,8=1,9=11,15=111,16=1,31=1/1,2,10;
 10/6=1,31=1/2;
 7/8=1,10=1,25=1,30=1/1,2,3,16;
 1/7=10,10=4,30=1/3;
 99//99;
 Leave Link    1 at Wed Feb 11 17:52:01 2015, MaxMem=   524288000 cpu:         0.3
 (Enter /opt/g09/l101.exe)
 Structure from the checkpoint file:  "/scratch/pb556/g09_run/ticl_thermo//Gau-16024.chk"
 ---------------------------------------------------------------
 W:\Data\TiCl\esc\B971\gs\new\monomer\fine\success\fine-ClTi.g09
 ---------------------------------------------------------------
 Charge =  0 Multiplicity = 4
 Redundant internal coordinates found in file.
 Ti,0,-6.16711,-0.35728,0.29393
 Cl,0,-6.92559,0.19807,-1.77833
 Recover connectivity data from disk.
 NAtoms=      2 NQM=        2 NQMF=       0 NMMI=      0 NMMIF=      0
                NMic=       0 NMicF=      0.
                    Isotopes and Nuclear Properties:
 (Nuclear quadrupole moments (NQMom) in fm**2, nuclear magnetic moments (NMagM)
  in nuclear magnetons)

  Atom         1           2
 IAtWgt=          48          35
 AtmWgt=  47.9479467  34.9688527
 NucSpn=           0           3
 AtZEff= -23.9800000 -14.2400000
 NQMom=    0.0000000  -8.1650000
 NMagM=    0.0000000   0.8218740
 AtZNuc=  22.0000000  17.0000000
 Leave Link  101 at Wed Feb 11 17:52:01 2015, MaxMem=   524288000 cpu:         1.8
 (Enter /opt/g09/l103.exe)

 GradGradGradGradGradGradGradGradGradGradGradGradGradGradGradGradGradGrad
 Berny optimization.
 Initialization pass.
                           ----------------------------
                           !    Initial Parameters    !
                           ! (Angstroms and Degrees)  !
 --------------------------                            --------------------------
 ! Name  Definition              Value          Derivative Info.                !
 --------------------------------------------------------------------------------
 ! R1    R(1,2)                  2.2755         calculate D2E/DX2 analytically  !
 --------------------------------------------------------------------------------
 Trust Radius=3.00D-01 FncErr=1.00D-07 GrdErr=1.00D-07
 Number of steps in this run=      2 maximum allowed number of steps=      2.
 GradGradGradGradGradGradGradGradGradGradGradGradGradGradGradGradGradGrad

 Leave Link  103 at Wed Feb 11 17:52:01 2015, MaxMem=   524288000 cpu:         0.1
 (Enter /opt/g09/l202.exe)
                          Input orientation:                          
 ---------------------------------------------------------------------
 Center     Atomic      Atomic             Coordinates (Angstroms)
 Number     Number       Type             X           Y           Z
 ---------------------------------------------------------------------
      1         22           0       -6.167110   -0.357280    0.293930
      2         17           0       -6.925590    0.198070   -1.778330
 ---------------------------------------------------------------------
 Symmetry turned off by external request.
 Stoichiometry    ClTi(4)
 Framework group  C*V[C*(ClTi)]
 Deg. of freedom     1
 Full point group                 C*V     NOp   4
 Rotational constants (GHZ):      0.0000000      4.8266860      4.8266860
 Leave Link  202 at Wed Feb 11 17:52:01 2015, MaxMem=   524288000 cpu:         0.0
 (Enter /opt/g09/l301.exe)
 Standard basis: 6-311+G(d,p) (5D, 7F)
 Ernie: Thresh=  0.10000D-02 Tol=  0.10000D-05 Strict=F.
 AO basis set in the form of general basis input (Overlap normalization):
      1 0
 S   6 1.00       0.000000000000
      0.2060820000D+06  0.5673151380D-03
      0.3122680000D+05  0.4379672866D-02
      0.7199320000D+04  0.2242029425D-01
      0.2048750000D+04  0.9063426645D-01
      0.6707900000D+03  0.2890357165D+00
      0.2436500000D+03  0.6803470061D+00
 S   1 1.00       0.000000000000
      0.9592500000D+02  0.1000000000D+01
 S   1 1.00       0.000000000000
      0.3981010000D+02  0.1000000000D+01
 S   1 1.00       0.000000000000
      0.1222050000D+02  0.1000000000D+01
 S   1 1.00       0.000000000000
      0.5008820000D+01  0.1000000000D+01
 S   1 1.00       0.000000000000
      0.1285690000D+01  0.1000000000D+01
 S   1 1.00       0.000000000000
      0.5128060000D+00  0.1000000000D+01
 S   1 1.00       0.000000000000
      0.8557600000D-01  0.1000000000D+01
 S   1 1.00       0.000000000000
      0.3330200000D-01  0.1000000000D+01
 S   1 1.00       0.000000000000
      0.9991000000D-02  0.1000000000D+01
 P   5 1.00       0.000000000000
      0.1264700000D+04  0.3122017423D-02
      0.3012300000D+03  0.2516579464D-01
      0.9697770000D+02  0.1184178291D+00
      0.3637270000D+02  0.3522190030D+00
      0.1478140000D+02  0.6219379661D+00
 P   1 1.00       0.000000000000
      0.6274650000D+01  0.1000000000D+01
 P   1 1.00       0.000000000000
      0.2478780000D+01  0.1000000000D+01
 P   1 1.00       0.000000000000
      0.1016180000D+01  0.1000000000D+01
 P   1 1.00       0.000000000000
      0.3981620000D+00  0.1000000000D+01
 P   1 1.00       0.000000000000
      0.1015610000D+00  0.1000000000D+01
 P   1 1.00       0.000000000000
      0.3405400000D-01  0.1000000000D+01
 D   3 1.00       0.000000000000
      0.2599240000D+02  0.5411706153D-01
      0.7086340000D+01  0.2873032281D+00
      0.2348710000D+01  0.7854540223D+00
 D   1 1.00       0.000000000000
      0.8001980000D+00  0.1000000000D+01
 D   1 1.00       0.000000000000
      0.2620490000D+00  0.1000000000D+01
 D   1 1.00       0.000000000000
      0.7200000000D-01  0.1000000000D+01
 F   1 1.00       0.000000000000
      0.6900000000D+00  0.1000000000D+01
 ****
      2 0
 S   6 1.00       0.000000000000
      0.1058190000D+06  0.7380002465D-03
      0.1587200000D+05  0.5718001910D-02
      0.3619650000D+04  0.2949500985D-01
      0.1030800000D+04  0.1172860392D+00
      0.3399080000D+03  0.3629491212D+00
      0.1245380000D+03  0.5841491951D+00
 S   3 1.00       0.000000000000
      0.1245380000D+03  0.1341769734D+00
      0.4951350000D+02  0.6242498762D+00
      0.2080560000D+02  0.2917559421D+00
 S   1 1.00       0.000000000000
      0.6583460000D+01  0.1000000000D+01
 S   1 1.00       0.000000000000
      0.2564680000D+01  0.1000000000D+01
 S   1 1.00       0.000000000000
      0.5597630000D+00  0.1000000000D+01
 S   1 1.00       0.000000000000
      0.1832730000D+00  0.1000000000D+01
 SP   1 1.00       0.000000000000
      0.4830000000D-01  0.1000000000D+01  0.1000000000D+01
 P   5 1.00       0.000000000000
      0.5897760000D+03  0.3665569355D-02
      0.1398490000D+03  0.2836791942D-01
      0.4514130000D+02  0.1247566028D+00
      0.1687330000D+02  0.3396546305D+00
      0.2771520000D+01  0.7475859630D+00
 P   2 1.00       0.000000000000
      0.6741100000D+01 -0.1572243813D+01
      0.2771520000D+01  0.9923888817D+00
 P   1 1.00       0.000000000000
      0.1023870000D+01  0.1000000000D+01
 P   1 1.00       0.000000000000
      0.3813680000D+00  0.1000000000D+01
 P   1 1.00       0.000000000000
      0.1094370000D+00  0.1000000000D+01
 D   1 1.00       0.000000000000
      0.7500000000D+00  0.1000000000D+01
 ****

    88 basis functions,   147 primitive gaussians,    96 cartesian basis functions
    21 alpha electrons       18 beta electrons
       nuclear repulsion energy        86.9747306417 Hartrees.
 IExCor= 1614 DFT=T Ex+Corr=B971 ExCW=0 ScaHFX=  0.210000
 ScaDFX=  1.000000  1.000000  1.000000  1.000000 ScalE2=  1.000000  1.000000
 IRadAn=      5 IRanWt=     -1 IRanGd=            0 ICorTp=0 IEmpDi=  4
 NAtoms=    2 NActive=    2 NUniq=    2 SFac= 1.00D+00 NAtFMM=   60 NAOKFM=F Big=F
 Integral buffers will be    131072 words long.
 Raffenetti 2 integral format.
 Two-electron integral symmetry is turned off.
 Leave Link  301 at Wed Feb 11 17:52:01 2015, MaxMem=   524288000 cpu:         0.6
 (Enter /opt/g09/l302.exe)
 NPDir=0 NMtPBC=     1 NCelOv=     1 NCel=       1 NClECP=     1 NCelD=      1
         NCelK=      1 NCelE2=     1 NClLst=     1 CellRange=     0.0.
 One-electron integrals computed using PRISM.
 NBasis=    88 RedAO= T EigKep=  3.12D-03  NBF=    88
 NBsUse=    88 1.00D-06 EigRej= -1.00D+00 NBFU=    88
 Precomputing XC quadrature grid using
 IXCGrd= 4 IRadAn=           5 IRanWt=          -1 IRanGd=           0 AccXCQ= 0.00D+00.
 Generated NRdTot=       0 NPtTot=           0 NUsed=           0 NTot=          32
 NSgBfM=    92    92    92    92    93 MxSgAt=     2 MxSgA2=     2.
 Leave Link  302 at Wed Feb 11 17:52:01 2015, MaxMem=   524288000 cpu:         1.6
 (Enter /opt/g09/l303.exe)
 DipDrv:  MaxL=1.
 Leave Link  303 at Wed Feb 11 17:52:02 2015, MaxMem=   524288000 cpu:         0.3
 (Enter /opt/g09/l401.exe)
 Initial guess from the checkpoint file:  "/scratch/pb556/g09_run/ticl_thermo//Gau-16024.chk"
 B after Tr=     0.000000    0.000000    0.000000
         Rot=    1.000000    0.000000    0.000000    0.000000 Ang=   0.00 deg.
 Guess basis will be translated and rotated to current coordinates.
 JPrj=2 DoOrth=T DoCkMO=T.
 Initial guess <Sx>= 0.0000 <Sy>= 0.0000 <Sz>= 1.5000 <S**2>= 3.7541 S= 1.5010
 Leave Link  401 at Wed Feb 11 17:52:02 2015, MaxMem=   524288000 cpu:         0.9
 (Enter /opt/g09/l502.exe)
 UHF open shell SCF:
 Using DIIS extrapolation, IDIIS=  1040.
 Two-electron integral symmetry not used.
 Keep R1 and R2 ints in memory in canonical form, NReq=17348952.
 IVT=       34938 IEndB=       34938 NGot=   524288000 MDV=   508914091
 LenX=   508914091 LenY=   508904434
 Requested convergence on RMS density matrix=1.00D-08 within  64 cycles.
 Requested convergence on MAX density matrix=1.00D-06.
 Requested convergence on             energy=1.00D-06.
 No special actions if energy rises.
 FoFCou: FMM=F IPFlag=           0 FMFlag=           0 FMFlg1=           0
         NFxFlg=           0 DoJE=F BraDBF=F KetDBF=F FulRan=T
         wScrn=  0.000000 ICntrl=     600 IOpCl=  0 I1Cent=           0 NGrid=           0
         NMat0=    1 NMatS0=   3916 NMatT0=    0 NMatD0=    1 NMtDS0=    0 NMtDT0=    0
 Symmetry not used in FoFCou.

 Cycle   1  Pass 1  IDiag  1:
 E= -1309.50903952879    
 DIIS: error= 5.21D-08 at cycle   1 NSaved=   1.
 NSaved= 1 IEnMin= 1 EnMin= -1309.50903952879     IErMin= 1 ErrMin= 5.21D-08
 ErrMax= 5.21D-08  0.00D+00 EMaxC= 1.00D-01 BMatC= 4.18D-14 BMatP= 4.18D-14
 IDIUse=1 WtCom= 1.00D+00 WtEn= 0.00D+00
 Coeff-Com:  0.100D+01
 Coeff:      0.100D+01
 Gap=     0.100 Goal=   None    Shift=    0.000
 Gap=     0.236 Goal=   None    Shift=    0.000
 RMSDP=5.23D-09 MaxDP=1.26D-07              OVMax= 7.61D-07

 SCF Done:  E(UB971) =  -1309.50903953     A.U. after    1 cycles
            NFock=  1  Conv=0.52D-08     -V/T= 2.0013
 <Sx>= 0.0000 <Sy>= 0.0000 <Sz>= 1.5000 <S**2>= 3.7541 S= 1.5010
 <L.S>= 0.000000000000E+00
 KE= 1.307765016288D+03 PE=-3.281831669107D+03 EE= 5.775828826490D+02
 Annihilation of the first spin contaminant:
 S**2 before annihilation     3.7541,   after     3.7500
 Leave Link  502 at Wed Feb 11 17:52:03 2015, MaxMem=   524288000 cpu:         6.4
 (Enter /opt/g09/l508.exe)
 QCSCF skips out because SCF is already converged.
 Leave Link  508 at Wed Feb 11 17:52:03 2015, MaxMem=   524288000 cpu:         0.0
 (Enter /opt/g09/l801.exe)
 DoSCS=F DFT=T ScalE2(SS,OS)=  1.000000  1.000000
 Range of M.O.s used for correlation:     1    88
 NBasis=    88 NAE=    21 NBE=    18 NFC=     0 NFV=     0
 NROrb=     88 NOA=    21 NOB=    18 NVA=    67 NVB=    70
 Leave Link  801 at Wed Feb 11 17:52:03 2015, MaxMem=   524288000 cpu:         0.3
 (Enter /opt/g09/l1101.exe)
 Using compressed storage, NAtomX=     2.
 Will process      3 centers per pass.
 Leave Link 1101 at Wed Feb 11 17:52:03 2015, MaxMem=   524288000 cpu:         2.1
 (Enter /opt/g09/l1102.exe)
 Symmetrizing basis deriv contribution to polar:
 IMax=3 JMax=2 DiffMx= 0.00D+00
 Leave Link 1102 at Wed Feb 11 17:52:03 2015, MaxMem=   524288000 cpu:         0.3
 (Enter /opt/g09/l1110.exe)
 Forming Gx(P) for the SCF density, NAtomX=     2.
 Integral derivatives from FoFJK, PRISM(SPDF).
 Do as many integral derivatives as possible in FoFJK.
 G2DrvN: MDV=     524287880.
 G2DrvN: will do     3 centers at a time, making    1 passes.
 Calling FoFCou, ICntrl=  3107 FMM=F I1Cent=   0 AccDes= 0.00D+00.
 FoFJK:  IHMeth= 1 ICntrl=    3107 DoSepK=F KAlg= 0 I1Cent=   0 FoldK=F
 IRaf=         0 NMat=   1 IRICut=       1 DoRegI=T DoRafI=F ISym2E= 0.
 FoFCou: FMM=F IPFlag=           0 FMFlag=      100000 FMFlg1=           0
         NFxFlg=           0 DoJE=F BraDBF=F KetDBF=F FulRan=T
         wScrn=  0.000000 ICntrl=    3107 IOpCl=  1 I1Cent=           0 NGrid=           0
         NMat0=    1 NMatS0=      1 NMatT0=    0 NMatD0=    1 NMtDS0=    0 NMtDT0=    0
 Symmetry not used in FoFCou.
 End of G2Drv F.D. properties file   721 does not exist.
 End of G2Drv F.D. properties file   722 does not exist.
 End of G2Drv F.D. properties file   788 does not exist.
 Leave Link 1110 at Wed Feb 11 17:52:06 2015, MaxMem=   524288000 cpu:        23.1
 (Enter /opt/g09/l1002.exe)
 Minotr:  UHF open shell wavefunction.
          IDoAtm=11
          Direct CPHF calculation.
          Differentiating once with respect to electric field.
                with respect to dipole field.
          Differentiating once with respect to nuclear coordinates.
          Requested convergence is 1.0D-08 RMS, and 1.0D-07 maximum.
          Secondary convergence is 1.0D-12 RMS, and 1.0D-12 maximum.
          NewPWx=T KeepS1=F KeepF1=F KeepIn=T MapXYZ=F SortEE=F KeepMc=T.
          MDV=     524287800 using IRadAn=       1.
 Generate precomputed XC quadrature information.
 Keep R1 and R2 ints in memory in canonical form, NReq=17328989.
 FoFCou: FMM=F IPFlag=           0 FMFlag=           0 FMFlg1=           0
         NFxFlg=           0 DoJE=F BraDBF=F KetDBF=F FulRan=T
         wScrn=  0.000000 ICntrl=     600 IOpCl=  0 I1Cent=           0 NGrid=           0
         NMat0=    1 NMatS0=   3916 NMatT0=    0 NMatD0=    1 NMtDS0=    0 NMtDT0=    0
 Symmetry not used in FoFCou.
          Solving linear equations simultaneously, MaxMat=       0.
          There are     9 degrees of freedom in the 1st order CPHF.  IDoFFX=6 NUNeed=     3.
      6 vectors produced by pass  0 Test12= 2.96D-14 1.11D-08 XBig12= 2.45D+02 1.28D+01.
 AX will form     6 AO Fock derivatives at one time.
      6 vectors produced by pass  1 Test12= 2.96D-14 1.11D-08 XBig12= 4.78D+01 2.54D+00.
      6 vectors produced by pass  2 Test12= 2.96D-14 1.11D-08 XBig12= 7.94D+00 7.61D-01.
      6 vectors produced by pass  3 Test12= 2.96D-14 1.11D-08 XBig12= 1.06D+00 4.86D-01.
      6 vectors produced by pass  4 Test12= 2.96D-14 1.11D-08 XBig12= 9.43D-02 1.10D-01.
      6 vectors produced by pass  5 Test12= 2.96D-14 1.11D-08 XBig12= 5.56D-03 2.05D-02.
      6 vectors produced by pass  6 Test12= 2.96D-14 1.11D-08 XBig12= 1.79D-04 3.74D-03.
      6 vectors produced by pass  7 Test12= 2.96D-14 1.11D-08 XBig12= 2.73D-06 3.96D-04.
      6 vectors produced by pass  8 Test12= 2.96D-14 1.11D-08 XBig12= 4.76D-08 4.57D-05.
      4 vectors produced by pass  9 Test12= 2.96D-14 1.11D-08 XBig12= 6.27D-10 5.36D-06.
      3 vectors produced by pass 10 Test12= 2.96D-14 1.11D-08 XBig12= 9.87D-12 8.00D-07.
      2 vectors produced by pass 11 Test12= 2.96D-14 1.11D-08 XBig12= 7.84D-14 7.66D-08.
 InvSVY:  IOpt=1 It=  1 EMax= 1.11D-15
 Solved reduced A of dimension    63 with     6 vectors.
 FullF1:  Do perturbations    1 to     3.
 Isotropic polarizability for W=    0.000000       99.25 Bohr**3.
 End of Minotr F.D. properties file   721 does not exist.
 End of Minotr F.D. properties file   722 does not exist.
 End of Minotr F.D. properties file   788 does not exist.
 Leave Link 1002 at Wed Feb 11 17:52:12 2015, MaxMem=   524288000 cpu:        47.5
 (Enter /opt/g09/l701.exe)
 Compute integral second derivatives.
 ... and contract with generalized density number  0.
 Leave Link  701 at Wed Feb 11 17:52:13 2015, MaxMem=   524288000 cpu:         4.1
 (Enter /opt/g09/l702.exe)
 L702 exits ... SP integral derivatives will be done elsewhere.
 Leave Link  702 at Wed Feb 11 17:52:13 2015, MaxMem=   524288000 cpu:         0.2
 (Enter /opt/g09/l703.exe)
 Compute integral second derivatives, UseDBF=F ICtDFT=           0.
 Integral derivatives from FoFJK, PRISM(SPDF).
 Calling FoFJK, ICntrl=    100127 FMM=F ISym2X=0 I1Cent= 0 IOpClX= 1 NMat=1 NMatS=1 NMatT=0.
 FoFJK:  IHMeth= 1 ICntrl=  100127 DoSepK=F KAlg= 0 I1Cent=   0 FoldK=F
 IRaf=         0 NMat=   1 IRICut=       1 DoRegI=T DoRafI=F ISym2E= 0.
 FoFCou: FMM=F IPFlag=           0 FMFlag=      100000 FMFlg1=         800
         NFxFlg=           0 DoJE=F BraDBF=F KetDBF=F FulRan=T
         wScrn=  0.000000 ICntrl=  100127 IOpCl=  1 I1Cent=           0 NGrid=           0
         NMat0=    1 NMatS0=      1 NMatT0=    0 NMatD0=    1 NMtDS0=    0 NMtDT0=    0
 Symmetry not used in FoFCou.
 Leave Link  703 at Wed Feb 11 17:52:20 2015, MaxMem=   524288000 cpu:        54.5
 (Enter /opt/g09/l716.exe)
 Dipole        = 5.50644840D-01-4.03146391D-01 1.50442937D+00
 Polarizability= 9.56797446D+01-1.57037051D+00 9.59231708D+01
                 4.20530695D+00-2.78895263D+00 1.06147574D+02
 Full mass-weighted force constant matrix:
 Low frequencies ---   -0.0049   -0.0044   -0.0025    7.0976   15.7973  397.2071
 Diagonal vibrational polarizability:
        1.2090371       0.6508714       9.0533864
 Harmonic frequencies (cm**-1), IR intensities (KM/Mole), Raman scattering
 activities (A**4/AMU), depolarization ratios for plane and unpolarized
 incident light, reduced masses (AMU), force constants (mDyne/A),
 and normal coordinates:
                      1
                      A
 Frequencies --    397.2070
 Red. masses --     39.4754
 Frc consts  --      3.6695
 IR Inten    --     63.9818
  Atom  AN      X      Y      Z
     1  22     0.20  -0.14   0.54
     2  17    -0.27   0.20  -0.74

 -------------------
 - Thermochemistry -
 -------------------
 Temperature   298.150 Kelvin.  Pressure   1.00000 Atm.
 Atom     1 has atomic number 22 and mass  47.94795
 Atom     2 has atomic number 17 and mass  34.96885
 Molecular mass:    82.91680 amu.
 Principal axes and moments of inertia in atomic units:
                           1         2         3
     Eigenvalues --     0.00000 373.90897 373.90897
           X            0.33332  -0.20236   0.92084
           Y           -0.24405   0.92489   0.29159
           Z            0.91068   0.32193  -0.25890
 This molecule is a prolate symmetric top.
 Rotational symmetry number  1.
 Rotational temperature (Kelvin)      0.23164
 Rotational constant (GHZ):           4.826686
 Zero-point vibrational energy       2375.8 (Joules/Mol)
                                    0.56784 (Kcal/Mol)
 Warning -- explicit consideration of   1 degrees of freedom as
           vibrations may cause significant error
 Vibrational temperatures:    571.49
          (Kelvin)
 
 Zero-point correction=                           0.000905 (Hartree/Particle)
 Thermal correction to Energy=                    0.003577
 Thermal correction to Enthalpy=                  0.004522
 Thermal correction to Gibbs Free Energy=        -0.023560
 Sum of electronic and zero-point Energies=          -1309.508135
 Sum of electronic and thermal Energies=             -1309.505462
 Sum of electronic and thermal Enthalpies=           -1309.504518
 Sum of electronic and thermal Free Energies=        -1309.532600
 
                     E (Thermal)             CV                S
                      KCal/Mol        Cal/Mol-Kelvin    Cal/Mol-Kelvin
 Total                    2.245              6.444             59.103
 Electronic               0.000              0.000              2.755
 Translational            0.889              2.981             39.160
 Rotational               0.592              1.987             16.216
 Vibrational              0.764              1.476              0.973
 Vibration     1          0.764              1.476              0.973
                       Q            Log10(Q)             Ln(Q)
 Total Bot       0.687001D+11         10.836957         24.953016
 Total V=0       0.179136D+12         11.253183         25.911412
 Vib (Bot)       0.449640D+00         -0.347135         -0.799309
 Vib (Bot)    1  0.449640D+00         -0.347135         -0.799309
 Vib (V=0)       0.117244D+01          0.069091          0.159087
 Vib (V=0)    1  0.117244D+01          0.069091          0.159087
 Electronic      0.400000D+01          0.602060          1.386294
 Translational   0.296769D+08          7.472419         17.205881
 Rotational      0.128710D+04          3.109614          7.160150
 -------------------------------------------------------------------
 Center     Atomic                   Forces (Hartrees/Bohr)
 Number     Number              X              Y              Z
 -------------------------------------------------------------------
      1       22          -0.000000804   -0.000002908   -0.000000380
      2       17           0.000000804    0.000002908    0.000000380
 -------------------------------------------------------------------
 Cartesian Forces:  Max     0.000002908 RMS     0.000001756
 Force constants in Cartesian coordinates: 
                1             2             3             4             5 
      1  0.135301D-01
      2 -0.987630D-02  0.728488D-02
      3  0.366501D-01 -0.267338D-01  0.100150D+00
      4 -0.135301D-01  0.987630D-02 -0.366501D-01  0.135301D-01
      5  0.987630D-02 -0.728488D-02  0.267338D-01 -0.987630D-02  0.728488D-02
      6 -0.366501D-01  0.267338D-01 -0.100150D+00  0.366501D-01 -0.267338D-01
                6 
      6  0.100150D+00
 FormGI is forming the generalized inverse of G from B-inverse, IUseBI=4.
 Force constants in internal coordinates: 
                1 
      1  0.120735D+00
 Leave Link  716 at Wed Feb 11 17:52:20 2015, MaxMem=   524288000 cpu:         0.3
 (Enter /opt/g09/l103.exe)

 GradGradGradGradGradGradGradGradGradGradGradGradGradGradGradGradGradGrad
 Berny optimization.
 Red2BG is reusing G-inverse.
 Internal  Forces:  Max     0.000000095 RMS     0.000000095
 Search for a local minimum.
 Step number   1 out of a maximum of    2
 All quantities printed in internal units (Hartrees-Bohrs-Radians)
 Second derivative matrix not updated -- analytic derivatives used.
 The second derivative matrix:
                          R1
           R1           0.12074
 ITU=  0
     Eigenvalues ---    0.12074
 Angle between quadratic step and forces=  90.00 degrees.
 Linear search not attempted -- first point.
 Iteration  1 RMS(Cart)=  0.00000056 RMS(Int)=  0.00000000
 ITry= 1 IFail=0 DXMaxC= 3.60D-07 DCOld= 1.00D+10 DXMaxT= 3.00D-01 DXLimC= 3.00D+00 Rises=F
 Variable       Old X    -DE/DX   Delta X   Delta X   Delta X     New X
                                 (Linear)    (Quad)   (Total)
    R1        4.30010   0.00000   0.00000   0.00000   0.00000   4.30010
         Item               Value     Threshold  Converged?
 Maximum Force            0.000000     0.000015     YES
 RMS     Force            0.000000     0.000010     YES
 Maximum Displacement     0.000000     0.000060     YES
 RMS     Displacement     0.000001     0.000040     YES
 Predicted change in Energy=-3.764962D-14
 Optimization completed.
    -- Stationary point found.
                           ----------------------------
                           !   Optimized Parameters   !
                           ! (Angstroms and Degrees)  !
 --------------------------                            --------------------------
 ! Name  Definition              Value          Derivative Info.                !
 --------------------------------------------------------------------------------
 ! R1    R(1,2)                  2.2755         -DE/DX =    0.0                 !
 --------------------------------------------------------------------------------
 GradGradGradGradGradGradGradGradGradGradGradGradGradGradGradGradGradGrad

 Leave Link  103 at Wed Feb 11 17:52:20 2015, MaxMem=   524288000 cpu:         0.0
 (Enter /opt/g09/l9999.exe)
 1\1\GINC-RENOIR\Freq\UB971\6-311+G(d,p)\Cl1Ti1(4)\PB556\11-Feb-2015\0\
 \#P Geom=AllCheck Guess=TCheck SCRF=Check GenChk UB971/6-311+G(d,p) Fr
 eq\\W:\Data\TiCl\esc\B971\gs\new\monomer\fine\success\fine-ClTi.g09\\0
 ,4\Ti,-6.16711,-0.35728,0.29393\Cl,-6.92559,0.19807,-1.77833\\Version=
 ES64L-G09RevD.01\HF=-1309.5090395\S2=3.754099\S2-1=0.\S2A=3.750006\RMS
 D=5.228e-09\RMSF=1.756e-06\Thermal=0.0035775\Dipole=0.5506448,-0.40314
 64,1.5044294\DipoleDeriv=0.4674445,-0.0618371,0.2333218,-0.0608762,0.4
 272722,-0.1720342,0.2336443,-0.1717924,1.020676,-0.4674445,0.0618371,-
 0.2333218,0.0608762,-0.4272722,0.1720342,-0.2336443,0.1717924,-1.02067
 6\Polar=95.6797446,-1.5703705,95.9231708,4.2053069,-2.7889526,106.1475
 745\PG=C*V [C*(Cl1Ti1)]\NImag=0\\0.01353010,-0.00987630,0.00728488,0.0
 3665006,-0.02673379,0.10014986,-0.01353010,0.00987630,-0.03665006,0.01
 353010,0.00987630,-0.00728488,0.02673379,-0.00987630,0.00728488,-0.036
 65006,0.02673379,-0.10014986,0.03665006,-0.02673379,0.10014986\\0.0000
 0080,0.00000291,0.00000038,-0.00000080,-0.00000291,-0.00000038\\\@


 "A LITTLE BIT GOES A LONG WAY"
 R.S. MULLIKEN AS QUOTED BY K. RUEDENBERG
 Job cpu time:       0 days  0 hours  2 minutes 28.3 seconds.
 File lengths (MBytes):  RWF=      9 Int=      0 D2E=      0 Chk=      2 Scr=      1
 Normal termination of Gaussian 09 at Wed Feb 11 17:52:20 2015.
