 Entering Gaussian System, Link 0=g09
 Input=freq-fine-OTi.gau
 Output=freq-fine-OTi.log
 Initial command:
 /opt/g09/l1.exe "/scratch/pb556/g09_run/ticl_thermo//Gau-10838.inp" -scrdir="/scratch/pb556/g09_run/ticl_thermo//"
 Entering Link 1 = /opt/g09/l1.exe PID=     10850.
  
 Copyright (c) 1988,1990,1992,1993,1995,1998,2003,2009,2013,
            Gaussian, Inc.  All Rights Reserved.
  
 This is part of the Gaussian(R) 09 program.  It is based on
 the Gaussian(R) 03 system (copyright 2003, Gaussian, Inc.),
 the Gaussian(R) 98 system (copyright 1998, Gaussian, Inc.),
 the Gaussian(R) 94 system (copyright 1995, Gaussian, Inc.),
 the Gaussian 92(TM) system (copyright 1992, Gaussian, Inc.),
 the Gaussian 90(TM) system (copyright 1990, Gaussian, Inc.),
 the Gaussian 88(TM) system (copyright 1988, Gaussian, Inc.),
 the Gaussian 86(TM) system (copyright 1986, Carnegie Mellon
 University), and the Gaussian 82(TM) system (copyright 1983,
 Carnegie Mellon University). Gaussian is a federally registered
 trademark of Gaussian, Inc.
  
 This software contains proprietary and confidential information,
 including trade secrets, belonging to Gaussian, Inc.
  
 This software is provided under written license and may be
 used, copied, transmitted, or stored only in accord with that
 written license.
  
 The following legend is applicable only to US Government
 contracts under FAR:
  
                    RESTRICTED RIGHTS LEGEND
  
 Use, reproduction and disclosure by the US Government is
 subject to restrictions as set forth in subparagraphs (a)
 and (c) of the Commercial Computer Software - Restricted
 Rights clause in FAR 52.227-19.
  
 Gaussian, Inc.
 340 Quinnipiac St., Bldg. 40, Wallingford CT 06492
  
  
 ---------------------------------------------------------------
 Warning -- This program may not be used in any manner that
 competes with the business of Gaussian, Inc. or will provide
 assistance to any competitor of Gaussian, Inc.  The licensee
 of this program is prohibited from giving any competitor of
 Gaussian, Inc. access to this program.  By using this program,
 the user acknowledges that Gaussian, Inc. is engaged in the
 business of creating and licensing software in the field of
 computational chemistry and represents and warrants to the
 licensee that it is not a competitor of Gaussian, Inc. and that
 it will not use this program in any manner prohibited above.
 ---------------------------------------------------------------
  

 Cite this work as:
 Gaussian 09, Revision D.01,
 M. J. Frisch, G. W. Trucks, H. B. Schlegel, G. E. Scuseria, 
 M. A. Robb, J. R. Cheeseman, G. Scalmani, V. Barone, B. Mennucci, 
 G. A. Petersson, H. Nakatsuji, M. Caricato, X. Li, H. P. Hratchian, 
 A. F. Izmaylov, J. Bloino, G. Zheng, J. L. Sonnenberg, M. Hada, 
 M. Ehara, K. Toyota, R. Fukuda, J. Hasegawa, M. Ishida, T. Nakajima, 
 Y. Honda, O. Kitao, H. Nakai, T. Vreven, J. A. Montgomery, Jr., 
 J. E. Peralta, F. Ogliaro, M. Bearpark, J. J. Heyd, E. Brothers, 
 K. N. Kudin, V. N. Staroverov, T. Keith, R. Kobayashi, J. Normand, 
 K. Raghavachari, A. Rendell, J. C. Burant, S. S. Iyengar, J. Tomasi, 
 M. Cossi, N. Rega, J. M. Millam, M. Klene, J. E. Knox, J. B. Cross, 
 V. Bakken, C. Adamo, J. Jaramillo, R. Gomperts, R. E. Stratmann, 
 O. Yazyev, A. J. Austin, R. Cammi, C. Pomelli, J. W. Ochterski, 
 R. L. Martin, K. Morokuma, V. G. Zakrzewski, G. A. Voth, 
 P. Salvador, J. J. Dannenberg, S. Dapprich, A. D. Daniels, 
 O. Farkas, J. B. Foresman, J. V. Ortiz, J. Cioslowski, 
 and D. J. Fox, Gaussian, Inc., Wallingford CT, 2013.
 
 ******************************************
 Gaussian 09:  ES64L-G09RevD.01 24-Apr-2013
                12-Feb-2015 
 ******************************************
 %NProcShared=8
 Will use up to    8 processors via shared memory.
 %Mem=500MW
 ----------------------------------------------------------------------
 #p uB971/6-311+G(d,p) Opt=(Tight, CalcAll) Freq GFInput Population=Non
 e Integral(Grid=UltraFine) SCF=XQC Guess=MIX NoSymmetry
 ----------------------------------------------------------------------
 1/7=10,10=4,14=-1,18=20,19=15,26=4,38=1/1,3;
 2/9=110,12=2,15=1,17=6,18=5,40=1/2;
 3/5=4,6=6,7=111,11=2,16=1,24=10,25=1,30=1,71=2,74=-20,75=-5,116=2,140=1/1,2,3;
 4/13=-1/1;
 5/5=2,8=3,13=1,38=5/2,8;
 8/6=4,10=90,11=11/1;
 11/6=1,8=1,9=11,15=111,16=1,31=1/1,2,10;
 10/6=1,31=1/2;
 7/10=1,25=1,30=1/1,2,3,16;
 1/7=10,10=4,14=-1,18=20,19=15,26=4/3(3);
 2/9=110,15=1/2;
 7/8=1,9=1,25=1,30=1,44=-1/16;
 99//99;
 2/9=110,15=1/2;
 3/5=4,6=6,7=111,11=2,16=1,25=1,30=1,71=2,74=-20,75=-5,116=2,140=1/1,2,3;
 4/5=5,16=3,69=1/1;
 5/5=2,8=3,13=1,38=5/2,8;
 8/6=4,10=90,11=11/1;
 11/6=1,8=1,9=11,15=111,16=1,31=1/1,2,10;
 10/6=1,31=1/2;
 7/10=1,25=1,30=1/1,2,3,16;
 1/7=10,10=4,14=-1,18=20,19=15,26=4/3(-8);
 2/9=110,15=1/2;
 7/8=1,9=1,25=1,30=1,44=-1/16;
 99//99;
 Leave Link    1 at Thu Feb 12 08:44:33 2015, MaxMem=   524288000 cpu:         0.7
 (Enter /opt/g09/l101.exe)
 --------------------------------------------------------------
 W:\Data\TiCl\esc\B971\gs\new\monomer\fine\success\fine-OTi.g09
 --------------------------------------------------------------
 Symbolic Z-matrix:
 Charge =  0 Multiplicity = 3
 Ti                    0.04035   0.        0. 
 O                     1.64525   0.        0. 
 
 NAtoms=      2 NQM=        2 NQMF=       0 NMMI=      0 NMMIF=      0
                NMic=       0 NMicF=      0.
                    Isotopes and Nuclear Properties:
 (Nuclear quadrupole moments (NQMom) in fm**2, nuclear magnetic moments (NMagM)
  in nuclear magnetons)

  Atom         1           2
 IAtWgt=          48          16
 AtmWgt=  47.9479467  15.9949146
 NucSpn=           0           0
 AtZEff=   0.0000000   0.0000000
 NQMom=    0.0000000   0.0000000
 NMagM=    0.0000000   0.0000000
 AtZNuc=  22.0000000   8.0000000
 Leave Link  101 at Thu Feb 12 08:44:33 2015, MaxMem=   524288000 cpu:         1.8
 (Enter /opt/g09/l103.exe)

 GradGradGradGradGradGradGradGradGradGradGradGradGradGradGradGradGradGrad
 Berny optimization.
 Initialization pass.
                           ----------------------------
                           !    Initial Parameters    !
                           ! (Angstroms and Degrees)  !
 --------------------------                            --------------------------
 ! Name  Definition              Value          Derivative Info.                !
 --------------------------------------------------------------------------------
 ! R1    R(1,2)                  1.6049         calculate D2E/DX2 analytically  !
 --------------------------------------------------------------------------------
 Trust Radius=3.00D-01 FncErr=1.00D-07 GrdErr=1.00D-06
 Number of steps in this run=     20 maximum allowed number of steps=    100.
 GradGradGradGradGradGradGradGradGradGradGradGradGradGradGradGradGradGrad

 Leave Link  103 at Thu Feb 12 08:44:33 2015, MaxMem=   524288000 cpu:         0.1
 (Enter /opt/g09/l202.exe)
                          Input orientation:                          
 ---------------------------------------------------------------------
 Center     Atomic      Atomic             Coordinates (Angstroms)
 Number     Number       Type             X           Y           Z
 ---------------------------------------------------------------------
      1         22           0        0.040350    0.000000    0.000000
      2          8           0        1.645250    0.000000    0.000000
 ---------------------------------------------------------------------
 Symmetry turned off by external request.
 Stoichiometry    OTi(3)
 Framework group  C*V[C*(OTi)]
 Deg. of freedom     1
 Full point group                 C*V     NOp   4
 Rotational constants (GHZ):      0.0000000     16.3591738     16.3591738
 Leave Link  202 at Thu Feb 12 08:44:33 2015, MaxMem=   524288000 cpu:         0.0
 (Enter /opt/g09/l301.exe)
 Standard basis: 6-311+G(d,p) (5D, 7F)
 Ernie: Thresh=  0.10000D-02 Tol=  0.10000D-05 Strict=F.
 AO basis set in the form of general basis input (Overlap normalization):
      1 0
 S   6 1.00       0.000000000000
      0.2060820000D+06  0.5673151380D-03
      0.3122680000D+05  0.4379672866D-02
      0.7199320000D+04  0.2242029425D-01
      0.2048750000D+04  0.9063426645D-01
      0.6707900000D+03  0.2890357165D+00
      0.2436500000D+03  0.6803470061D+00
 S   1 1.00       0.000000000000
      0.9592500000D+02  0.1000000000D+01
 S   1 1.00       0.000000000000
      0.3981010000D+02  0.1000000000D+01
 S   1 1.00       0.000000000000
      0.1222050000D+02  0.1000000000D+01
 S   1 1.00       0.000000000000
      0.5008820000D+01  0.1000000000D+01
 S   1 1.00       0.000000000000
      0.1285690000D+01  0.1000000000D+01
 S   1 1.00       0.000000000000
      0.5128060000D+00  0.1000000000D+01
 S   1 1.00       0.000000000000
      0.8557600000D-01  0.1000000000D+01
 S   1 1.00       0.000000000000
      0.3330200000D-01  0.1000000000D+01
 S   1 1.00       0.000000000000
      0.9991000000D-02  0.1000000000D+01
 P   5 1.00       0.000000000000
      0.1264700000D+04  0.3122017423D-02
      0.3012300000D+03  0.2516579464D-01
      0.9697770000D+02  0.1184178291D+00
      0.3637270000D+02  0.3522190030D+00
      0.1478140000D+02  0.6219379661D+00
 P   1 1.00       0.000000000000
      0.6274650000D+01  0.1000000000D+01
 P   1 1.00       0.000000000000
      0.2478780000D+01  0.1000000000D+01
 P   1 1.00       0.000000000000
      0.1016180000D+01  0.1000000000D+01
 P   1 1.00       0.000000000000
      0.3981620000D+00  0.1000000000D+01
 P   1 1.00       0.000000000000
      0.1015610000D+00  0.1000000000D+01
 P   1 1.00       0.000000000000
      0.3405400000D-01  0.1000000000D+01
 D   3 1.00       0.000000000000
      0.2599240000D+02  0.5411706153D-01
      0.7086340000D+01  0.2873032281D+00
      0.2348710000D+01  0.7854540223D+00
 D   1 1.00       0.000000000000
      0.8001980000D+00  0.1000000000D+01
 D   1 1.00       0.000000000000
      0.2620490000D+00  0.1000000000D+01
 D   1 1.00       0.000000000000
      0.7200000000D-01  0.1000000000D+01
 F   1 1.00       0.000000000000
      0.6900000000D+00  0.1000000000D+01
 ****
      2 0
 S   6 1.00       0.000000000000
      0.8588500000D+04  0.1895150083D-02
      0.1297230000D+04  0.1438590063D-01
      0.2992960000D+03  0.7073200310D-01
      0.8737710000D+02  0.2400010105D+00
      0.2567890000D+02  0.5947970261D+00
      0.3740040000D+01  0.2808020123D+00
 SP   3 1.00       0.000000000000
      0.4211750000D+02  0.1138890124D+00  0.3651139738D-01
      0.9628370000D+01  0.9208111006D+00  0.2371529830D+00
      0.2853320000D+01 -0.3274470358D-02  0.8197019412D+00
 SP   1 1.00       0.000000000000
      0.9056610000D+00  0.1000000000D+01  0.1000000000D+01
 SP   1 1.00       0.000000000000
      0.2556110000D+00  0.1000000000D+01  0.1000000000D+01
 SP   1 1.00       0.000000000000
      0.8450000000D-01  0.1000000000D+01  0.1000000000D+01
 D   1 1.00       0.000000000000
      0.1292000000D+01  0.1000000000D+01
 ****

    80 basis functions,   130 primitive gaussians,    88 cartesian basis functions
    16 alpha electrons       14 beta electrons
       nuclear repulsion energy        58.0317706473 Hartrees.
 IExCor= 1614 DFT=T Ex+Corr=B971 ExCW=0 ScaHFX=  0.210000
 ScaDFX=  1.000000  1.000000  1.000000  1.000000 ScalE2=  1.000000  1.000000
 IRadAn=      5 IRanWt=     -1 IRanGd=            0 ICorTp=0 IEmpDi=  4
 NAtoms=    2 NActive=    2 NUniq=    2 SFac= 1.00D+00 NAtFMM=   60 NAOKFM=F Big=F
 Integral buffers will be    131072 words long.
 Raffenetti 2 integral format.
 Two-electron integral symmetry is turned off.
 Leave Link  301 at Thu Feb 12 08:44:33 2015, MaxMem=   524288000 cpu:         0.4
 (Enter /opt/g09/l302.exe)
 NPDir=0 NMtPBC=     1 NCelOv=     1 NCel=       1 NClECP=     1 NCelD=      1
         NCelK=      1 NCelE2=     1 NClLst=     1 CellRange=     0.0.
 One-electron integrals computed using PRISM.
 NBasis=    80 RedAO= T EigKep=  1.39D-03  NBF=    80
 NBsUse=    80 1.00D-06 EigRej= -1.00D+00 NBFU=    80
 Precomputing XC quadrature grid using
 IXCGrd= 4 IRadAn=           5 IRanWt=          -1 IRanGd=           0 AccXCQ= 0.00D+00.
 Generated NRdTot=       0 NPtTot=           0 NUsed=           0 NTot=          32
 NSgBfM=    88    88    88    88    88 MxSgAt=     2 MxSgA2=     2.
 Leave Link  302 at Thu Feb 12 08:44:34 2015, MaxMem=   524288000 cpu:         1.6
 (Enter /opt/g09/l303.exe)
 DipDrv:  MaxL=1.
 Leave Link  303 at Thu Feb 12 08:44:34 2015, MaxMem=   524288000 cpu:         0.3
 (Enter /opt/g09/l401.exe)
 ExpMin= 9.99D-03 ExpMax= 2.06D+05 ExpMxC= 7.20D+03 IAcc=3 IRadAn=         5 AccDes= 0.00D+00
 Harris functional with IExCor= 1614 and IRadAn=       5 diagonalized for initial guess.
 HarFok:  IExCor= 1614 AccDes= 0.00D+00 IRadAn=         5 IDoV= 1 UseB2=F ITyADJ=14
 ICtDFT=  3500011 ScaDFX=  1.000000  1.000000  1.000000  1.000000
 FoFCou: FMM=F IPFlag=           0 FMFlag=      100000 FMFlg1=           0
         NFxFlg=           0 DoJE=T BraDBF=F KetDBF=T FulRan=T
         wScrn=  0.000000 ICntrl=     500 IOpCl=  0 I1Cent=   200000004 NGrid=           0
         NMat0=    1 NMatS0=      1 NMatT0=    0 NMatD0=    1 NMtDS0=    0 NMtDT0=    0
 Symmetry not used in FoFCou.
 Harris En= -914.329001546925    
 JPrj=0 DoOrth=F DoCkMO=T.
 Mixing orbitals, IMix= 1 IMixAn=  0 NRI=1 NE=   16 Coef=  7.07106781D-01  7.07106781D-01
 Mixing orbitals, IMix= 1 IMixAn=  0 NRI=1 NE=   14 Coef= -7.07106781D-01  7.07106781D-01
 Initial guess <Sx>= 0.0000 <Sy>= 0.0000 <Sz>= 1.0000 <S**2>= 2.0000 S= 1.0000
 Leave Link  401 at Thu Feb 12 08:44:34 2015, MaxMem=   524288000 cpu:         2.1
 (Enter /opt/g09/l502.exe)
 UHF open shell SCF:
 Using DIIS extrapolation, IDIIS=  1040.
 Two-electron integral symmetry not used.
 Keep R1 and R2 ints in memory in canonical form, NReq=12497719.
 IVT=       30410 IEndB=       30410 NGot=   524288000 MDV=   513756751
 LenX=   513756751 LenY=   513748566
 Requested convergence on RMS density matrix=1.00D-08 within  64 cycles.
 Requested convergence on MAX density matrix=1.00D-06.
 Requested convergence on             energy=1.00D-06.
 No special actions if energy rises.
 FoFCou: FMM=F IPFlag=           0 FMFlag=           0 FMFlg1=           0
         NFxFlg=           0 DoJE=F BraDBF=F KetDBF=F FulRan=T
         wScrn=  0.000000 ICntrl=     600 IOpCl=  0 I1Cent=           0 NGrid=           0
         NMat0=    1 NMatS0=   3240 NMatT0=    0 NMatD0=    1 NMtDS0=    0 NMtDT0=    0
 Symmetry not used in FoFCou.

 Cycle   1  Pass 1  IDiag  1:
 E= -923.783043775999    
 DIIS: error= 2.33D-01 at cycle   1 NSaved=   1.
 NSaved= 1 IEnMin= 1 EnMin= -923.783043775999     IErMin= 1 ErrMin= 2.33D-01
 ErrMax= 2.33D-01  0.00D+00 EMaxC= 1.00D-01 BMatC= 1.14D+01 BMatP= 1.14D+01
 IDIUse=3 WtCom= 0.00D+00 WtEn= 1.00D+00
 Coeff-Com:  0.100D+01
 Coeff-En:   0.100D+01
 Coeff:      0.100D+01
 Gap=     0.043 Goal=   None    Shift=    0.000
 Gap=    -0.021 Goal=   None    Shift=    0.000
 GapD=   -0.021 DampG=0.250 DampE=0.125 DampFc=0.1250 IDamp=-1.
 Damping current iteration by 1.25D-01
 RMSDP=2.13D-02 MaxDP=4.67D-01              OVMax= 1.00D+00

 Cycle   2  Pass 1  IDiag  1:
 E= -923.949716610455     Delta-E=       -0.166672834457 Rises=F Damp=T
 DIIS: error= 2.03D-01 at cycle   2 NSaved=   2.
 NSaved= 2 IEnMin= 2 EnMin= -923.949716610455     IErMin= 2 ErrMin= 2.03D-01
 ErrMax= 2.03D-01  0.00D+00 EMaxC= 1.00D-01 BMatC= 6.41D+00 BMatP= 1.14D+01
 IDIUse=3 WtCom= 0.00D+00 WtEn= 1.00D+00
 Coeff-Com: -0.109D+01 0.209D+01
 Coeff-En:   0.193D+00 0.807D+00
 Coeff:      0.193D+00 0.807D+00
 Gap=     0.159 Goal=   None    Shift=    0.000
 Gap=     0.022 Goal=   None    Shift=    0.000
 RMSDP=1.31D-02 MaxDP=4.09D-01 DE=-1.67D-01 OVMax= 9.65D-01

 Cycle   3  Pass 1  IDiag  1:
 E= -923.669547168468     Delta-E=        0.280169441987 Rises=F Damp=F
 DIIS: error= 1.80D-01 at cycle   3 NSaved=   3.
 NSaved= 3 IEnMin= 2 EnMin= -923.949716610455     IErMin= 3 ErrMin= 1.80D-01
 ErrMax= 1.80D-01  0.00D+00 EMaxC= 1.00D-01 BMatC= 6.63D+00 BMatP= 6.41D+00
 IDIUse=3 WtCom= 0.00D+00 WtEn= 1.00D+00
 EnCoef did   100 forward-backward iterations
 Coeff-Com:  0.638D+00-0.281D+00 0.643D+00
 Coeff-En:   0.520D+00 0.101D-01 0.469D+00
 Coeff:      0.520D+00 0.101D-01 0.469D+00
 Gap=     0.053 Goal=   None    Shift=    0.000
 Gap=     0.313 Goal=   None    Shift=    0.000
 RMSDP=9.69D-03 MaxDP=2.68D-01 DE= 2.80D-01 OVMax= 9.90D-01

 Cycle   4  Pass 1  IDiag  1:
 E= -924.510862318824     Delta-E=       -0.841315150356 Rises=F Damp=F
 DIIS: error= 5.00D-02 at cycle   4 NSaved=   4.
 NSaved= 4 IEnMin= 4 EnMin= -924.510862318824     IErMin= 4 ErrMin= 5.00D-02
 ErrMax= 5.00D-02  0.00D+00 EMaxC= 1.00D-01 BMatC= 2.84D-01 BMatP= 6.41D+00
 IDIUse=3 WtCom= 5.00D-01 WtEn= 5.00D-01
 Coeff-Com: -0.267D+00 0.386D+00 0.566D-01 0.824D+00
 Coeff-En:   0.000D+00 0.000D+00 0.401D-01 0.960D+00
 Coeff:     -0.133D+00 0.193D+00 0.484D-01 0.892D+00
 Gap=     0.127 Goal=   None    Shift=    0.000
 Gap=     0.183 Goal=   None    Shift=    0.000
 RMSDP=4.26D-03 MaxDP=1.49D-01 DE=-8.41D-01 OVMax= 2.01D-01

 Cycle   5  Pass 1  IDiag  1:
 E= -924.373860631508     Delta-E=        0.137001687316 Rises=F Damp=F
 DIIS: error= 9.91D-02 at cycle   5 NSaved=   5.
 NSaved= 5 IEnMin= 4 EnMin= -924.510862318824     IErMin= 4 ErrMin= 5.00D-02
 ErrMax= 9.91D-02  0.00D+00 EMaxC= 1.00D-01 BMatC= 1.11D+00 BMatP= 2.84D-01
 IDIUse=2 WtCom= 0.00D+00 WtEn= 1.00D+00
 Coeff-En:   0.000D+00 0.000D+00 0.000D+00 0.696D+00 0.304D+00
 Coeff:      0.000D+00 0.000D+00 0.000D+00 0.696D+00 0.304D+00
 Gap=     0.095 Goal=   None    Shift=    0.000
 Gap=     0.245 Goal=   None    Shift=    0.000
 RMSDP=1.97D-03 MaxDP=2.83D-02 DE= 1.37D-01 OVMax= 1.07D-01

 Cycle   6  Pass 1  IDiag  1:
 E= -924.556999177144     Delta-E=       -0.183138545636 Rises=F Damp=F
 DIIS: error= 1.86D-02 at cycle   6 NSaved=   6.
 NSaved= 6 IEnMin= 6 EnMin= -924.556999177144     IErMin= 6 ErrMin= 1.86D-02
 ErrMax= 1.86D-02  0.00D+00 EMaxC= 1.00D-01 BMatC= 4.87D-02 BMatP= 2.84D-01
 IDIUse=3 WtCom= 8.14D-01 WtEn= 1.86D-01
 Coeff-Com:  0.483D-02 0.204D-02-0.228D-01 0.202D+00-0.263D-01 0.840D+00
 Coeff-En:   0.000D+00 0.000D+00 0.000D+00 0.195D+00 0.000D+00 0.805D+00
 Coeff:      0.393D-02 0.166D-02-0.186D-01 0.201D+00-0.214D-01 0.834D+00
 Gap=     0.113 Goal=   None    Shift=    0.000
 Gap=     0.260 Goal=   None    Shift=    0.000
 RMSDP=8.46D-04 MaxDP=3.36D-02 DE=-1.83D-01 OVMax= 3.23D-02

 Cycle   7  Pass 1  IDiag  1:
 E= -924.565169274415     Delta-E=       -0.008170097271 Rises=F Damp=F
 DIIS: error= 2.93D-03 at cycle   7 NSaved=   7.
 NSaved= 7 IEnMin= 7 EnMin= -924.565169274415     IErMin= 7 ErrMin= 2.93D-03
 ErrMax= 2.93D-03  0.00D+00 EMaxC= 1.00D-01 BMatC= 8.91D-04 BMatP= 4.87D-02
 IDIUse=3 WtCom= 9.71D-01 WtEn= 2.93D-02
 Coeff-Com:  0.690D-03-0.192D-02-0.350D-02 0.534D-02-0.537D-02 0.172D+00
 Coeff-Com:  0.832D+00
 Coeff-En:   0.000D+00 0.000D+00 0.000D+00 0.000D+00 0.000D+00 0.000D+00
 Coeff-En:   0.100D+01
 Coeff:      0.670D-03-0.186D-02-0.340D-02 0.518D-02-0.522D-02 0.167D+00
 Coeff:      0.837D+00
 Gap=     0.110 Goal=   None    Shift=    0.000
 Gap=     0.262 Goal=   None    Shift=    0.000
 RMSDP=1.94D-04 MaxDP=3.29D-03 DE=-8.17D-03 OVMax= 1.54D-02

 Cycle   8  Pass 1  IDiag  1:
 E= -924.565410229820     Delta-E=       -0.000240955405 Rises=F Damp=F
 DIIS: error= 8.76D-04 at cycle   8 NSaved=   8.
 NSaved= 8 IEnMin= 8 EnMin= -924.565410229820     IErMin= 8 ErrMin= 8.76D-04
 ErrMax= 8.76D-04  0.00D+00 EMaxC= 1.00D-01 BMatC= 6.42D-05 BMatP= 8.91D-04
 IDIUse=3 WtCom= 9.91D-01 WtEn= 8.76D-03
 Coeff-Com: -0.935D-03 0.112D-02 0.137D-02-0.361D-02-0.565D-02-0.217D-01
 Coeff-Com:  0.172D-01 0.101D+01
 Coeff-En:   0.000D+00 0.000D+00 0.000D+00 0.000D+00 0.000D+00 0.000D+00
 Coeff-En:   0.000D+00 0.100D+01
 Coeff:     -0.927D-03 0.111D-02 0.136D-02-0.358D-02-0.560D-02-0.215D-01
 Coeff:      0.170D-01 0.101D+01
 Gap=     0.109 Goal=   None    Shift=    0.000
 Gap=     0.264 Goal=   None    Shift=    0.000
 RMSDP=1.35D-04 MaxDP=2.87D-03 DE=-2.41D-04 OVMax= 1.26D-02

 Cycle   9  Pass 1  IDiag  1:
 E= -924.565467981126     Delta-E=       -0.000057751305 Rises=F Damp=F
 DIIS: error= 3.90D-04 at cycle   9 NSaved=   9.
 NSaved= 9 IEnMin= 9 EnMin= -924.565467981126     IErMin= 9 ErrMin= 3.90D-04
 ErrMax= 3.90D-04  0.00D+00 EMaxC= 1.00D-01 BMatC= 1.68D-05 BMatP= 6.42D-05
 IDIUse=3 WtCom= 9.96D-01 WtEn= 3.90D-03
 Coeff-Com:  0.119D-03 0.572D-04 0.683D-05-0.337D-02-0.850D-03-0.912D-02
 Coeff-Com: -0.214D+00-0.138D+00 0.137D+01
 Coeff-En:   0.000D+00 0.000D+00 0.000D+00 0.000D+00 0.000D+00 0.000D+00
 Coeff-En:   0.000D+00 0.000D+00 0.100D+01
 Coeff:      0.119D-03 0.570D-04 0.681D-05-0.336D-02-0.847D-03-0.909D-02
 Coeff:     -0.213D+00-0.138D+00 0.136D+01
 Gap=     0.109 Goal=   None    Shift=    0.000
 Gap=     0.265 Goal=   None    Shift=    0.000
 RMSDP=1.22D-04 MaxDP=2.54D-03 DE=-5.78D-05 OVMax= 1.27D-02

 Cycle  10  Pass 1  IDiag  1:
 E= -924.565494234132     Delta-E=       -0.000026253006 Rises=F Damp=F
 DIIS: error= 1.14D-04 at cycle  10 NSaved=  10.
 NSaved=10 IEnMin=10 EnMin= -924.565494234132     IErMin=10 ErrMin= 1.14D-04
 ErrMax= 1.14D-04  0.00D+00 EMaxC= 1.00D-01 BMatC= 1.45D-06 BMatP= 1.68D-05
 IDIUse=3 WtCom= 9.99D-01 WtEn= 1.14D-03
 Coeff-Com: -0.277D-03 0.319D-03-0.520D-04 0.541D-03 0.239D-02-0.717D-02
 Coeff-Com: -0.805D-02-0.903D-01 0.286D-01 0.107D+01
 Coeff-En:   0.000D+00 0.000D+00 0.000D+00 0.000D+00 0.000D+00 0.000D+00
 Coeff-En:   0.000D+00 0.000D+00 0.000D+00 0.100D+01
 Coeff:     -0.277D-03 0.318D-03-0.519D-04 0.541D-03 0.238D-02-0.716D-02
 Coeff:     -0.804D-02-0.902D-01 0.285D-01 0.107D+01
 Gap=     0.109 Goal=   None    Shift=    0.000
 Gap=     0.265 Goal=   None    Shift=    0.000
 RMSDP=4.59D-05 MaxDP=1.07D-03 DE=-2.63D-05 OVMax= 5.43D-03

 Cycle  11  Pass 1  IDiag  1:
 E= -924.565498638942     Delta-E=       -0.000004404810 Rises=F Damp=F
 DIIS: error= 5.49D-05 at cycle  11 NSaved=  11.
 NSaved=11 IEnMin=11 EnMin= -924.565498638942     IErMin=11 ErrMin= 5.49D-05
 ErrMax= 5.49D-05  0.00D+00 EMaxC= 1.00D-01 BMatC= 2.72D-07 BMatP= 1.45D-06
 IDIUse=1 WtCom= 1.00D+00 WtEn= 0.00D+00
 Coeff-Com:  0.836D-06 0.636D-05 0.244D-04 0.461D-03-0.702D-03 0.429D-02
 Coeff-Com:  0.210D-01 0.239D-01-0.132D+00-0.474D+00 0.156D+01
 Coeff:      0.836D-06 0.636D-05 0.244D-04 0.461D-03-0.702D-03 0.429D-02
 Coeff:      0.210D-01 0.239D-01-0.132D+00-0.474D+00 0.156D+01
 Gap=     0.109 Goal=   None    Shift=    0.000
 Gap=     0.266 Goal=   None    Shift=    0.000
 RMSDP=3.80D-05 MaxDP=8.38D-04 DE=-4.40D-06 OVMax= 4.65D-03

 Cycle  12  Pass 1  IDiag  1:
 E= -924.565500567348     Delta-E=       -0.000001928406 Rises=F Damp=F
 DIIS: error= 2.61D-05 at cycle  12 NSaved=  12.
 NSaved=12 IEnMin=12 EnMin= -924.565500567348     IErMin=12 ErrMin= 2.61D-05
 ErrMax= 2.61D-05  0.00D+00 EMaxC= 1.00D-01 BMatC= 6.10D-08 BMatP= 2.72D-07
 IDIUse=1 WtCom= 1.00D+00 WtEn= 0.00D+00
 Coeff-Com:  0.435D-04-0.492D-04 0.428D-05-0.709D-04-0.302D-03 0.887D-03
 Coeff-Com: -0.823D-03 0.607D-02 0.324D-01-0.160D+00-0.370D+00 0.149D+01
 Coeff:      0.435D-04-0.492D-04 0.428D-05-0.709D-04-0.302D-03 0.887D-03
 Coeff:     -0.823D-03 0.607D-02 0.324D-01-0.160D+00-0.370D+00 0.149D+01
 Gap=     0.109 Goal=   None    Shift=    0.000
 Gap=     0.266 Goal=   None    Shift=    0.000
 RMSDP=2.37D-05 MaxDP=5.05D-04 DE=-1.93D-06 OVMax= 2.90D-03

 Cycle  13  Pass 1  IDiag  1:
 E= -924.565501051851     Delta-E=       -0.000000484503 Rises=F Damp=F
 DIIS: error= 7.95D-06 at cycle  13 NSaved=  13.
 NSaved=13 IEnMin=13 EnMin= -924.565501051851     IErMin=13 ErrMin= 7.95D-06
 ErrMax= 7.95D-06  0.00D+00 EMaxC= 1.00D-01 BMatC= 8.69D-09 BMatP= 6.10D-08
 IDIUse=1 WtCom= 1.00D+00 WtEn= 0.00D+00
 Coeff-Com:  0.183D-05-0.624D-05-0.274D-05-0.533D-04 0.188D-03-0.108D-02
 Coeff-Com: -0.239D-02-0.661D-03 0.127D-01 0.821D-01-0.172D+00-0.202D+00
 Coeff-Com:  0.128D+01
 Coeff:      0.183D-05-0.624D-05-0.274D-05-0.533D-04 0.188D-03-0.108D-02
 Coeff:     -0.239D-02-0.661D-03 0.127D-01 0.821D-01-0.172D+00-0.202D+00
 Coeff:      0.128D+01
 Gap=     0.109 Goal=   None    Shift=    0.000
 Gap=     0.266 Goal=   None    Shift=    0.000
 RMSDP=6.95D-06 MaxDP=1.48D-04 DE=-4.85D-07 OVMax= 8.46D-04

 Cycle  14  Pass 1  IDiag  1:
 E= -924.565501099075     Delta-E=       -0.000000047224 Rises=F Damp=F
 DIIS: error= 3.43D-06 at cycle  14 NSaved=  14.
 NSaved=14 IEnMin=14 EnMin= -924.565501099075     IErMin=14 ErrMin= 3.43D-06
 ErrMax= 3.43D-06  0.00D+00 EMaxC= 1.00D-01 BMatC= 1.75D-09 BMatP= 8.69D-09
 IDIUse=1 WtCom= 1.00D+00 WtEn= 0.00D+00
 Coeff-Com:  0.801D-05-0.663D-05-0.151D-05 0.488D-04-0.274D-04 0.325D-03
 Coeff-Com:  0.402D-03 0.791D-03-0.110D-01 0.163D-01 0.737D-01-0.165D+00
 Coeff-Com: -0.290D+00 0.138D+01
 Coeff:      0.801D-05-0.663D-05-0.151D-05 0.488D-04-0.274D-04 0.325D-03
 Coeff:      0.402D-03 0.791D-03-0.110D-01 0.163D-01 0.737D-01-0.165D+00
 Coeff:     -0.290D+00 0.138D+01
 Gap=     0.109 Goal=   None    Shift=    0.000
 Gap=     0.266 Goal=   None    Shift=    0.000
 RMSDP=2.32D-06 MaxDP=5.15D-05 DE=-4.72D-08 OVMax= 2.77D-04

 Cycle  15  Pass 1  IDiag  1:
 E= -924.565501105188     Delta-E=       -0.000000006113 Rises=F Damp=F
 DIIS: error= 3.37D-06 at cycle  15 NSaved=  15.
 NSaved=15 IEnMin=15 EnMin= -924.565501105188     IErMin=15 ErrMin= 3.37D-06
 ErrMax= 3.37D-06  0.00D+00 EMaxC= 1.00D-01 BMatC= 1.06D-09 BMatP= 1.75D-09
 IDIUse=1 WtCom= 1.00D+00 WtEn= 0.00D+00
 Coeff-Com: -0.352D-05 0.495D-05 0.127D-05 0.343D-04-0.352D-04 0.419D-04
 Coeff-Com:  0.600D-03 0.720D-03-0.399D-02-0.673D-02 0.899D-02 0.521D-01
 Coeff-Com: -0.163D+00-0.197D+00 0.131D+01
 Coeff:     -0.352D-05 0.495D-05 0.127D-05 0.343D-04-0.352D-04 0.419D-04
 Coeff:      0.600D-03 0.720D-03-0.399D-02-0.673D-02 0.899D-02 0.521D-01
 Coeff:     -0.163D+00-0.197D+00 0.131D+01
 Gap=     0.109 Goal=   None    Shift=    0.000
 Gap=     0.266 Goal=   None    Shift=    0.000
 RMSDP=9.27D-07 MaxDP=2.22D-05 DE=-6.11D-09 OVMax= 1.02D-04

 Cycle  16  Pass 1  IDiag  1:
 E= -924.565501106046     Delta-E=       -0.000000000858 Rises=F Damp=F
 DIIS: error= 1.55D-06 at cycle  16 NSaved=  16.
 NSaved=16 IEnMin=16 EnMin= -924.565501106046     IErMin=16 ErrMin= 1.55D-06
 ErrMax= 1.55D-06  0.00D+00 EMaxC= 1.00D-01 BMatC= 3.36D-10 BMatP= 1.06D-09
 IDIUse=1 WtCom= 1.00D+00 WtEn= 0.00D+00
 Coeff-Com: -0.233D-06-0.182D-06-0.936D-08-0.104D-04 0.370D-05 0.685D-04
 Coeff-Com:  0.534D-04-0.517D-03 0.680D-03-0.317D-02-0.305D-03 0.861D-02
 Coeff-Com:  0.130D-01-0.871D-01-0.257D-01 0.109D+01
 Coeff:     -0.233D-06-0.182D-06-0.936D-08-0.104D-04 0.370D-05 0.685D-04
 Coeff:      0.534D-04-0.517D-03 0.680D-03-0.317D-02-0.305D-03 0.861D-02
 Coeff:      0.130D-01-0.871D-01-0.257D-01 0.109D+01
 Gap=     0.109 Goal=   None    Shift=    0.000
 Gap=     0.266 Goal=   None    Shift=    0.000
 RMSDP=2.36D-07 MaxDP=5.28D-06 DE=-8.58D-10 OVMax= 2.67D-05

 Cycle  17  Pass 1  IDiag  1:
 E= -924.565501106137     Delta-E=       -0.000000000091 Rises=F Damp=F
 DIIS: error= 1.41D-07 at cycle  17 NSaved=  17.
 NSaved=17 IEnMin=17 EnMin= -924.565501106137     IErMin=17 ErrMin= 1.41D-07
 ErrMax= 1.41D-07  0.00D+00 EMaxC= 1.00D-01 BMatC= 1.31D-12 BMatP= 3.36D-10
 IDIUse=1 WtCom= 1.00D+00 WtEn= 0.00D+00
 Coeff-Com:  0.109D-06-0.103D-06-0.180D-07-0.391D-06 0.186D-06-0.651D-05
 Coeff-Com: -0.192D-04 0.632D-04 0.750D-04 0.253D-03-0.772D-03-0.183D-03
 Coeff-Com:  0.497D-02 0.401D-02-0.310D-01-0.225D-01 0.105D+01
 Coeff:      0.109D-06-0.103D-06-0.180D-07-0.391D-06 0.186D-06-0.651D-05
 Coeff:     -0.192D-04 0.632D-04 0.750D-04 0.253D-03-0.772D-03-0.183D-03
 Coeff:      0.497D-02 0.401D-02-0.310D-01-0.225D-01 0.105D+01
 Gap=     0.109 Goal=   None    Shift=    0.000
 Gap=     0.266 Goal=   None    Shift=    0.000
 RMSDP=2.69D-08 MaxDP=7.46D-07 DE=-9.07D-11 OVMax= 2.32D-06

 Cycle  18  Pass 1  IDiag  1:
 E= -924.565501106139     Delta-E=       -0.000000000002 Rises=F Damp=F
 DIIS: error= 1.20D-07 at cycle  18 NSaved=  18.
 NSaved=18 IEnMin=18 EnMin= -924.565501106139     IErMin=18 ErrMin= 1.20D-07
 ErrMax= 1.20D-07  0.00D+00 EMaxC= 1.00D-01 BMatC= 1.88D-13 BMatP= 1.31D-12
 IDIUse=1 WtCom= 1.00D+00 WtEn= 0.00D+00
 Coeff-Com:  0.188D-07-0.206D-07 0.169D-08 0.239D-06-0.459D-08 0.401D-06
 Coeff-Com:  0.300D-05-0.363D-05-0.364D-04 0.571D-04 0.108D-03-0.234D-03
 Coeff-Com: -0.858D-03 0.763D-03 0.322D-02-0.625D-02-0.213D+00 0.122D+01
 Coeff:      0.188D-07-0.206D-07 0.169D-08 0.239D-06-0.459D-08 0.401D-06
 Coeff:      0.300D-05-0.363D-05-0.364D-04 0.571D-04 0.108D-03-0.234D-03
 Coeff:     -0.858D-03 0.763D-03 0.322D-02-0.625D-02-0.213D+00 0.122D+01
 Gap=     0.109 Goal=   None    Shift=    0.000
 Gap=     0.266 Goal=   None    Shift=    0.000
 RMSDP=1.41D-08 MaxDP=3.57D-07 DE=-1.71D-12 OVMax= 2.14D-06

 Cycle  19  Pass 1  IDiag  1:
 E= -924.565501106140     Delta-E=       -0.000000000001 Rises=F Damp=F
 DIIS: error= 1.20D-07 at cycle  19 NSaved=  19.
 NSaved=19 IEnMin=19 EnMin= -924.565501106140     IErMin=19 ErrMin= 1.20D-07
 ErrMax= 1.20D-07  0.00D+00 EMaxC= 1.00D-01 BMatC= 1.77D-13 BMatP= 1.88D-13
 IDIUse=1 WtCom= 1.00D+00 WtEn= 0.00D+00
 Large coefficients: NSaved= 19 BigCof=    0.00 CofMax=   10.00 Det=-1.38D-15
 Inversion failed.  Reducing to 18 matrices.
 Large coefficients: NSaved= 18 BigCof=    0.00 CofMax=   10.00 Det=-1.40D-15
 Inversion failed.  Reducing to 17 matrices.
 Large coefficients: NSaved= 17 BigCof=    0.00 CofMax=   10.00 Det=-1.40D-15
 Inversion failed.  Reducing to 16 matrices.
 Large coefficients: NSaved= 16 BigCof=    0.00 CofMax=   10.00 Det=-1.40D-15
 Inversion failed.  Reducing to 15 matrices.
 Coeff-Com: -0.262D-07 0.181D-06-0.470D-07-0.271D-05 0.748D-05-0.504D-06
 Coeff-Com: -0.447D-04 0.522D-04 0.279D-03-0.529D-03-0.554D-03 0.512D-02
 Coeff-Com:  0.202D-01-0.386D+00 0.136D+01
 Coeff:     -0.262D-07 0.181D-06-0.470D-07-0.271D-05 0.748D-05-0.504D-06
 Coeff:     -0.447D-04 0.522D-04 0.279D-03-0.529D-03-0.554D-03 0.512D-02
 Coeff:      0.202D-01-0.386D+00 0.136D+01
 Gap=     0.109 Goal=   None    Shift=    0.000
 DSYEVD-2 returned Info=         121 IAlg= 4 N=    80 NDim=    80 NE2=     6421856 trying  DSYEV.
 Gap=     0.266 Goal=   None    Shift=    0.000
 RMSDP=1.56D-08 MaxDP=4.04D-07 DE=-1.36D-12 OVMax= 2.45D-06

 Cycle  20  Pass 1  IDiag  1:
 E= -924.565501106140     Delta-E=        0.000000000000 Rises=F Damp=F
 DIIS: error= 1.20D-07 at cycle  20 NSaved=  16.
 NSaved=16 IEnMin=15 EnMin= -924.565501106140     IErMin=16 ErrMin= 1.20D-07
 ErrMax= 1.20D-07  0.00D+00 EMaxC= 1.00D-01 BMatC= 1.71D-13 BMatP= 1.77D-13
 IDIUse=1 WtCom= 1.00D+00 WtEn= 0.00D+00
 Large coefficients: NSaved= 16 BigCof=    0.00 CofMax=   10.00 Det=-7.26D-17
 Inversion failed.  Reducing to 15 matrices.
 Coeff-Com: -0.396D-07-0.162D-07 0.115D-05-0.180D-05-0.918D-06 0.155D-05
 Coeff-Com:  0.918D-05-0.160D-04-0.817D-05 0.138D-03-0.816D-03 0.555D-02
 Coeff-Com:  0.158D-01-0.288D+00 0.127D+01
 Coeff:     -0.396D-07-0.162D-07 0.115D-05-0.180D-05-0.918D-06 0.155D-05
 Coeff:      0.918D-05-0.160D-04-0.817D-05 0.138D-03-0.816D-03 0.555D-02
 Coeff:      0.158D-01-0.288D+00 0.127D+01
 Gap=     0.109 Goal=   None    Shift=    0.000
 Gap=     0.266 Goal=   None    Shift=    0.000
 RMSDP=1.49D-08 MaxDP=3.84D-07 DE= 4.55D-13 OVMax= 2.34D-06

 Cycle  21  Pass 1  IDiag  1:
 E= -924.565501106140     Delta-E=       -0.000000000001 Rises=F Damp=F
 DIIS: error= 1.20D-07 at cycle  21 NSaved=  16.
 NSaved=16 IEnMin=16 EnMin= -924.565501106140     IErMin=16 ErrMin= 1.20D-07
 ErrMax= 1.20D-07  0.00D+00 EMaxC= 1.00D-01 BMatC= 1.71D-13 BMatP= 1.71D-13
 IDIUse=1 WtCom= 1.00D+00 WtEn= 0.00D+00
 Large coefficients: NSaved= 16 BigCof=    0.00 CofMax=   10.00 Det=-3.40D-18
 Inversion failed.  Reducing to 15 matrices.
 Coeff-Com: -0.252D-07-0.394D-06 0.828D-06 0.186D-06 0.104D-06-0.488D-05
 Coeff-Com: -0.314D-05 0.338D-04-0.417D-04 0.356D-04-0.230D-02 0.123D-01
 Coeff-Com:  0.533D-01-0.580D+00 0.152D+01
 Coeff:     -0.252D-07-0.394D-06 0.828D-06 0.186D-06 0.104D-06-0.488D-05
 Coeff:     -0.314D-05 0.338D-04-0.417D-04 0.356D-04-0.230D-02 0.123D-01
 Coeff:      0.533D-01-0.580D+00 0.152D+01
 Gap=     0.109 Goal=   None    Shift=    0.000
 Gap=     0.266 Goal=   None    Shift=    0.000
 RMSDP=1.76D-08 MaxDP=4.54D-07 DE=-7.96D-13 OVMax= 2.77D-06

 Cycle  22  Pass 1  IDiag  1:
 E= -924.565501106143     Delta-E=       -0.000000000002 Rises=F Damp=F
 DIIS: error= 1.20D-07 at cycle  22 NSaved=  16.
 NSaved=16 IEnMin=16 EnMin= -924.565501106143     IErMin=16 ErrMin= 1.20D-07
 ErrMax= 1.20D-07  0.00D+00 EMaxC= 1.00D-01 BMatC= 1.71D-13 BMatP= 1.71D-13
 IDIUse=1 WtCom= 1.00D+00 WtEn= 0.00D+00
 Large coefficients: NSaved= 16 BigCof=    0.00 CofMax=   10.00 Det=-2.41D-19
 Inversion failed.  Reducing to 15 matrices.
 Coeff-Com:  0.523D-06-0.111D-05 0.186D-05-0.422D-05 0.672D-05 0.312D-04
 Coeff-Com: -0.946D-04-0.658D-04 0.634D-03 0.267D-02-0.712D-01 0.148D+00
 Coeff-Com:  0.793D+00-0.709D+01 0.722D+01
 Coeff:      0.523D-06-0.111D-05 0.186D-05-0.422D-05 0.672D-05 0.312D-04
 Coeff:     -0.946D-04-0.658D-04 0.634D-03 0.267D-02-0.712D-01 0.148D+00
 Coeff:      0.793D+00-0.709D+01 0.722D+01
 Gap=     0.109 Goal=   None    Shift=    0.000
 Gap=     0.266 Goal=   None    Shift=    0.000
 DSYEVD-2 returned Info=         161 IAlg= 4 N=    80 NDim=    80 NE2=     6421856 trying  DSYEV.
 RMSDP=1.07D-07 MaxDP=2.77D-06 DE=-2.27D-12 OVMax= 1.69D-05

 Cycle  23  Pass 1  IDiag  1:
 E= -924.565501106153     Delta-E=       -0.000000000010 Rises=F Damp=F
 DIIS: error= 1.20D-07 at cycle  23 NSaved=  16.
 NSaved=16 IEnMin=16 EnMin= -924.565501106153     IErMin=16 ErrMin= 1.20D-07
 ErrMax= 1.20D-07  0.00D+00 EMaxC= 1.00D-01 BMatC= 1.71D-13 BMatP= 1.71D-13
 IDIUse=1 WtCom= 1.00D+00 WtEn= 0.00D+00
 Large coefficients: NSaved= 16 BigCof=    0.00 CofMax=   10.00 Det=-8.39D-20
 Inversion failed.  Reducing to 15 matrices.
 Large coefficients: NSaved= 15 BigCof=   60.26 CofMax=   10.00 Det=-8.46D-20
 Inversion failed.  Reducing to 14 matrices.
 Large coefficients: NSaved= 14 BigCof=   55.88 CofMax=   10.00 Det=-9.15D-20
 Inversion failed.  Reducing to 13 matrices.
 Large coefficients: NSaved= 13 BigCof=   53.53 CofMax=   10.00 Det=-1.00D-19
 Inversion failed.  Reducing to 12 matrices.
 Large coefficients: NSaved= 12 BigCof=   47.67 CofMax=   10.00 Det=-1.19D-19
 Inversion failed.  Reducing to 11 matrices.
 Large coefficients: NSaved= 11 BigCof=   47.59 CofMax=   10.00 Det=-1.19D-19
 Inversion failed.  Reducing to 10 matrices.
 Large coefficients: NSaved= 10 BigCof=   48.36 CofMax=   10.00 Det=-1.19D-19
 Inversion failed.  Reducing to  9 matrices.
 Large coefficients: NSaved=  9 BigCof=   46.78 CofMax=   10.00 Det=-1.20D-19
 Inversion failed.  Reducing to  8 matrices.
 Large coefficients: NSaved=  8 BigCof=   24.47 CofMax=   10.00 Det=-2.26D-19
 Inversion failed.  Reducing to  7 matrices.
 Large coefficients: NSaved=  7 BigCof=   11.03 CofMax=   10.00 Det=-3.92D-19
 Inversion failed.  Reducing to  6 matrices.
 Coeff-Com:  0.121D-01 0.136D+00-0.545D+00-0.192D+00-0.567D+01 0.726D+01
 Coeff:      0.121D-01 0.136D+00-0.545D+00-0.192D+00-0.567D+01 0.726D+01
 Gap=     0.109 Goal=   None    Shift=    0.000
 Gap=     0.266 Goal=   None    Shift=    0.000
 RMSDP=6.96D-07 MaxDP=1.80D-05 DE=-1.05D-11 OVMax= 1.09D-04

 Cycle  24  Pass 1  IDiag  1:
 E= -924.565501106211     Delta-E=       -0.000000000058 Rises=F Damp=F
 DIIS: error= 1.20D-07 at cycle  24 NSaved=   7.
 NSaved= 7 IEnMin= 7 EnMin= -924.565501106211     IErMin= 7 ErrMin= 1.20D-07
 ErrMax= 1.20D-07  0.00D+00 EMaxC= 1.00D-01 BMatC= 1.71D-13 BMatP= 1.71D-13
 IDIUse=1 WtCom= 1.00D+00 WtEn= 0.00D+00
 Large coefficients: NSaved=  7 BigCof=   59.38 CofMax=   10.00 Det=-2.36D-19
 Inversion failed.  Reducing to  6 matrices.
 Large coefficients: NSaved=  6 BigCof=   60.53 CofMax=   10.00 Det=-2.37D-19
 Inversion failed.  Reducing to  5 matrices.
 Large coefficients: NSaved=  5 BigCof=   50.92 CofMax=   10.00 Det=-2.97D-19
 Inversion failed.  Reducing to  4 matrices.
 Large coefficients: NSaved=  4 BigCof=   21.08 CofMax=   10.00 Det=-7.03D-19
 Inversion failed.  Reducing to  3 matrices.
 Coeff-Com: -0.833D+01 0.640D+01 0.293D+01
 Coeff:     -0.833D+01 0.640D+01 0.293D+01
 Gap=     0.109 Goal=   None    Shift=    0.000
 Gap=     0.266 Goal=   None    Shift=    0.000
 RMSDP=2.25D-06 MaxDP=5.80D-05 DE=-5.80D-11 OVMax= 3.53D-04

 Cycle  25  Pass 1  IDiag  1:
 E= -924.565501106395     Delta-E=       -0.000000000184 Rises=F Damp=F
 DIIS: error= 1.20D-07 at cycle  25 NSaved=   4.
 NSaved= 4 IEnMin= 4 EnMin= -924.565501106395     IErMin= 4 ErrMin= 1.20D-07
 ErrMax= 1.20D-07  0.00D+00 EMaxC= 1.00D-01 BMatC= 1.72D-13 BMatP= 1.71D-13
 IDIUse=1 WtCom= 1.00D+00 WtEn= 0.00D+00
 Large coefficients: NSaved=  4 BigCof=   14.11 CofMax=   10.00 Det=-2.97D-18
 Inversion failed.  Reducing to  3 matrices.
 Coeff-Com: -0.297D+00 0.106D+01 0.236D+00
 Coeff:     -0.297D+00 0.106D+01 0.236D+00
 Gap=     0.109 Goal=   None    Shift=    0.000
 Gap=     0.266 Goal=   None    Shift=    0.000
 RMSDP=1.50D-06 MaxDP=3.87D-05 DE=-1.84D-10 OVMax= 2.36D-04

 Cycle  26  Pass 1  IDiag  1:
 E= -924.565501106273     Delta-E=        0.000000000122 Rises=F Damp=F
 DIIS: error= 1.20D-07 at cycle  26 NSaved=   4.
 NSaved= 4 IEnMin= 3 EnMin= -924.565501106395     IErMin= 3 ErrMin= 1.20D-07
 ErrMax= 1.20D-07  0.00D+00 EMaxC= 1.00D-01 BMatC= 1.73D-13 BMatP= 1.71D-13
 IDIUse=1 WtCom= 1.00D+00 WtEn= 0.00D+00
 Coeff-Com: -0.667D+01 0.415D+01 0.169D+01 0.182D+01
 Coeff:     -0.667D+01 0.415D+01 0.169D+01 0.182D+01
 Gap=     0.109 Goal=   None    Shift=    0.000
 Gap=     0.266 Goal=   None    Shift=    0.000
 RMSDP=9.07D-06 MaxDP=2.34D-04 DE= 1.22D-10 OVMax= 1.43D-03

 Cycle  27  Pass 1  IDiag  1:
 E= -924.565501107019     Delta-E=       -0.000000000746 Rises=F Damp=F
 DIIS: error= 1.19D-07 at cycle  27 NSaved=   5.
 NSaved= 5 IEnMin= 5 EnMin= -924.565501107019     IErMin= 5 ErrMin= 1.19D-07
 ErrMax= 1.19D-07  0.00D+00 EMaxC= 1.00D-01 BMatC= 2.36D-13 BMatP= 1.71D-13
 IDIUse=1 WtCom= 1.00D+00 WtEn= 0.00D+00
 Large coefficients: NSaved=  5 BigCof=   18.80 CofMax=   10.00 Det=-8.61D-18
 Inversion failed.  Reducing to  4 matrices.
 Coeff-Com: -0.158D+00 0.683D+00 0.475D+00 0.550D-03
 Coeff:     -0.158D+00 0.683D+00 0.475D+00 0.550D-03
 Gap=     0.109 Goal=   None    Shift=    0.000
 Gap=     0.266 Goal=   None    Shift=    0.000
 RMSDP=7.91D-06 MaxDP=2.04D-04 DE=-7.46D-10 OVMax= 1.24D-03

 Cycle  28  Pass 1  IDiag  1:
 E= -924.565501106366     Delta-E=        0.000000000652 Rises=F Damp=F
 DIIS: error= 1.20D-07 at cycle  28 NSaved=   5.
 NSaved= 5 IEnMin= 4 EnMin= -924.565501107019     IErMin= 4 ErrMin= 1.19D-07
 ErrMax= 1.20D-07  0.00D+00 EMaxC= 1.00D-01 BMatC= 1.70D-13 BMatP= 1.71D-13
 IDIUse=1 WtCom= 1.00D+00 WtEn= 0.00D+00
 Large coefficients: NSaved=  5 BigCof=   44.82 CofMax=   10.00 Det=-6.86D-18
 Inversion failed.  Reducing to  4 matrices.
 Coeff-Com:  0.162D+00 0.250D-01-0.323D-03 0.814D+00
 Coeff:      0.162D+00 0.250D-01-0.323D-03 0.814D+00
 Gap=     0.109 Goal=   None    Shift=    0.000
 Gap=     0.266 Goal=   None    Shift=    0.000
 RMSDP=3.48D-08 MaxDP=8.96D-07 DE= 6.52D-10 OVMax= 5.47D-06

 Cycle  29  Pass 1  IDiag  1:
 E= -924.565501106370     Delta-E=       -0.000000000004 Rises=F Damp=F
 DIIS: error= 1.20D-07 at cycle  29 NSaved=   5.
 NSaved= 5 IEnMin= 3 EnMin= -924.565501107019     IErMin= 3 ErrMin= 1.19D-07
 ErrMax= 1.20D-07  0.00D+00 EMaxC= 1.00D-01 BMatC= 1.70D-13 BMatP= 1.70D-13
 IDIUse=1 WtCom= 1.00D+00 WtEn= 0.00D+00
 Large coefficients: NSaved=  5 BigCof=   17.14 CofMax=   10.00 Det=-4.09D-17
 Inversion failed.  Reducing to  4 matrices.
 Coeff-Com:  0.462D-01 0.276D-01 0.270D+00 0.656D+00
 Coeff:      0.462D-01 0.276D-01 0.270D+00 0.656D+00
 Gap=     0.109 Goal=   None    Shift=    0.000
 Gap=     0.266 Goal=   None    Shift=    0.000
 RMSDP=2.33D-07 MaxDP=6.01D-06 DE=-3.64D-12 OVMax= 3.66D-05

 Cycle  30  Pass 1  IDiag  1:
 E= -924.565501106390     Delta-E=       -0.000000000020 Rises=F Damp=F
 DIIS: error= 1.20D-07 at cycle  30 NSaved=   5.
 NSaved= 5 IEnMin= 2 EnMin= -924.565501107019     IErMin= 2 ErrMin= 1.19D-07
 ErrMax= 1.20D-07  0.00D+00 EMaxC= 1.00D-01 BMatC= 1.70D-13 BMatP= 1.70D-13
 IDIUse=1 WtCom= 1.00D+00 WtEn= 0.00D+00
 Large coefficients: NSaved=  5 BigCof=   14.53 CofMax=   10.00 Det=-1.94D-17
 Inversion failed.  Reducing to  4 matrices.
 Coeff-Com: -0.722D+00 0.966D-01-0.359D+00 0.199D+01
 Coeff:     -0.722D+00 0.966D-01-0.359D+00 0.199D+01
 Gap=     0.109 Goal=   None    Shift=    0.000
 Gap=     0.266 Goal=   None    Shift=    0.000
 RMSDP=7.80D-07 MaxDP=2.01D-05 DE=-2.02D-11 OVMax= 1.22D-04

 Cycle  31  Pass 1  IDiag  1:
 E= -924.565501106454     Delta-E=       -0.000000000064 Rises=F Damp=F
 DIIS: error= 1.20D-07 at cycle  31 NSaved=   5.
 NSaved= 5 IEnMin= 2 EnMin= -924.565501107019     IErMin= 2 ErrMin= 1.19D-07
 ErrMax= 1.20D-07  0.00D+00 EMaxC= 1.00D-01 BMatC= 1.70D-13 BMatP= 1.70D-13
 IDIUse=1 WtCom= 1.00D+00 WtEn= 0.00D+00
 Large coefficients: NSaved=  5 BigCof=   25.49 CofMax=   10.00 Det=-1.04D-17
 Inversion failed.  Reducing to  4 matrices.
 Coeff-Com: -0.318D+00 0.171D+00-0.561D+00 0.171D+01
 Coeff:     -0.318D+00 0.171D+00-0.561D+00 0.171D+01
 Gap=     0.109 Goal=   None    Shift=    0.000
 DSYEVD-2 returned Info=         161 IAlg= 4 N=    80 NDim=    80 NE2=     6421856 trying  DSYEV.
 Gap=     0.266 Goal=   None    Shift=    0.000
 RMSDP=1.85D-06 MaxDP=4.76D-05 DE=-6.40D-11 OVMax= 2.90D-04

 Cycle  32  Pass 1  IDiag  1:
 E= -924.565501106609     Delta-E=       -0.000000000155 Rises=F Damp=F
 DIIS: error= 1.19D-07 at cycle  32 NSaved=   5.
 NSaved= 5 IEnMin= 2 EnMin= -924.565501107019     IErMin= 2 ErrMin= 1.19D-07
 ErrMax= 1.19D-07  0.00D+00 EMaxC= 1.00D-01 BMatC= 1.71D-13 BMatP= 1.70D-13
 IDIUse=1 WtCom= 1.00D+00 WtEn= 0.00D+00
 Large coefficients: NSaved=  5 BigCof=   27.70 CofMax=   10.00 Det=-1.15D-17
 Inversion failed.  Reducing to  4 matrices.
 Coeff-Com: -0.247D+01 0.327D+00 0.157D+01 0.158D+01
 Coeff:     -0.247D+01 0.327D+00 0.157D+01 0.158D+01
 Gap=     0.109 Goal=   None    Shift=    0.000
 Gap=     0.266 Goal=   None    Shift=    0.000
 RMSDP=5.06D-06 MaxDP=1.30D-04 DE=-1.55D-10 OVMax= 7.95D-04

 Cycle  33  Pass 1  IDiag  1:
 E= -924.565501107022     Delta-E=       -0.000000000414 Rises=F Damp=F
 DIIS: error= 1.19D-07 at cycle  33 NSaved=   5.
 NSaved= 5 IEnMin= 5 EnMin= -924.565501107022     IErMin= 5 ErrMin= 1.19D-07
 ErrMax= 1.19D-07  0.00D+00 EMaxC= 1.00D-01 BMatC= 1.74D-13 BMatP= 1.70D-13
 IDIUse=1 WtCom= 1.00D+00 WtEn= 0.00D+00
 Coeff-Com: -0.462D+01-0.894D+00-0.939D-01 0.218D+01 0.443D+01
 Coeff:     -0.462D+01-0.894D+00-0.939D-01 0.218D+01 0.443D+01
 Gap=     0.109 Goal=   None    Shift=    0.000
 Gap=     0.266 Goal=   None    Shift=    0.000
 RMSDP=2.48D-05 MaxDP=6.39D-04 DE=-4.14D-10 OVMax= 3.90D-03

 Cycle  34  Pass 1  IDiag  1:
 E= -924.565501109033     Delta-E=       -0.000000002010 Rises=F Damp=F
 DIIS: error= 2.87D-07 at cycle  34 NSaved=   6.
 NSaved= 6 IEnMin= 6 EnMin= -924.565501109033     IErMin= 5 ErrMin= 1.19D-07
 ErrMax= 2.87D-07  0.00D+00 EMaxC= 1.00D-01 BMatC= 5.90D-12 BMatP= 1.70D-13
 IDIUse=1 WtCom= 1.00D+00 WtEn= 0.00D+00
 Large coefficients: NSaved=  6 BigCof=   34.50 CofMax=   10.00 Det=-2.25D-17
 Inversion failed.  Reducing to  5 matrices.
 Coeff-Com: -0.652D+00-0.669D+00-0.173D+00 0.251D+01-0.115D-01
 Coeff:     -0.652D+00-0.669D+00-0.173D+00 0.251D+01-0.115D-01
 Gap=     0.109 Goal=   None    Shift=    0.000
 Gap=     0.266 Goal=   None    Shift=    0.000
 RMSDP=1.96D-05 MaxDP=5.04D-04 DE=-2.01D-09 OVMax= 3.08D-03

 Cycle  35  Pass 1  IDiag  1:
 E= -924.565501107452     Delta-E=        0.000000001581 Rises=F Damp=F
 DIIS: error= 1.18D-07 at cycle  35 NSaved=   6.
 NSaved= 6 IEnMin= 5 EnMin= -924.565501109033     IErMin= 6 ErrMin= 1.18D-07
 ErrMax= 1.18D-07  0.00D+00 EMaxC= 1.00D-01 BMatC= 2.10D-13 BMatP= 1.70D-13
 IDIUse=1 WtCom= 1.00D+00 WtEn= 0.00D+00
 Large coefficients: NSaved=  6 BigCof=  100.86 CofMax=   10.00 Det=-7.63D-18
 Inversion failed.  Reducing to  5 matrices.
 Coeff-Com: -0.100D+01 0.116D+00 0.155D+01 0.367D-01 0.299D+00
 Coeff:     -0.100D+01 0.116D+00 0.155D+01 0.367D-01 0.299D+00
 Gap=     0.109 Goal=   None    Shift=    0.000
 Gap=     0.266 Goal=   None    Shift=    0.000
 RMSDP=3.30D-06 MaxDP=8.50D-05 DE= 1.58D-09 OVMax= 5.19D-04

 Cycle  36  Pass 1  IDiag  1:
 E= -924.565501107179     Delta-E=        0.000000000273 Rises=F Damp=F
 DIIS: error= 1.19D-07 at cycle  36 NSaved=   6.
 NSaved= 6 IEnMin= 4 EnMin= -924.565501109033     IErMin= 5 ErrMin= 1.18D-07
 ErrMax= 1.19D-07  0.00D+00 EMaxC= 1.00D-01 BMatC= 1.74D-13 BMatP= 1.71D-13
 IDIUse=1 WtCom= 1.00D+00 WtEn= 0.00D+00
 Large coefficients: NSaved=  6 BigCof=   25.52 CofMax=   10.00 Det=-3.66D-17
 Inversion failed.  Reducing to  5 matrices.
 Coeff-Com: -0.111D+01 0.620D+00 0.104D+00 0.357D+00 0.103D+01
 Coeff:     -0.111D+01 0.620D+00 0.104D+00 0.357D+00 0.103D+01
 Gap=     0.109 Goal=   None    Shift=    0.000
 Gap=     0.266 Goal=   None    Shift=    0.000
 RMSDP=4.57D-06 MaxDP=1.18D-04 DE= 2.73D-10 OVMax= 7.18D-04

 Cycle  37  Pass 1  IDiag  1:
 E= -924.565501107554     Delta-E=       -0.000000000375 Rises=F Damp=F
 DIIS: error= 1.18D-07 at cycle  37 NSaved=   6.
 NSaved= 6 IEnMin= 3 EnMin= -924.565501109033     IErMin= 6 ErrMin= 1.18D-07
 ErrMax= 1.18D-07  0.00D+00 EMaxC= 1.00D-01 BMatC= 1.79D-13 BMatP= 1.74D-13
 IDIUse=1 WtCom= 1.00D+00 WtEn= 0.00D+00
 Large coefficients: NSaved=  6 BigCof=   14.79 CofMax=   10.00 Det=-4.20D-17
 Inversion failed.  Reducing to  5 matrices.
 Coeff-Com: -0.457D+01 0.506D+00-0.112D+01 0.112D+01 0.507D+01
 Coeff:     -0.457D+01 0.506D+00-0.112D+01 0.112D+01 0.507D+01
 Gap=     0.109 Goal=   None    Shift=    0.000
 Gap=     0.266 Goal=   None    Shift=    0.000
 RMSDP=3.54D-05 MaxDP=9.09D-04 DE=-3.75D-10 OVMax= 5.56D-03

 Cycle  38  Pass 1  IDiag  1:
 E= -924.565501110383     Delta-E=       -0.000000002829 Rises=F Damp=F
 DIIS: error= 4.43D-07 at cycle  38 NSaved=   6.
 NSaved= 6 IEnMin= 6 EnMin= -924.565501110383     IErMin= 5 ErrMin= 1.18D-07
 ErrMax= 4.43D-07  0.00D+00 EMaxC= 1.00D-01 BMatC= 1.33D-11 BMatP= 1.74D-13
 IDIUse=1 WtCom= 1.00D+00 WtEn= 0.00D+00
 Coeff-Com: -0.180D+01-0.220D+01 0.936D-01 0.552D-01 0.326D+01 0.159D+01
 Coeff:     -0.180D+01-0.220D+01 0.936D-01 0.552D-01 0.326D+01 0.159D+01
 Gap=     0.109 Goal=   None    Shift=    0.000
 Gap=     0.266 Goal=   None    Shift=    0.000
 RMSDP=8.11D-06 MaxDP=2.08D-04 DE=-2.83D-09 OVMax= 1.27D-03

 Cycle  39  Pass 1  IDiag  1:
 E= -924.565501109748     Delta-E=        0.000000000635 Rises=F Damp=F
 DIIS: error= 1.72D-07 at cycle  39 NSaved=   7.
 NSaved= 7 IEnMin= 6 EnMin= -924.565501110383     IErMin= 5 ErrMin= 1.18D-07
 ErrMax= 1.72D-07  0.00D+00 EMaxC= 1.00D-01 BMatC= 1.72D-12 BMatP= 1.74D-13
 IDIUse=1 WtCom= 1.00D+00 WtEn= 0.00D+00
 Coeff-Com: -0.443D+00-0.141D+01 0.236D+00-0.447D+00 0.122D+01 0.119D+01
 Coeff-Com:  0.660D+00
 Coeff:     -0.443D+00-0.141D+01 0.236D+00-0.447D+00 0.122D+01 0.119D+01
 Coeff:      0.660D+00
 Gap=     0.109 Goal=   None    Shift=    0.000
 Gap=     0.266 Goal=   None    Shift=    0.000
 RMSDP=1.15D-05 MaxDP=2.95D-04 DE= 6.35D-10 OVMax= 1.81D-03

 Cycle  40  Pass 1  IDiag  1:
 E= -924.565501110654     Delta-E=       -0.000000000906 Rises=F Damp=F
 DIIS: error= 1.14D-07 at cycle  40 NSaved=   8.
 NSaved= 8 IEnMin= 8 EnMin= -924.565501110654     IErMin= 8 ErrMin= 1.14D-07
 ErrMax= 1.14D-07  0.00D+00 EMaxC= 1.00D-01 BMatC= 1.64D-13 BMatP= 1.74D-13
 IDIUse=1 WtCom= 1.00D+00 WtEn= 0.00D+00
 Coeff-Com: -0.359D+01 0.749D+00-0.891D+00 0.161D+01 0.320D+01-0.208D+01
 Coeff-Com: -0.489D+01 0.688D+01
 Coeff:     -0.359D+01 0.749D+00-0.891D+00 0.161D+01 0.320D+01-0.208D+01
 Coeff:     -0.489D+01 0.688D+01
 Gap=     0.109 Goal=   None    Shift=    0.000
 Gap=     0.266 Goal=   None    Shift=    0.000
 RMSDP=5.23D-05 MaxDP=1.33D-03 DE=-9.06D-10 OVMax= 8.21D-03

 Cycle  41  Pass 1  IDiag  1:
 E= -924.565501114591     Delta-E=       -0.000000003937 Rises=F Damp=F
 DIIS: error= 1.47D-06 at cycle  41 NSaved=   9.
 NSaved= 9 IEnMin= 9 EnMin= -924.565501114591     IErMin= 8 ErrMin= 1.14D-07
 ErrMax= 1.47D-06  0.00D+00 EMaxC= 1.00D-01 BMatC= 1.36D-10 BMatP= 1.64D-13
 IDIUse=1 WtCom= 1.00D+00 WtEn= 0.00D+00
 Large coefficients: NSaved=  9 BigCof=   19.84 CofMax=   10.00 Det=-4.46D-17
 Inversion failed.  Reducing to  8 matrices.
 Large coefficients: NSaved=  8 BigCof=   15.78 CofMax=   10.00 Det=-7.90D-17
 Inversion failed.  Reducing to  7 matrices.
 Large coefficients: NSaved=  7 BigCof=   11.57 CofMax=   10.00 Det=-1.11D-16
 Inversion failed.  Reducing to  6 matrices.
 Coeff-Com:  0.247D+01-0.154D+01-0.449D+01 0.505D+00 0.315D+01 0.908D+00
 Coeff:      0.247D+01-0.154D+01-0.449D+01 0.505D+00 0.315D+01 0.908D+00
 Gap=     0.109 Goal=   None    Shift=    0.000
 Gap=     0.266 Goal=   None    Shift=    0.000
 RMSDP=1.39D-05 MaxDP=3.52D-04 DE=-3.94D-09 OVMax= 2.19D-03

 Cycle  42  Pass 1  IDiag  1:
 E= -924.565501115628     Delta-E=       -0.000000001037 Rises=F Damp=F
 DIIS: error= 1.16D-06 at cycle  42 NSaved=   7.
 NSaved= 7 IEnMin= 7 EnMin= -924.565501115628     IErMin= 5 ErrMin= 1.14D-07
 ErrMax= 1.16D-06  0.00D+00 EMaxC= 1.00D-01 BMatC= 8.52D-11 BMatP= 1.64D-13
 IDIUse=1 WtCom= 1.00D+00 WtEn= 0.00D+00
 Large coefficients: NSaved=  7 BigCof=   14.38 CofMax=   10.00 Det=-1.23D-16
 Inversion failed.  Reducing to  6 matrices.
 Coeff-Com:  0.259D+01-0.592D+01-0.290D+01 0.615D+01 0.513D+00 0.563D+00
 Coeff:      0.259D+01-0.592D+01-0.290D+01 0.615D+01 0.513D+00 0.563D+00
 Gap=     0.109 Goal=   None    Shift=    0.000
 Gap=     0.266 Goal=   None    Shift=    0.000
 RMSDP=1.69D-06 MaxDP=4.40D-05 DE=-1.04D-09 OVMax= 2.66D-04

 Cycle  43  Pass 1  IDiag  1:
 E= -924.565501115532     Delta-E=        0.000000000096 Rises=F Damp=F
 DIIS: error= 1.36D-07 at cycle  43 NSaved=   7.
 NSaved= 7 IEnMin= 6 EnMin= -924.565501115628     IErMin= 4 ErrMin= 1.14D-07
 ErrMax= 1.36D-07  0.00D+00 EMaxC= 1.00D-01 BMatC= 1.09D-12 BMatP= 1.64D-13
 IDIUse=1 WtCom= 1.00D+00 WtEn= 0.00D+00
 Coeff-Com:  0.156D+00-0.204D+01-0.556D+00 0.978D+00 0.443D+00 0.300D+00
 Coeff-Com:  0.172D+01
 Coeff:      0.156D+00-0.204D+01-0.556D+00 0.978D+00 0.443D+00 0.300D+00
 Coeff:      0.172D+01
 Gap=     0.109 Goal=   None    Shift=    0.000
 Gap=     0.266 Goal=   None    Shift=    0.000
 RMSDP=9.95D-05 MaxDP=2.50D-03 DE= 9.60D-11 OVMax= 1.56D-02

 Cycle  44  Pass 1  IDiag  1:
 E= -924.565501121559     Delta-E=       -0.000000006027 Rises=F Damp=F
 DIIS: error= 6.46D-06 at cycle  44 NSaved=   8.
 NSaved= 8 IEnMin= 8 EnMin= -924.565501121559     IErMin= 4 ErrMin= 1.14D-07
 ErrMax= 6.46D-06  0.00D+00 EMaxC= 1.00D-01 BMatC= 2.47D-09 BMatP= 1.64D-13
 IDIUse=1 WtCom= 1.00D+00 WtEn= 0.00D+00
 Coeff-Com: -0.456D+01 0.823D+01-0.263D+01-0.960D+00-0.240D+01-0.495D+00
 Coeff-Com:  0.354D+01 0.278D+00
 Coeff:     -0.456D+01 0.823D+01-0.263D+01-0.960D+00-0.240D+01-0.495D+00
 Coeff:      0.354D+01 0.278D+00
 Gap=     0.109 Goal=   None    Shift=    0.000
 Gap=     0.266 Goal=   None    Shift=    0.000
 RMSDP=4.76D-05 MaxDP=1.18D-03 DE=-6.03D-09 OVMax= 7.48D-03

 Cycle  45  Pass 1  IDiag  1:
 E= -924.565501122368     Delta-E=       -0.000000000809 Rises=F Damp=F
 DIIS: error= 1.26D-05 at cycle  45 NSaved=   9.
 NSaved= 9 IEnMin= 9 EnMin= -924.565501122368     IErMin= 4 ErrMin= 1.14D-07
 ErrMax= 1.26D-05  0.00D+00 EMaxC= 1.00D-01 BMatC= 9.30D-09 BMatP= 1.64D-13
 IDIUse=1 WtCom= 1.00D+00 WtEn= 0.00D+00
 Large coefficients: NSaved=  9 BigCof=   63.39 CofMax=   10.00 Det=-4.95D-18
 Inversion failed.  Reducing to  8 matrices.
 Large coefficients: NSaved=  8 BigCof=   36.62 CofMax=   10.00 Det=-2.08D-17
 Inversion failed.  Reducing to  7 matrices.
 Coeff-Com: -0.295D+00-0.644D+00-0.197D+00 0.209D+00 0.187D+01 0.510D-01
 Coeff-Com:  0.799D-02
 Coeff:     -0.295D+00-0.644D+00-0.197D+00 0.209D+00 0.187D+01 0.510D-01
 Coeff:      0.799D-02
 Gap=     0.109 Goal=   None    Shift=    0.000
 Gap=     0.266 Goal=   None    Shift=    0.000
 RMSDP=7.66D-05 MaxDP=1.91D-03 DE=-8.09D-10 OVMax= 1.20D-02

 Cycle  46  Pass 1  IDiag  1:
 E= -924.565501120262     Delta-E=        0.000000002106 Rises=F Damp=F
 DIIS: error= 3.10D-06 at cycle  46 NSaved=   8.
 NSaved= 8 IEnMin= 7 EnMin= -924.565501122368     IErMin= 2 ErrMin= 1.14D-07
 ErrMax= 3.10D-06  0.00D+00 EMaxC= 1.00D-01 BMatC= 5.79D-10 BMatP= 1.64D-13
 IDIUse=1 WtCom= 1.00D+00 WtEn= 0.00D+00
 Coeff-Com: -0.172D+01 0.740D-03 0.814D+00 0.179D+00 0.928D+00-0.234D+01
 Coeff-Com:  0.510D+00 0.264D+01
 Coeff:     -0.172D+01 0.740D-03 0.814D+00 0.179D+00 0.928D+00-0.234D+01
 Coeff:      0.510D+00 0.264D+01
 Gap=     0.109 Goal=   None    Shift=    0.000
 Gap=     0.266 Goal=   None    Shift=    0.000
 RMSDP=6.43D-05 MaxDP=1.60D-03 DE= 2.11D-09 OVMax= 1.01D-02

 Cycle  47  Pass 1  IDiag  1:
 E= -924.565501122892     Delta-E=       -0.000000002631 Rises=F Damp=F
 DIIS: error= 9.45D-06 at cycle  47 NSaved=   9.
 NSaved= 9 IEnMin= 9 EnMin= -924.565501122892     IErMin= 2 ErrMin= 1.14D-07
 ErrMax= 9.45D-06  0.00D+00 EMaxC= 1.00D-01 BMatC= 5.22D-09 BMatP= 1.64D-13
 IDIUse=1 WtCom= 1.00D+00 WtEn= 0.00D+00
 Large coefficients: NSaved=  9 BigCof=   21.56 CofMax=   10.00 Det=-1.84D-16
 Inversion failed.  Reducing to  8 matrices.
 Coeff-Com: -0.123D+01 0.362D+00 0.992D-01 0.103D+01-0.263D+01 0.349D+00
 Coeff-Com:  0.260D+01 0.426D+00
 Coeff:     -0.123D+01 0.362D+00 0.992D-01 0.103D+01-0.263D+01 0.349D+00
 Coeff:      0.260D+01 0.426D+00
 Gap=     0.109 Goal=   None    Shift=    0.000
 Gap=     0.266 Goal=   None    Shift=    0.000
 RMSDP=3.02D-05 MaxDP=7.52D-04 DE=-2.63D-09 OVMax= 4.74D-03

 Cycle  48  Pass 1  IDiag  1:
 E= -924.565501122151     Delta-E=        0.000000000741 Rises=F Damp=F
 DIIS: error= 5.19D-06 at cycle  48 NSaved=   9.
 NSaved= 9 IEnMin= 8 EnMin= -924.565501122892     IErMin= 1 ErrMin= 1.14D-07
 ErrMax= 5.19D-06  0.00D+00 EMaxC= 1.00D-01 BMatC= 1.60D-09 BMatP= 1.64D-13
 IDIUse=1 WtCom= 1.00D+00 WtEn= 0.00D+00
 Large coefficients: NSaved=  9 BigCof=   35.69 CofMax=   10.00 Det=-1.27D-17
 Inversion failed.  Reducing to  8 matrices.
 Large coefficients: NSaved=  8 BigCof=   11.40 CofMax=   10.00 Det=-2.34D-17
 Inversion failed.  Reducing to  7 matrices.
 Coeff-Com: -0.410D-01-0.589D+00-0.391D+01-0.171D-01 0.537D+01 0.183D+01
 Coeff-Com: -0.164D+01
 Coeff:     -0.410D-01-0.589D+00-0.391D+01-0.171D-01 0.537D+01 0.183D+01
 Coeff:     -0.164D+01
 Gap=     0.109 Goal=   None    Shift=    0.000
 Gap=     0.266 Goal=   None    Shift=    0.000
 RMSDP=4.26D-05 MaxDP=1.07D-03 DE= 7.41D-10 OVMax= 6.69D-03

 Cycle  49  Pass 1  IDiag  1:
 E= -924.565501119869     Delta-E=        0.000000002282 Rises=F Damp=F
 DIIS: error= 3.35D-07 at cycle  49 NSaved=   8.
 NSaved= 8 IEnMin= 6 EnMin= -924.565501122892     IErMin= 2 ErrMin= 1.36D-07
 ErrMax= 3.35D-07  0.00D+00 EMaxC= 1.00D-01 BMatC= 7.26D-12 BMatP= 1.09D-12
 IDIUse=1 WtCom= 1.00D+00 WtEn= 0.00D+00
 Coeff-Com: -0.499D+00-0.573D+01-0.119D+01-0.899D+00 0.691D+01 0.471D+01
 Coeff-Com: -0.954D+01 0.724D+01
 Coeff:     -0.499D+00-0.573D+01-0.119D+01-0.899D+00 0.691D+01 0.471D+01
 Coeff:     -0.954D+01 0.724D+01
 Gap=     0.109 Goal=   None    Shift=    0.000
 Gap=     0.266 Goal=   None    Shift=    0.000
 RMSDP=2.59D-04 MaxDP=6.36D-03 DE= 2.28D-09 OVMax= 4.07D-02

 Cycle  50  Pass 1  IDiag  1:
 E= -924.565501112653     Delta-E=        0.000000007216 Rises=F Damp=F
 DIIS: error= 3.55D-05 at cycle  50 NSaved=   9.
 NSaved= 9 IEnMin= 6 EnMin= -924.565501122892     IErMin= 2 ErrMin= 1.36D-07
 ErrMax= 3.55D-05  0.00D+00 EMaxC= 1.00D-01 BMatC= 6.89D-08 BMatP= 1.09D-12
 IDIUse=1 WtCom= 1.00D+00 WtEn= 0.00D+00
 Large coefficients: NSaved=  9 BigCof=   36.21 CofMax=   10.00 Det=-2.29D-17
 Inversion failed.  Reducing to  8 matrices.
 Large coefficients: NSaved=  8 BigCof=   11.87 CofMax=   10.00 Det=-2.67D-17
 Inversion failed.  Reducing to  7 matrices.
 Coeff-Com:  0.244D+01-0.190D+00-0.262D+01-0.118D+01 0.727D+00 0.178D+01
 Coeff-Com:  0.448D-01
 Coeff:      0.244D+01-0.190D+00-0.262D+01-0.118D+01 0.727D+00 0.178D+01
 Coeff:      0.448D-01
 Gap=     0.108 Goal=   None    Shift=    0.000
 Gap=     0.266 Goal=   None    Shift=    0.000
 RMSDP=2.49D-04 MaxDP=6.12D-03 DE= 7.22D-09 OVMax= 3.92D-02

 Cycle  51  Pass 1  IDiag  1:
 E= -924.565501120512     Delta-E=       -0.000000007859 Rises=F Damp=F
 DIIS: error= 9.66D-08 at cycle  51 NSaved=   8.
 NSaved= 8 IEnMin= 4 EnMin= -924.565501122892     IErMin= 8 ErrMin= 9.66D-08
 ErrMax= 9.66D-08  0.00D+00 EMaxC= 1.00D-01 BMatC= 3.53D-13 BMatP= 7.26D-12
 IDIUse=1 WtCom= 1.00D+00 WtEn= 0.00D+00
 Large coefficients: NSaved=  8 BigCof=   33.27 CofMax=   10.00 Det=-2.82D-17
 Inversion failed.  Reducing to  7 matrices.
 Coeff-Com:  0.537D+01-0.897D+00-0.511D+01-0.288D+01 0.286D+01 0.135D+00
 Coeff-Com:  0.152D+01
 Coeff:      0.537D+01-0.897D+00-0.511D+01-0.288D+01 0.286D+01 0.135D+00
 Coeff:      0.152D+01
 Gap=     0.109 Goal=   None    Shift=    0.000
 Gap=     0.266 Goal=   None    Shift=    0.000
 RMSDP=3.39D-05 MaxDP=8.45D-04 DE=-7.86D-09 OVMax= 5.32D-03

 Cycle  52  Pass 1  IDiag  1:
 E= -924.565501122687     Delta-E=       -0.000000002175 Rises=F Damp=F
 DIIS: error= 7.63D-07 at cycle  52 NSaved=   8.
 NSaved= 8 IEnMin= 4 EnMin= -924.565501122892     IErMin= 7 ErrMin= 9.66D-08
 ErrMax= 7.63D-07  0.00D+00 EMaxC= 1.00D-01 BMatC= 3.53D-11 BMatP= 3.53D-13
 IDIUse=1 WtCom= 1.00D+00 WtEn= 0.00D+00
 Large coefficients: NSaved=  8 BigCof=   16.67 CofMax=   10.00 Det=-8.51D-17
 Inversion failed.  Reducing to  7 matrices.
 Coeff-Com:  0.249D+01-0.193D+00-0.352D+01-0.465D+00 0.957D-01 0.116D+01
 Coeff-Com:  0.143D+01
 Coeff:      0.249D+01-0.193D+00-0.352D+01-0.465D+00 0.957D-01 0.116D+01
 Coeff:      0.143D+01
 Gap=     0.109 Goal=   None    Shift=    0.000
 Gap=     0.266 Goal=   None    Shift=    0.000
 RMSDP=4.70D-05 MaxDP=1.16D-03 DE=-2.18D-09 OVMax= 7.38D-03

 Cycle  53  Pass 1  IDiag  1:
 E= -924.565501125463     Delta-E=       -0.000000002776 Rises=F Damp=F
 DIIS: error= 2.18D-06 at cycle  53 NSaved=   8.
 NSaved= 8 IEnMin= 8 EnMin= -924.565501125463     IErMin= 6 ErrMin= 9.66D-08
 ErrMax= 2.18D-06  0.00D+00 EMaxC= 1.00D-01 BMatC= 2.79D-10 BMatP= 3.53D-13
 IDIUse=1 WtCom= 1.00D+00 WtEn= 0.00D+00
 Coeff-Com:  0.405D+01-0.341D+00-0.528D+01-0.952D+00 0.187D+00 0.147D+01
 Coeff-Com:  0.111D+01 0.767D+00
 Coeff:      0.405D+01-0.341D+00-0.528D+01-0.952D+00 0.187D+00 0.147D+01
 Coeff:      0.111D+01 0.767D+00
 Gap=     0.109 Goal=   None    Shift=    0.000
 Gap=     0.266 Goal=   None    Shift=    0.000
 RMSDP=5.74D-05 MaxDP=1.41D-03 DE=-2.78D-09 OVMax= 9.02D-03

 Cycle  54  Pass 1  IDiag  1:
 E= -924.565501128139     Delta-E=       -0.000000002676 Rises=F Damp=F
 DIIS: error= 5.81D-06 at cycle  54 NSaved=   9.
 NSaved= 9 IEnMin= 9 EnMin= -924.565501128139     IErMin= 6 ErrMin= 9.66D-08
 ErrMax= 5.81D-06  0.00D+00 EMaxC= 1.00D-01 BMatC= 1.93D-09 BMatP= 3.53D-13
 IDIUse=1 WtCom= 1.00D+00 WtEn= 0.00D+00
 Coeff-Com: -0.673D-01-0.202D+01 0.461D+01-0.264D+01 0.333D+01-0.312D+01
 Coeff-Com: -0.150D+01-0.184D+01 0.425D+01
 Coeff:     -0.673D-01-0.202D+01 0.461D+01-0.264D+01 0.333D+01-0.312D+01
 Coeff:     -0.150D+01-0.184D+01 0.425D+01
 Gap=     0.109 Goal=   None    Shift=    0.000
 Gap=     0.266 Goal=   None    Shift=    0.000
 RMSDP=3.36D-05 MaxDP=8.03D-04 DE=-2.68D-09 OVMax= 5.28D-03

 Cycle  55  Pass 1  IDiag  1:
 E= -924.565501129462     Delta-E=       -0.000000001323 Rises=F Damp=F
 DIIS: error= 7.50D-06 at cycle  55 NSaved=  10.
 NSaved=10 IEnMin=10 EnMin= -924.565501129462     IErMin= 6 ErrMin= 9.66D-08
 ErrMax= 7.50D-06  0.00D+00 EMaxC= 1.00D-01 BMatC= 3.15D-09 BMatP= 3.53D-13
 IDIUse=1 WtCom= 1.00D+00 WtEn= 0.00D+00
 Large coefficients: NSaved= 10 BigCof=   31.40 CofMax=   10.00 Det=-3.08D-17
 Inversion failed.  Reducing to  9 matrices.
 Coeff-Com: -0.430D+01 0.172D+01 0.549D+01-0.526D+01 0.111D+01 0.983D+00
 Coeff-Com:  0.194D+01-0.216D+01 0.148D+01
 Coeff:     -0.430D+01 0.172D+01 0.549D+01-0.526D+01 0.111D+01 0.983D+00
 Coeff:      0.194D+01-0.216D+01 0.148D+01
 Gap=     0.109 Goal=   None    Shift=    0.000
 Gap=     0.266 Goal=   None    Shift=    0.000
 RMSDP=1.56D-04 MaxDP=3.75D-03 DE=-1.32D-09 OVMax= 2.46D-02

 Cycle  56  Pass 1  IDiag  1:
 E= -924.565501124566     Delta-E=        0.000000004896 Rises=F Damp=F
 DIIS: error= 2.73D-05 at cycle  56 NSaved=  10.
 NSaved=10 IEnMin= 9 EnMin= -924.565501129462     IErMin= 5 ErrMin= 9.66D-08
 ErrMax= 2.73D-05  0.00D+00 EMaxC= 1.00D-01 BMatC= 3.96D-08 BMatP= 3.53D-13
 IDIUse=1 WtCom= 1.00D+00 WtEn= 0.00D+00
 Coeff-Com: -0.291D+00 0.232D+00 0.110D+01 0.179D+01-0.210D+01-0.119D+01
 Coeff-Com: -0.129D+01-0.907D+00 0.321D+01 0.457D+00
 Coeff:     -0.291D+00 0.232D+00 0.110D+01 0.179D+01-0.210D+01-0.119D+01
 Coeff:     -0.129D+01-0.907D+00 0.321D+01 0.457D+00
 Gap=     0.109 Goal=   None    Shift=    0.000
 Gap=     0.266 Goal=   None    Shift=    0.000
 RMSDP=2.38D-04 MaxDP=5.47D-03 DE= 4.90D-09 OVMax= 3.73D-02

 Cycle  57  Pass 1  IDiag  1:
 E= -924.565501040643     Delta-E=        0.000000083922 Rises=F Damp=F
 DIIS: error= 8.11D-05 at cycle  57 NSaved=  11.
 NSaved=11 IEnMin= 9 EnMin= -924.565501129462     IErMin= 5 ErrMin= 9.66D-08
 ErrMax= 8.11D-05  0.00D+00 EMaxC= 1.00D-01 BMatC= 3.26D-07 BMatP= 3.53D-13
 IDIUse=1 WtCom= 1.00D+00 WtEn= 0.00D+00
 Coeff-Com:  0.191D+01-0.111D+01-0.964D+00 0.411D+01-0.267D+01-0.169D+01
 Coeff-Com: -0.259D+01-0.710D-01 0.315D+01 0.987D+00-0.787D-01
 Coeff:      0.191D+01-0.111D+01-0.964D+00 0.411D+01-0.267D+01-0.169D+01
 Coeff:     -0.259D+01-0.710D-01 0.315D+01 0.987D+00-0.787D-01
 Gap=     0.109 Goal=   None    Shift=    0.000
 Gap=     0.266 Goal=   None    Shift=    0.000
 RMSDP=2.01D-05 MaxDP=4.43D-04 DE= 8.39D-08 OVMax= 3.16D-03

 Cycle  58  Pass 1  IDiag  1:
 E= -924.565501042925     Delta-E=       -0.000000002281 Rises=F Damp=F
 DIIS: error= 8.05D-05 at cycle  58 NSaved=  12.
 NSaved=12 IEnMin= 9 EnMin= -924.565501129462     IErMin= 5 ErrMin= 9.66D-08
 ErrMax= 8.05D-05  0.00D+00 EMaxC= 1.00D-01 BMatC= 3.19D-07 BMatP= 3.53D-13
 IDIUse=1 WtCom= 1.00D+00 WtEn= 0.00D+00
 Coeff-Com:  0.505D+00 0.324D-01-0.174D+00 0.247D+01-0.170D+01-0.117D+01
 Coeff-Com: -0.159D+01-0.173D+01 0.312D+01 0.143D+01-0.113D+01 0.945D+00
 Coeff:      0.505D+00 0.324D-01-0.174D+00 0.247D+01-0.170D+01-0.117D+01
 Coeff:     -0.159D+01-0.173D+01 0.312D+01 0.143D+01-0.113D+01 0.945D+00
 Gap=     0.109 Goal=   None    Shift=    0.000
 Gap=     0.266 Goal=   None    Shift=    0.000
 RMSDP=7.96D-06 MaxDP=1.73D-04 DE=-2.28D-09 OVMax= 1.25D-03

 Cycle  59  Pass 1  IDiag  1:
 E= -924.565501048969     Delta-E=       -0.000000006045 Rises=F Damp=F
 DIIS: error= 7.81D-05 at cycle  59 NSaved=  13.
 NSaved=13 IEnMin= 9 EnMin= -924.565501129462     IErMin= 5 ErrMin= 9.66D-08
 ErrMax= 7.81D-05  0.00D+00 EMaxC= 1.00D-01 BMatC= 2.99D-07 BMatP= 3.53D-13
 IDIUse=1 WtCom= 1.00D+00 WtEn= 0.00D+00
 Coeff-Com: -0.289D+01 0.211D+01 0.305D+01-0.171D+01-0.105D+00-0.250D-01
 Coeff-Com:  0.543D+00-0.450D+01 0.317D+01 0.156D+01-0.116D+01-0.131D+01
 Coeff-Com:  0.229D+01
 Coeff:     -0.289D+01 0.211D+01 0.305D+01-0.171D+01-0.105D+00-0.250D-01
 Coeff:      0.543D+00-0.450D+01 0.317D+01 0.156D+01-0.116D+01-0.131D+01
 Coeff:      0.229D+01
 Gap=     0.109 Goal=   None    Shift=    0.000
 Gap=     0.266 Goal=   None    Shift=    0.000
 RMSDP=2.36D-05 MaxDP=5.22D-04 DE=-6.04D-09 OVMax= 3.71D-03

 Cycle  60  Pass 1  IDiag  1:
 E= -924.565501036632     Delta-E=        0.000000012337 Rises=F Damp=F
 DIIS: error= 8.34D-05 at cycle  60 NSaved=  14.
 NSaved=14 IEnMin= 9 EnMin= -924.565501129462     IErMin= 5 ErrMin= 9.66D-08
 ErrMax= 8.34D-05  0.00D+00 EMaxC= 1.00D-01 BMatC= 3.40D-07 BMatP= 3.53D-13
 IDIUse=1 WtCom= 1.00D+00 WtEn= 0.00D+00
 Coeff-Com:  0.183D+01-0.972D+00-0.116D+01 0.377D+01-0.168D+01-0.129D+01
 Coeff-Com: -0.287D+01-0.205D+01 0.331D+01 0.276D+01-0.241D-01-0.109D+01
 Coeff-Com: -0.207D+01 0.254D+01
 Coeff:      0.183D+01-0.972D+00-0.116D+01 0.377D+01-0.168D+01-0.129D+01
 Coeff:     -0.287D+01-0.205D+01 0.331D+01 0.276D+01-0.241D-01-0.109D+01
 Coeff:     -0.207D+01 0.254D+01
 Gap=     0.109 Goal=   None    Shift=    0.000
 Gap=     0.266 Goal=   None    Shift=    0.000
 RMSDP=1.03D-05 MaxDP=2.26D-04 DE= 1.23D-08 OVMax= 1.61D-03

 Cycle  61  Pass 1  IDiag  1:
 E= -924.565501029226     Delta-E=        0.000000007406 Rises=F Damp=F
 DIIS: error= 8.64D-05 at cycle  61 NSaved=  15.
 NSaved=15 IEnMin= 9 EnMin= -924.565501129462     IErMin= 5 ErrMin= 9.66D-08
 ErrMax= 8.64D-05  0.00D+00 EMaxC= 1.00D-01 BMatC= 3.63D-07 BMatP= 3.53D-13
 IDIUse=1 WtCom= 1.00D+00 WtEn= 0.00D+00
 Coeff-Com:  0.184D+01-0.916D+00-0.125D+01 0.382D+01-0.168D+01-0.129D+01
 Coeff-Com: -0.283D+01-0.225D+01 0.336D+01 0.288D+01 0.211D-01-0.108D+01
 Coeff-Com: -0.198D+01 0.154D+01 0.814D+00
 Coeff:      0.184D+01-0.916D+00-0.125D+01 0.382D+01-0.168D+01-0.129D+01
 Coeff:     -0.283D+01-0.225D+01 0.336D+01 0.288D+01 0.211D-01-0.108D+01
 Coeff:     -0.198D+01 0.154D+01 0.814D+00
 Gap=     0.109 Goal=   None    Shift=    0.000
 Gap=     0.266 Goal=   None    Shift=    0.000
 RMSDP=1.11D-06 MaxDP=2.52D-05 DE= 7.41D-09 OVMax= 1.74D-04

 Cycle  62  Pass 1  IDiag  1:
 E= -924.565501026061     Delta-E=        0.000000003165 Rises=F Damp=F
 DIIS: error= 8.77D-05 at cycle  62 NSaved=  16.
 NSaved=16 IEnMin= 9 EnMin= -924.565501129462     IErMin= 5 ErrMin= 9.66D-08
 ErrMax= 8.77D-05  0.00D+00 EMaxC= 1.00D-01 BMatC= 3.74D-07 BMatP= 3.53D-13
 IDIUse=1 WtCom= 1.00D+00 WtEn= 0.00D+00
 Large coefficients: NSaved= 16 BigCof=    0.00 CofMax=   10.00 Det=-1.55D-17
 Inversion failed.  Reducing to 15 matrices.
 Coeff-Com: -0.167D+00 0.424D+00 0.469D+00 0.157D+01-0.975D+00-0.743D+00
 Coeff-Com: -0.146D+01-0.354D+01 0.341D+01 0.260D+01-0.607D+00-0.115D+01
 Coeff-Com:  0.776D-01-0.191D+01 0.300D+01
 Coeff:     -0.167D+00 0.424D+00 0.469D+00 0.157D+01-0.975D+00-0.743D+00
 Coeff:     -0.146D+01-0.354D+01 0.341D+01 0.260D+01-0.607D+00-0.115D+01
 Coeff:      0.776D-01-0.191D+01 0.300D+01
 Gap=     0.109 Goal=   None    Shift=    0.000
 Gap=     0.266 Goal=   None    Shift=    0.000
 RMSDP=1.60D-07 MaxDP=4.77D-06 DE= 3.17D-09 OVMax= 2.27D-05

 Cycle  63  Pass 1  IDiag  1:
 E= -924.565501020175     Delta-E=        0.000000005886 Rises=F Damp=F
 DIIS: error= 8.99D-05 at cycle  63 NSaved=  16.
 NSaved=16 IEnMin= 9 EnMin= -924.565501129462     IErMin= 5 ErrMin= 9.66D-08
 ErrMax= 8.99D-05  0.00D+00 EMaxC= 1.00D-01 BMatC= 3.93D-07 BMatP= 3.53D-13
 IDIUse=1 WtCom= 1.00D+00 WtEn= 0.00D+00
 Large coefficients: NSaved= 16 BigCof=    0.00 CofMax=   10.00 Det=-5.63D-18
 Inversion failed.  Reducing to 15 matrices.
 Coeff-Com: -0.900D-01 0.412D+00 0.351D+00 0.164D+01-0.970D+00-0.731D+00
 Coeff-Com: -0.147D+01-0.365D+01 0.342D+01 0.272D+01-0.650D+00-0.122D+01
 Coeff-Com:  0.270D-01 0.573D-02 0.121D+01
 Coeff:     -0.900D-01 0.412D+00 0.351D+00 0.164D+01-0.970D+00-0.731D+00
 Coeff:     -0.147D+01-0.365D+01 0.342D+01 0.272D+01-0.650D+00-0.122D+01
 Coeff:      0.270D-01 0.573D-02 0.121D+01
 Gap=     0.109 Goal=   None    Shift=    0.000
 Gap=     0.266 Goal=   None    Shift=    0.000
 RMSDP=7.68D-08 MaxDP=1.80D-06 DE= 5.89D-09 OVMax= 1.21D-05

 Cycle  64  Pass 1  IDiag  1:
 E= -924.565501020566     Delta-E=       -0.000000000391 Rises=F Damp=F
 DIIS: error= 8.97D-05 at cycle  64 NSaved=  16.
 NSaved=16 IEnMin= 9 EnMin= -924.565501129462     IErMin= 5 ErrMin= 9.66D-08
 ErrMax= 8.97D-05  0.00D+00 EMaxC= 1.00D-01 BMatC= 3.92D-07 BMatP= 3.53D-13
 IDIUse=1 WtCom= 1.00D+00 WtEn= 0.00D+00
 Large coefficients: NSaved= 16 BigCof=    0.00 CofMax=   10.00 Det=-1.66D-18
 Inversion failed.  Reducing to 15 matrices.
 Coeff-Com: -0.272D-01 0.349D+00 0.332D+00 0.171D+01-0.997D+00-0.748D+00
 Coeff-Com: -0.157D+01-0.354D+01 0.342D+01 0.269D+01-0.615D+00-0.118D+01
 Coeff-Com: -0.716D-01-0.259D+01 0.383D+01
 Coeff:     -0.272D-01 0.349D+00 0.332D+00 0.171D+01-0.997D+00-0.748D+00
 Coeff:     -0.157D+01-0.354D+01 0.342D+01 0.269D+01-0.615D+00-0.118D+01
 Coeff:     -0.716D-01-0.259D+01 0.383D+01
 Gap=     0.109 Goal=   None    Shift=    0.000
 Gap=     0.266 Goal=   None    Shift=    0.000
 RMSDP=2.82D-07 MaxDP=6.28D-06 DE=-3.91D-10 OVMax= 4.43D-05

 >>>>>>>>>> Convergence criterion not met.
 SCF Done:  E(UB971) =  -924.565501021     A.U. after   65 cycles
            NFock= 64  Conv=0.28D-06     -V/T= 2.0010
 <Sx>= 0.0000 <Sy>= 0.0000 <Sz>= 1.0000 <S**2>= 2.0096 S= 1.0032
 <L.S>= 0.000000000000E+00
 KE= 9.236419046055D+02 PE=-2.307449889265D+03 EE= 4.012107129918D+02
 Annihilation of the first spin contaminant:
 S**2 before annihilation     2.0096,   after     2.0000
 Leave Link  502 at Thu Feb 12 08:44:50 2015, MaxMem=   524288000 cpu:       107.3
 (Enter /opt/g09/l508.exe)
 Direct SCF.
 Tight linear equation convergence will be used.
 UB971 wavefunction.
 Quadratic Convergence SCF Method.
 Line search only if initial step raises energy.
 Two-electron integral symmetry not used.
 ReadGW:  IGet=1 IStart=         402 Next=         402 LGW=           0.
 Keep R1 and R2 ints in memory in canonical form, NReq=12538247.
 FoFCou: FMM=F IPFlag=           0 FMFlag=           0 FMFlg1=           0
         NFxFlg=           0 DoJE=F BraDBF=F KetDBF=F FulRan=T
         wScrn=  0.000000 ICntrl=     600 IOpCl=  0 I1Cent=           0 NGrid=           0
         NMat0=    1 NMatS0=   3240 NMatT0=    0 NMatD0=    1 NMtDS0=    0 NMtDT0=    0
 Symmetry not used in FoFCou.
 Iteration   1 EE= -924.565501020116                                    Grad=4.433D-04 Max rot=    0.0089 deg.
 QCNR:  CnvC1=4.41D-09 CnvC2=4.41D-08
 LinEq1:  Iter=  0 NonCon=     1 RMS=1.30D-05 Max=4.40D-04 NDo=     1
 AX will form     1 AO Fock derivatives at one time.
 LinEq1:  Iter=  1 NonCon=     1 RMS=2.30D-05 Max=4.66D-04 NDo=     1
 LinEq1:  Iter=  2 NonCon=     1 RMS=1.97D-05 Max=5.17D-04 NDo=     1
 LinEq1:  Iter=  3 NonCon=     1 RMS=4.26D-06 Max=1.16D-04 NDo=     1
 LinEq1:  Iter=  4 NonCon=     1 RMS=1.25D-06 Max=1.93D-05 NDo=     1
 LinEq1:  Iter=  5 NonCon=     1 RMS=4.32D-07 Max=5.99D-06 NDo=     1
 LinEq1:  Iter=  6 NonCon=     1 RMS=1.37D-07 Max=1.73D-06 NDo=     1
 LinEq1:  Iter=  7 NonCon=     1 RMS=3.35D-08 Max=5.19D-07 NDo=     1
 LinEq1:  Iter=  8 NonCon=     1 RMS=1.17D-08 Max=3.87D-07 NDo=     1
 LinEq1:  Iter=  9 NonCon=     1 RMS=5.25D-09 Max=1.22D-07 NDo=     1
 LinEq1:  Iter= 10 NonCon=     0 RMS=9.78D-10 Max=1.85D-08 NDo=     1
 Linear equations converged to 4.414D-09 4.414D-08 after    10 iterations.
 Angle between quadratic step and gradient=  54.12 degrees.
     ILin= 1 X=0.000D+00 Y=-9.245655010201D+02 DE= 0.00D+00 F= -2.42D-07
     ILin= 2 X=1.000D+00 Y=-9.245655011413D+02 DE=-1.21D-07 F=  1.44D-10
     Accept linear search using points  1 and  2.
     An  expanding polynomial of degree  2 produced  0.9994
     Minimum is close to point  2 DX= -5.95D-04 DF=  0.00D+00 DXR=  5.96D-04 DFR=  0.00D+00 which will be used.
 Iteration   2 EE= -924.565501141258     Delta-E=       -0.000000121142 Grad=3.111D-06 Max rot=    0.0000 deg.
 QCNR:  CnvC1=3.11D-11 CnvC2=3.11D-10
 LinEq1:  Iter=  0 NonCon=     1 RMS=1.00D-08 Max=2.05D-07 NDo=     1
 LinEq1:  Iter=  1 NonCon=     1 RMS=1.44D-08 Max=2.07D-07 NDo=     1
 LinEq1:  Iter=  2 NonCon=     1 RMS=1.62D-08 Max=2.12D-07 NDo=     1
 LinEq1:  Iter=  3 NonCon=     1 RMS=1.59D-08 Max=3.34D-07 NDo=     1
 LinEq1:  Iter=  4 NonCon=     1 RMS=7.72D-09 Max=2.29D-07 NDo=     1
 LinEq1:  Iter=  5 NonCon=     1 RMS=3.26D-09 Max=5.70D-08 NDo=     1
 LinEq1:  Iter=  6 NonCon=     1 RMS=1.38D-09 Max=1.79D-08 NDo=     1
 LinEq1:  Iter=  7 NonCon=     1 RMS=5.42D-10 Max=6.58D-09 NDo=     1
 LinEq1:  Iter=  8 NonCon=     1 RMS=1.74D-10 Max=2.97D-09 NDo=     1
 LinEq1:  Iter=  9 NonCon=     1 RMS=5.00D-11 Max=9.49D-10 NDo=     1
 LinEq1:  Iter= 10 NonCon=     1 RMS=1.35D-11 Max=3.87D-10 NDo=     1
 LinEq1:  Iter= 11 NonCon=     0 RMS=4.01D-12 Max=8.18D-11 NDo=     1
 Linear equations converged to 3.111D-11 3.111D-10 after    11 iterations.
 Angle between quadratic step and gradient=  89.83 degrees.
     ILin= 1 X=0.000D+00 Y=-9.245655011413D+02 DE= 0.00D+00 F= -3.74D-11
     ILin= 2 X=1.000D+00 Y=-9.245655011413D+02 DE=-1.89D-11
 Iteration   3 EE= -924.565501141277     Delta-E=       -0.000000000019 Grad=4.323D-06 Max rot=    0.0001 deg.
 QCNR:  CnvC1=4.32D-11 CnvC2=4.32D-10
 LinEq1:  Iter=  0 NonCon=     1 RMS=8.58D-08 Max=1.97D-06 NDo=     1
 LinEq1:  Iter=  1 NonCon=     1 RMS=3.49D-08 Max=9.08D-07 NDo=     1
 LinEq1:  Iter=  2 NonCon=     1 RMS=8.30D-08 Max=1.86D-06 NDo=     1
 LinEq1:  Iter=  3 NonCon=     1 RMS=4.15D-08 Max=5.70D-07 NDo=     1
 LinEq1:  Iter=  4 NonCon=     1 RMS=2.03D-08 Max=2.22D-07 NDo=     1
 LinEq1:  Iter=  5 NonCon=     1 RMS=8.79D-09 Max=1.47D-07 NDo=     1
 LinEq1:  Iter=  6 NonCon=     1 RMS=5.19D-09 Max=1.04D-07 NDo=     1
 LinEq1:  Iter=  7 NonCon=     1 RMS=2.03D-09 Max=6.50D-08 NDo=     1
 LinEq1:  Iter=  8 NonCon=     1 RMS=8.65D-10 Max=1.89D-08 NDo=     1
 LinEq1:  Iter=  9 NonCon=     1 RMS=3.81D-10 Max=4.95D-09 NDo=     1
 LinEq1:  Iter= 10 NonCon=     1 RMS=1.36D-10 Max=2.03D-09 NDo=     1
 LinEq1:  Iter= 11 NonCon=     1 RMS=5.71D-11 Max=7.85D-10 NDo=     1
 LinEq1:  Iter= 12 NonCon=     0 RMS=1.50D-11 Max=2.26D-10 NDo=     1
 Linear equations converged to 4.323D-11 4.323D-10 after    12 iterations.
 Angle between quadratic step and gradient=  89.03 degrees.
     ILin= 1 X=0.000D+00 Y=-9.245655011413D+02 DE= 0.00D+00 F= -1.93D-11
     ILin= 2 X=1.000D+00 Y=-9.245655011413D+02 DE=-9.09D-12
 Iteration   4 EE= -924.565501141286     Delta-E=       -0.000000000009 Grad=5.437D-06 Max rot=    0.0001 deg.
 QCNR:  CnvC1=5.44D-11 CnvC2=5.44D-10
 LinEq1:  Iter=  0 NonCon=     1 RMS=2.62D-08 Max=4.02D-07 NDo=     1
 LinEq1:  Iter=  1 NonCon=     1 RMS=1.80D-08 Max=2.62D-07 NDo=     1
 LinEq1:  Iter=  2 NonCon=     1 RMS=3.40D-08 Max=6.86D-07 NDo=     1
 LinEq1:  Iter=  3 NonCon=     1 RMS=3.91D-08 Max=7.05D-07 NDo=     1
 LinEq1:  Iter=  4 NonCon=     1 RMS=1.38D-08 Max=1.81D-07 NDo=     1
 LinEq1:  Iter=  5 NonCon=     1 RMS=5.54D-09 Max=1.13D-07 NDo=     1
 LinEq1:  Iter=  6 NonCon=     1 RMS=3.06D-09 Max=7.90D-08 NDo=     1
 LinEq1:  Iter=  7 NonCon=     1 RMS=1.66D-09 Max=3.81D-08 NDo=     1
 LinEq1:  Iter=  8 NonCon=     1 RMS=6.73D-10 Max=1.05D-08 NDo=     1
 LinEq1:  Iter=  9 NonCon=     1 RMS=1.80D-10 Max=4.79D-09 NDo=     1
 LinEq1:  Iter= 10 NonCon=     1 RMS=5.41D-11 Max=1.14D-09 NDo=     1
 LinEq1:  Iter= 11 NonCon=     0 RMS=1.58D-11 Max=2.99D-10 NDo=     1
 Linear equations converged to 5.437D-11 5.437D-10 after    11 iterations.
 Angle between quadratic step and gradient=  89.59 degrees.
     ILin= 1 X=0.000D+00 Y=-9.245655011413D+02 DE= 0.00D+00 F= -4.68D-12
     ILin= 2 X=1.000D+00 Y=-9.245655011413D+02 DE=-1.02D-12
 Iteration   5 EE= -924.565501141287     Delta-E=       -0.000000000001 Grad=1.596D-06 Max rot=    0.0000 deg.
 QCNR:  CnvC1=1.60D-11 CnvC2=1.60D-10
 LinEq1:  Iter=  0 NonCon=     1 RMS=2.06D-08 Max=3.53D-07 NDo=     1
 LinEq1:  Iter=  1 NonCon=     1 RMS=1.58D-08 Max=2.27D-07 NDo=     1
 LinEq1:  Iter=  2 NonCon=     1 RMS=3.12D-08 Max=6.07D-07 NDo=     1
 LinEq1:  Iter=  3 NonCon=     1 RMS=1.90D-08 Max=4.22D-07 NDo=     1
 LinEq1:  Iter=  4 NonCon=     1 RMS=9.11D-09 Max=1.56D-07 NDo=     1
 LinEq1:  Iter=  5 NonCon=     1 RMS=4.68D-09 Max=5.87D-08 NDo=     1
 LinEq1:  Iter=  6 NonCon=     1 RMS=2.68D-09 Max=6.52D-08 NDo=     1
 LinEq1:  Iter=  7 NonCon=     1 RMS=1.18D-09 Max=3.28D-08 NDo=     1
 LinEq1:  Iter=  8 NonCon=     1 RMS=5.89D-10 Max=9.47D-09 NDo=     1
 LinEq1:  Iter=  9 NonCon=     1 RMS=2.27D-10 Max=2.85D-09 NDo=     1
 LinEq1:  Iter= 10 NonCon=     1 RMS=8.05D-11 Max=1.20D-09 NDo=     1
 LinEq1:  Iter= 11 NonCon=     1 RMS=2.87D-11 Max=4.34D-10 NDo=     1
 LinEq1:  Iter= 12 NonCon=     0 RMS=5.48D-12 Max=5.67D-11 NDo=     1
 Linear equations converged to 1.596D-11 1.596D-10 after    12 iterations.
 Angle between quadratic step and gradient=  89.78 degrees.
     ILin= 1 X=0.000D+00 Y=-9.245655011413D+02 DE= 0.00D+00 F= -3.01D-12
     ILin= 2 X=1.000D+00 Y=-9.245655011413D+02 DE= 0.00D+00 F=  3.84D-12
     ILin= 3 X=2.000D+00 Y=-9.245655011413D+02 DE= 6.71D-12 F=  1.07D-11
 QCLLim is confused:  Bigger=T Turned=T
 NLin=  3 IMin12=  1  2 I12=  0  2 IX=  1 XLMin= 0.000D+00 XLMax= 0.000D+00
 X = 0.000D+00 1.000D+00 2.000D+00
 DE= 0.000D+00 0.000D+00 6.708D-12
     An  expanding polynomial of degree  3 produced  0.5085
 Iteration   6 EE= -924.565501141291     Delta-E=       -0.000000000004 Grad=2.783D-06 Max rot=    0.0000 deg.
 QCNR:  CnvC1=2.78D-11 CnvC2=2.78D-10
 LinEq1:  Iter=  0 NonCon=     1 RMS=1.78D-08 Max=2.89D-07 NDo=     1
 LinEq1:  Iter=  1 NonCon=     1 RMS=9.14D-09 Max=1.51D-07 NDo=     1
 LinEq1:  Iter=  2 NonCon=     1 RMS=6.87D-09 Max=1.24D-07 NDo=     1
 LinEq1:  Iter=  3 NonCon=     1 RMS=2.84D-09 Max=4.88D-08 NDo=     1
 LinEq1:  Iter=  4 NonCon=     1 RMS=6.55D-09 Max=8.68D-08 NDo=     1
 LinEq1:  Iter=  5 NonCon=     1 RMS=4.04D-09 Max=7.11D-08 NDo=     1
 LinEq1:  Iter=  6 NonCon=     1 RMS=2.04D-09 Max=5.49D-08 NDo=     1
 LinEq1:  Iter=  7 NonCon=     1 RMS=1.05D-09 Max=2.12D-08 NDo=     1
 LinEq1:  Iter=  8 NonCon=     1 RMS=5.55D-10 Max=1.07D-08 NDo=     1
 LinEq1:  Iter=  9 NonCon=     1 RMS=1.76D-10 Max=2.52D-09 NDo=     1
 LinEq1:  Iter= 10 NonCon=     1 RMS=6.36D-11 Max=8.90D-10 NDo=     1
 LinEq1:  Iter= 11 NonCon=     1 RMS=2.32D-11 Max=3.46D-10 NDo=     1
 LinEq1:  Iter= 12 NonCon=     0 RMS=5.74D-12 Max=1.12D-10 NDo=     1
 Linear equations converged to 2.783D-11 2.783D-10 after    12 iterations.
 Angle between quadratic step and gradient=  89.80 degrees.
     ILin= 1 X=0.000D+00 Y=-9.245655011413D+02 DE= 0.00D+00 F= -2.76D-12
     ILin= 2 X=1.000D+00 Y=-9.245655011413D+02 DE= 2.27D-13 F=  1.23D-12
     ILin= 3 X=2.000D+00 Y=-9.245655011413D+02 DE= 3.41D-12 F=  5.22D-12
 QCLLim is confused:  Bigger=T Turned=T
 NLin=  3 IMin12=  1  2 I12=  0  2 IX=  1 XLMin= 0.000D+00 XLMax= 0.000D+00
 X = 0.000D+00 1.000D+00 2.000D+00
 DE= 0.000D+00 2.274D-13 3.411D-12
     An  expanding polynomial of degree  3 produced  0.4231
 Iteration   7 EE= -924.565501141292     Delta-E=       -0.000000000001 Grad=1.331D-06 Max rot=    0.0000 deg.
 QCNR:  CnvC1=1.33D-11 CnvC2=1.33D-10
 LinEq1:  Iter=  0 NonCon=     1 RMS=1.17D-08 Max=1.20D-07 NDo=     1
 LinEq1:  Iter=  1 NonCon=     1 RMS=4.95D-09 Max=6.10D-08 NDo=     1
 LinEq1:  Iter=  2 NonCon=     1 RMS=8.84D-09 Max=1.52D-07 NDo=     1
 LinEq1:  Iter=  3 NonCon=     1 RMS=1.10D-08 Max=1.43D-07 NDo=     1
 LinEq1:  Iter=  4 NonCon=     1 RMS=5.35D-09 Max=8.73D-08 NDo=     1
 LinEq1:  Iter=  5 NonCon=     1 RMS=2.36D-09 Max=6.41D-08 NDo=     1
 LinEq1:  Iter=  6 NonCon=     1 RMS=1.52D-09 Max=3.96D-08 NDo=     1
 LinEq1:  Iter=  7 NonCon=     1 RMS=5.41D-10 Max=5.42D-09 NDo=     1
 LinEq1:  Iter=  8 NonCon=     1 RMS=2.29D-10 Max=4.10D-09 NDo=     1
 LinEq1:  Iter=  9 NonCon=     1 RMS=7.87D-11 Max=1.13D-09 NDo=     1
 LinEq1:  Iter= 10 NonCon=     1 RMS=3.40D-11 Max=4.49D-10 NDo=     1
 LinEq1:  Iter= 11 NonCon=     1 RMS=1.24D-11 Max=1.84D-10 NDo=     1
 LinEq1:  Iter= 12 NonCon=     0 RMS=3.84D-12 Max=6.28D-11 NDo=     1
 Linear equations converged to 1.331D-11 1.331D-10 after    12 iterations.
 Angle between quadratic step and gradient=  89.77 degrees.
     ILin= 1 X=0.000D+00 Y=-9.245655011413D+02 DE= 0.00D+00 F= -1.47D-12
     ILin= 2 X=1.000D+00 Y=-9.245655011413D+02 DE= 3.41D-13 F= -3.22D-13
     ILin= 3 X=2.000D+00 Y=-9.245655011413D+02 DE= 6.82D-13 F=  8.24D-13
     No minimum found in polynomial.
     ILin= 4 X=4.000D+00 Y=-9.245655011413D+02 DE= 4.09D-12 F=  3.11D-12
     No minimum found in polynomial.
     ILin= 5 X=8.000D+00 Y=-9.245655011413D+02 DE= 2.60D-11 F=  7.70D-12
     No minimum found in polynomial.
     ILin= 6 X=1.600D+01 Y=-9.245655011412D+02 DE= 1.26D-10 F=  1.69D-11
 QCLLim is confused:  Bigger=T Turned=T
 NLin=  6 IMin12=  1  2 I12=  0  2 IX=  1 XLMin= 0.000D+00 XLMax= 0.000D+00
 X = 0.000D+00 1.000D+00 2.000D+00 4.000D+00 8.000D+00 1.600D+01
 DE= 0.000D+00 3.411D-13 6.821D-13 4.093D-12 2.603D-11 1.257D-10
     Reject polynomial minimum 2.149D+01 FVal=-9.245655011414D+02 Lims=  0.00D+00  1.00D+00
     ILin= 7 X=3.200D+01 Y=-9.245655011408D+02 DE= 5.41D-10 F=  3.53D-11
     No minimum found in polynomial.
     ILin= 8 X=6.400D+01 Y=-9.245655011390D+02 DE= 2.26D-09 F=  7.23D-11
     No minimum found in polynomial.
[...]
      0.1264700000D+04  0.3122017423D-02
      0.3012300000D+03  0.2516579464D-01
      0.9697770000D+02  0.1184178291D+00
      0.3637270000D+02  0.3522190030D+00
      0.1478140000D+02  0.6219379661D+00
 P   1 1.00       0.000000000000
      0.6274650000D+01  0.1000000000D+01
 P   1 1.00       0.000000000000
      0.2478780000D+01  0.1000000000D+01
 P   1 1.00       0.000000000000
      0.1016180000D+01  0.1000000000D+01
 P   1 1.00       0.000000000000
      0.3981620000D+00  0.1000000000D+01
 P   1 1.00       0.000000000000
      0.1015610000D+00  0.1000000000D+01
 P   1 1.00       0.000000000000
      0.3405400000D-01  0.1000000000D+01
 D   3 1.00       0.000000000000
      0.2599240000D+02  0.5411706153D-01
      0.7086340000D+01  0.2873032281D+00
      0.2348710000D+01  0.7854540223D+00
 D   1 1.00       0.000000000000
      0.8001980000D+00  0.1000000000D+01
 D   1 1.00       0.000000000000
      0.2620490000D+00  0.1000000000D+01
 D   1 1.00       0.000000000000
      0.7200000000D-01  0.1000000000D+01
 F   1 1.00       0.000000000000
      0.6900000000D+00  0.1000000000D+01
 ****
      2 0
 S   6 1.00       0.000000000000
      0.8588500000D+04  0.1895150083D-02
      0.1297230000D+04  0.1438590063D-01
      0.2992960000D+03  0.7073200310D-01
      0.8737710000D+02  0.2400010105D+00
      0.2567890000D+02  0.5947970261D+00
      0.3740040000D+01  0.2808020123D+00
 SP   3 1.00       0.000000000000
      0.4211750000D+02  0.1138890124D+00  0.3651139738D-01
      0.9628370000D+01  0.9208111006D+00  0.2371529830D+00
      0.2853320000D+01 -0.3274470358D-02  0.8197019412D+00
 SP   1 1.00       0.000000000000
      0.9056610000D+00  0.1000000000D+01  0.1000000000D+01
 SP   1 1.00       0.000000000000
      0.2556110000D+00  0.1000000000D+01  0.1000000000D+01
 SP   1 1.00       0.000000000000
      0.8450000000D-01  0.1000000000D+01  0.1000000000D+01
 D   1 1.00       0.000000000000
      0.1292000000D+01  0.1000000000D+01
 ****

    80 basis functions,   130 primitive gaussians,    88 cartesian basis functions
    16 alpha electrons       14 beta electrons
       nuclear repulsion energy        58.0317706473 Hartrees.
 IExCor= 1614 DFT=T Ex+Corr=B971 ExCW=0 ScaHFX=  0.210000
 ScaDFX=  1.000000  1.000000  1.000000  1.000000 ScalE2=  1.000000  1.000000
 IRadAn=      5 IRanWt=     -1 IRanGd=            0 ICorTp=0 IEmpDi=  4
 NAtoms=    2 NActive=    2 NUniq=    2 SFac= 1.00D+00 NAtFMM=   60 NAOKFM=F Big=F
 Integral buffers will be    131072 words long.
 Raffenetti 2 integral format.
 Two-electron integral symmetry is turned off.
 Leave Link  301 at Thu Feb 12 08:46:03 2015, MaxMem=   524288000 cpu:         0.4
 (Enter /opt/g09/l302.exe)
 NPDir=0 NMtPBC=     1 NCelOv=     1 NCel=       1 NClECP=     1 NCelD=      1
         NCelK=      1 NCelE2=     1 NClLst=     1 CellRange=     0.0.
 One-electron integrals computed using PRISM.
 NBasis=    80 RedAO= T EigKep=  1.39D-03  NBF=    80
 NBsUse=    80 1.00D-06 EigRej= -1.00D+00 NBFU=    80
 Precomputing XC quadrature grid using
 IXCGrd= 4 IRadAn=           5 IRanWt=          -1 IRanGd=           0 AccXCQ= 0.00D+00.
 Generated NRdTot=       0 NPtTot=           0 NUsed=           0 NTot=          32
 NSgBfM=    88    88    88    88    88 MxSgAt=     2 MxSgA2=     2.
 Leave Link  302 at Thu Feb 12 08:46:04 2015, MaxMem=   524288000 cpu:         1.5
 (Enter /opt/g09/l303.exe)
 DipDrv:  MaxL=1.
 Leave Link  303 at Thu Feb 12 08:46:04 2015, MaxMem=   524288000 cpu:         0.3
 (Enter /opt/g09/l401.exe)
 Initial guess from the checkpoint file:  "/scratch/pb556/g09_run/ticl_thermo//Gau-10850.chk"
 B after Tr=     0.000000    0.000000    0.000000
         Rot=    1.000000    0.000000    0.000000    0.000000 Ang=   0.00 deg.
 Guess basis will be translated and rotated to current coordinates.
 JPrj=2 DoOrth=T DoCkMO=T.
 Initial guess <Sx>= 0.0000 <Sy>= 0.0000 <Sz>= 1.0000 <S**2>= 2.0096 S= 1.0032
 Leave Link  401 at Thu Feb 12 08:46:04 2015, MaxMem=   524288000 cpu:         0.8
 (Enter /opt/g09/l502.exe)
 UHF open shell SCF:
 Using DIIS extrapolation, IDIIS=  1040.
 Two-electron integral symmetry not used.
 Keep R1 and R2 ints in memory in canonical form, NReq=12497719.
 IVT=       30410 IEndB=       30410 NGot=   524288000 MDV=   513756751
 LenX=   513756751 LenY=   513748566
 Requested convergence on RMS density matrix=1.00D-08 within  64 cycles.
 Requested convergence on MAX density matrix=1.00D-06.
 Requested convergence on             energy=1.00D-06.
 No special actions if energy rises.
 FoFCou: FMM=F IPFlag=           0 FMFlag=           0 FMFlg1=           0
         NFxFlg=           0 DoJE=F BraDBF=F KetDBF=F FulRan=T
         wScrn=  0.000000 ICntrl=     600 IOpCl=  0 I1Cent=           0 NGrid=           0
         NMat0=    1 NMatS0=   3240 NMatT0=    0 NMatD0=    1 NMtDS0=    0 NMtDT0=    0
 Symmetry not used in FoFCou.

 Cycle   1  Pass 1  IDiag  1:
 E= -924.565501141289    
 DIIS: error= 1.17D-08 at cycle   1 NSaved=   1.
 NSaved= 1 IEnMin= 1 EnMin= -924.565501141289     IErMin= 1 ErrMin= 1.17D-08
 ErrMax= 1.17D-08  0.00D+00 EMaxC= 1.00D-01 BMatC= 1.22D-13 BMatP= 1.22D-13
 IDIUse=1 WtCom= 1.00D+00 WtEn= 0.00D+00
 Coeff-Com:  0.100D+01
 Coeff:      0.100D+01
 Gap=     0.109 Goal=   None    Shift=    0.000
 Gap=     0.266 Goal=   None    Shift=    0.000
 RMSDP=9.07D-09 MaxDP=1.87D-07              OVMax= 1.43D-07

 SCF Done:  E(UB971) =  -924.565501141     A.U. after    1 cycles
            NFock=  1  Conv=0.91D-08     -V/T= 2.0010
 <Sx>= 0.0000 <Sy>= 0.0000 <Sz>= 1.0000 <S**2>= 2.0096 S= 1.0032
 <L.S>= 0.000000000000E+00
 KE= 9.236399841723D+02 PE=-2.307443609194D+03 EE= 4.012063532333D+02
 Annihilation of the first spin contaminant:
 S**2 before annihilation     2.0096,   after     2.0000
 Leave Link  502 at Thu Feb 12 08:46:05 2015, MaxMem=   524288000 cpu:         6.7
 (Enter /opt/g09/l508.exe)
 QCSCF skips out because SCF is already converged.
 Leave Link  508 at Thu Feb 12 08:46:05 2015, MaxMem=   524288000 cpu:         0.0
 (Enter /opt/g09/l801.exe)
 DoSCS=F DFT=T ScalE2(SS,OS)=  1.000000  1.000000
 Range of M.O.s used for correlation:     1    80
 NBasis=    80 NAE=    16 NBE=    14 NFC=     0 NFV=     0
 NROrb=     80 NOA=    16 NOB=    14 NVA=    64 NVB=    66

 **** Warning!!: The largest alpha MO coefficient is  0.13112339D+02


 **** Warning!!: The largest beta MO coefficient is  0.12628859D+02

 Leave Link  801 at Thu Feb 12 08:46:05 2015, MaxMem=   524288000 cpu:         0.3
 (Enter /opt/g09/l1101.exe)
 Using compressed storage, NAtomX=     2.
 Will process      3 centers per pass.
 Leave Link 1101 at Thu Feb 12 08:46:05 2015, MaxMem=   524288000 cpu:         3.0
 (Enter /opt/g09/l1102.exe)
 Symmetrizing basis deriv contribution to polar:
 IMax=3 JMax=2 DiffMx= 0.00D+00
 Leave Link 1102 at Thu Feb 12 08:46:06 2015, MaxMem=   524288000 cpu:         0.3
 (Enter /opt/g09/l1110.exe)
 Forming Gx(P) for the SCF density, NAtomX=     2.
 Integral derivatives from FoFJK, PRISM(SPDF).
 Do as many integral derivatives as possible in FoFJK.
 G2DrvN: MDV=     524287880.
 G2DrvN: will do     3 centers at a time, making    1 passes.
 Calling FoFCou, ICntrl=  3107 FMM=F I1Cent=   0 AccDes= 0.00D+00.
 FoFJK:  IHMeth= 1 ICntrl=    3107 DoSepK=F KAlg= 0 I1Cent=   0 FoldK=F
 IRaf=         0 NMat=   1 IRICut=       1 DoRegI=T DoRafI=F ISym2E= 0.
 FoFCou: FMM=F IPFlag=           0 FMFlag=      100000 FMFlg1=           0
         NFxFlg=           0 DoJE=F BraDBF=F KetDBF=F FulRan=T
         wScrn=  0.000000 ICntrl=    3107 IOpCl=  1 I1Cent=           0 NGrid=           0
         NMat0=    1 NMatS0=      1 NMatT0=    0 NMatD0=    1 NMtDS0=    0 NMtDT0=    0
 Symmetry not used in FoFCou.
 End of G2Drv F.D. properties file   721 does not exist.
 End of G2Drv F.D. properties file   722 does not exist.
 End of G2Drv F.D. properties file   788 does not exist.
 Leave Link 1110 at Thu Feb 12 08:46:09 2015, MaxMem=   524288000 cpu:        25.8
 (Enter /opt/g09/l1002.exe)
 Minotr:  UHF open shell wavefunction.
          IDoAtm=11
          Direct CPHF calculation.
          Differentiating once with respect to electric field.
                with respect to dipole field.
          Differentiating once with respect to nuclear coordinates.
          Requested convergence is 1.0D-08 RMS, and 1.0D-07 maximum.
          Secondary convergence is 1.0D-12 RMS, and 1.0D-12 maximum.
          NewPWx=T KeepS1=F KeepF1=F KeepIn=T MapXYZ=F SortEE=F KeepMc=T.
          MDV=     524287816 using IRadAn=       1.
 Generate precomputed XC quadrature information.
 Keep R1 and R2 ints in memory in canonical form, NReq=12480085.
 FoFCou: FMM=F IPFlag=           0 FMFlag=           0 FMFlg1=           0
         NFxFlg=           0 DoJE=F BraDBF=F KetDBF=F FulRan=T
         wScrn=  0.000000 ICntrl=     600 IOpCl=  0 I1Cent=           0 NGrid=           0
         NMat0=    1 NMatS0=   3240 NMatT0=    0 NMatD0=    1 NMtDS0=    0 NMtDT0=    0
 Symmetry not used in FoFCou.
          Solving linear equations simultaneously, MaxMat=       0.
          There are     9 degrees of freedom in the 1st order CPHF.  IDoFFX=6 NUNeed=     3.
      6 vectors produced by pass  0 Test12= 2.16D-14 1.11D-08 XBig12= 3.02D+02 1.41D+01.
 AX will form     6 AO Fock derivatives at one time.
      6 vectors produced by pass  1 Test12= 2.16D-14 1.11D-08 XBig12= 6.57D+02 1.40D+01.
      6 vectors produced by pass  2 Test12= 2.16D-14 1.11D-08 XBig12= 6.67D+01 3.53D+00.
      6 vectors produced by pass  3 Test12= 2.16D-14 1.11D-08 XBig12= 1.81D+01 1.94D+00.
      6 vectors produced by pass  4 Test12= 2.16D-14 1.11D-08 XBig12= 5.20D-01 2.04D-01.
      6 vectors produced by pass  5 Test12= 2.16D-14 1.11D-08 XBig12= 1.37D-02 4.54D-02.
      6 vectors produced by pass  6 Test12= 2.16D-14 1.11D-08 XBig12= 1.56D-04 4.48D-03.
      6 vectors produced by pass  7 Test12= 2.16D-14 1.11D-08 XBig12= 1.64D-05 3.04D-03.
      6 vectors produced by pass  8 Test12= 2.16D-14 1.11D-08 XBig12= 1.19D-06 4.06D-04.
      4 vectors produced by pass  9 Test12= 2.16D-14 1.11D-08 XBig12= 1.49D-08 5.44D-05.
      4 vectors produced by pass 10 Test12= 2.16D-14 1.11D-08 XBig12= 2.02D-10 4.01D-06.
      1 vectors produced by pass 11 Test12= 2.16D-14 1.11D-08 XBig12= 2.76D-12 4.42D-07.
      1 vectors produced by pass 12 Test12= 2.16D-14 1.11D-08 XBig12= 1.58D-14 2.58D-08.
 InvSVY:  IOpt=1 It=  1 EMax= 8.88D-16
 Solved reduced A of dimension    64 with     6 vectors.
 FullF1:  Do perturbations    1 to     3.
 Isotropic polarizability for W=    0.000000       96.85 Bohr**3.
 End of Minotr F.D. properties file   721 does not exist.
 End of Minotr F.D. properties file   722 does not exist.
 End of Minotr F.D. properties file   788 does not exist.
 Leave Link 1002 at Thu Feb 12 08:46:14 2015, MaxMem=   524288000 cpu:        42.2
 (Enter /opt/g09/l701.exe)
 Compute integral second derivatives.
 ... and contract with generalized density number  0.
 Leave Link  701 at Thu Feb 12 08:46:15 2015, MaxMem=   524288000 cpu:         4.2
 (Enter /opt/g09/l702.exe)
 L702 exits ... SP integral derivatives will be done elsewhere.
 Leave Link  702 at Thu Feb 12 08:46:15 2015, MaxMem=   524288000 cpu:         0.2
 (Enter /opt/g09/l703.exe)
 Compute integral second derivatives, UseDBF=F ICtDFT=           0.
 Integral derivatives from FoFJK, PRISM(SPDF).
 Calling FoFJK, ICntrl=    100127 FMM=F ISym2X=0 I1Cent= 0 IOpClX= 1 NMat=1 NMatS=1 NMatT=0.
 FoFJK:  IHMeth= 1 ICntrl=  100127 DoSepK=F KAlg= 0 I1Cent=   0 FoldK=F
 IRaf=         0 NMat=   1 IRICut=       1 DoRegI=T DoRafI=F ISym2E= 0.
 FoFCou: FMM=F IPFlag=           0 FMFlag=      100000 FMFlg1=         800
         NFxFlg=           0 DoJE=F BraDBF=F KetDBF=F FulRan=T
         wScrn=  0.000000 ICntrl=  100127 IOpCl=  1 I1Cent=           0 NGrid=           0
         NMat0=    1 NMatS0=      1 NMatT0=    0 NMatD0=    1 NMtDS0=    0 NMtDT0=    0
 Symmetry not used in FoFCou.
 Leave Link  703 at Thu Feb 12 08:46:23 2015, MaxMem=   524288000 cpu:        59.5
 (Enter /opt/g09/l716.exe)
 Dipole        =-1.36505694D+00 4.46558158D-08-1.18157168D-07
 Polarizability= 8.25798025D+01 1.24604653D-06 1.03988907D+02
                 7.99345036D-07-6.52300449D-08 1.03988905D+02
 Full mass-weighted force constant matrix:
 Low frequencies ---   -0.0062   -0.0061   -0.0030   10.4050   10.4050 1056.7044
 Diagonal vibrational polarizability:
        5.7404460       0.0000000       0.0000000
 Harmonic frequencies (cm**-1), IR intensities (KM/Mole), Raman scattering
 activities (A**4/AMU), depolarization ratios for plane and unpolarized
 incident light, reduced masses (AMU), force constants (mDyne/A),
 and normal coordinates:
                      1
                      A
 Frequencies --   1056.7044
 Red. masses --     19.1946
 Frc consts  --     12.6281
 IR Inten    --    238.1878
  Atom  AN      X      Y      Z
     1  22     0.32   0.00   0.00
     2   8    -0.95   0.00   0.00

 -------------------
 - Thermochemistry -
 -------------------
 Temperature   298.150 Kelvin.  Pressure   1.00000 Atm.
 Atom     1 has atomic number 22 and mass  47.94795
 Atom     2 has atomic number  8 and mass  15.99491
 Molecular mass:    63.94286 amu.
 Principal axes and moments of inertia in atomic units:
                           1         2         3
     Eigenvalues --     0.00000 110.31983 110.31983
           X            1.00000   0.00000   0.00000
           Y            0.00000   1.00000   0.00000
           Z            0.00000   0.00000   1.00000
 This molecule is a prolate symmetric top.
 Rotational symmetry number  1.
 Rotational temperature (Kelvin)      0.78512
 Rotational constant (GHZ):          16.359174
 Zero-point vibrational energy       6320.5 (Joules/Mol)
                                    1.51063 (Kcal/Mol)
 Vibrational temperatures:   1520.36
          (Kelvin)
 
 Zero-point correction=                           0.002407 (Hartree/Particle)
 Thermal correction to Energy=                    0.004797
 Thermal correction to Enthalpy=                  0.005742
 Thermal correction to Gibbs Free Energy=        -0.020121
 Sum of electronic and zero-point Energies=           -924.563094
 Sum of electronic and thermal Energies=              -924.560704
 Sum of electronic and thermal Enthalpies=            -924.559760
 Sum of electronic and thermal Free Energies=         -924.585622
 
                     E (Thermal)             CV                S
                      KCal/Mol        Cal/Mol-Kelvin    Cal/Mol-Kelvin
 Total                    3.010              5.287             54.433
 Electronic               0.000              0.000              2.183
 Translational            0.889              2.981             38.385
 Rotational               0.592              1.987             13.790
 Vibrational              1.529              0.319              0.074
                       Q            Log10(Q)             Ln(Q)
 Total Bot       0.179938D+10          9.255122         21.310706
 Total V=0       0.230369D+11         10.362424         23.860362
 Vib (Bot)       0.785880D-01         -1.104644         -2.543537
 Vib (V=0)       0.100614D+01          0.002658          0.006120
 Electronic      0.300000D+01          0.477121          1.098612
 Translational   0.200976D+08          7.303143         16.816109
 Rotational      0.379753D+03          2.579501          5.939521
 -------------------------------------------------------------------
 Center     Atomic                   Forces (Hartrees/Bohr)
 Number     Number              X              Y              Z
 -------------------------------------------------------------------
      1       22          -0.000005765    0.000000000    0.000000007
      2        8           0.000005765    0.000000000   -0.000000007
 -------------------------------------------------------------------
 Cartesian Forces:  Max     0.000005765 RMS     0.000003328
 Force constants in Cartesian coordinates: 
                1             2             3             4             5 
      1  0.506825D+00
      2  0.000000D+00  0.491402D-04
      3  0.000000D+00  0.000000D+00  0.491400D-04
      4 -0.506825D+00  0.000000D+00  0.000000D+00  0.506825D+00
      5  0.000000D+00 -0.491403D-04  0.000000D+00  0.000000D+00  0.491403D-04
      6  0.000000D+00  0.000000D+00 -0.491400D-04  0.000000D+00  0.000000D+00
                6 
      6  0.491400D-04
 FormGI is forming the generalized inverse of G from B-inverse, IUseBI=4.
 Force constants in internal coordinates: 
                1 
      1  0.506825D+00
 Leave Link  716 at Thu Feb 12 08:46:23 2015, MaxMem=   524288000 cpu:         0.3
 (Enter /opt/g09/l103.exe)

 GradGradGradGradGradGradGradGradGradGradGradGradGradGradGradGradGradGrad
 Berny optimization.
 Red2BG is reusing G-inverse.
 Internal  Forces:  Max     0.000005765 RMS     0.000005765
 Search for a local minimum.
 Step number   1 out of a maximum of    2
 All quantities printed in internal units (Hartrees-Bohrs-Radians)
 Second derivative matrix not updated -- analytic derivatives used.
 The second derivative matrix:
                          R1
           R1           0.50683
 ITU=  0
     Eigenvalues ---    0.50683
 Angle between quadratic step and forces=   0.00 degrees.
 Linear search not attempted -- first point.
 Iteration  1 RMS(Cart)=  0.00000804 RMS(Int)=  0.00000000
 Iteration  2 RMS(Cart)=  0.00000000 RMS(Int)=  0.00000000
 ITry= 1 IFail=0 DXMaxC= 5.69D-06 DCOld= 1.00D+10 DXMaxT= 3.00D-01 DXLimC= 3.00D+00 Rises=F
 Variable       Old X    -DE/DX   Delta X   Delta X   Delta X     New X
                                 (Linear)    (Quad)   (Total)
    R1        3.03282   0.00001   0.00000   0.00001   0.00001   3.03283
         Item               Value     Threshold  Converged?
 Maximum Force            0.000006     0.000015     YES
 RMS     Force            0.000006     0.000010     YES
 Maximum Displacement     0.000006     0.000060     YES
 RMS     Displacement     0.000008     0.000040     YES
 Predicted change in Energy=-3.278308D-11
 Optimization completed.
    -- Stationary point found.
                           ----------------------------
                           !   Optimized Parameters   !
                           ! (Angstroms and Degrees)  !
 --------------------------                            --------------------------
 ! Name  Definition              Value          Derivative Info.                !
 --------------------------------------------------------------------------------
 ! R1    R(1,2)                  1.6049         -DE/DX =    0.0                 !
 --------------------------------------------------------------------------------
 GradGradGradGradGradGradGradGradGradGradGradGradGradGradGradGradGradGrad

 Leave Link  103 at Thu Feb 12 08:46:23 2015, MaxMem=   524288000 cpu:         0.0
 (Enter /opt/g09/l9999.exe)
 1\1\GINC-RENOIR\Freq\UB971\6-311+G(d,p)\O1Ti1(3)\PB556\12-Feb-2015\0\\
 #P Geom=AllCheck Guess=TCheck SCRF=Check GenChk UB971/6-311+G(d,p) Fre
 q\\W:\Data\TiCl\esc\B971\gs\new\monomer\fine\success\fine-OTi.g09\\0,3
 \Ti,0.04035,0.,0.\O,1.64525,0.,0.\\Version=ES64L-G09RevD.01\HF=-924.56
 55011\S2=2.009609\S2-1=0.\S2A=2.000047\RMSD=9.074e-09\RMSF=3.328e-06\Z
 eroPoint=0.0024073\Thermal=0.0047974\Dipole=-1.3650569,0.,-0.0000001\D
 ipoleDeriv=1.7118436,0.,0.,-0.0000003,0.4501379,-0.0000297,0.,0.000029
 7,0.4501379,-1.7118436,0.,0.,0.0000003,-0.4501379,0.0000297,0.,-0.0000
 297,-0.4501379\Polar=82.5798025,0.0000012,103.9889069,0.0000008,0.,103
 .988905\PG=C*V [C*(O1Ti1)]\NImag=0\\0.50682536,0.,0.00004914,0.,0.,0.0
 0004914,-0.50682536,0.,0.,0.50682536,0.,-0.00004914,0.,0.,0.00004914,0
 .,0.,-0.00004914,0.,0.,0.00004914\\0.00000576,0.,0.,-0.00000576,0.,0.\
 \\@


 You can't act like a skunk without someone's getting wind of it.
 -- Lorene Workman
 Job cpu time:       0 days  0 hours  2 minutes 32.7 seconds.
 File lengths (MBytes):  RWF=      7 Int=      0 D2E=      0 Chk=      2 Scr=      1
 Normal termination of Gaussian 09 at Thu Feb 12 08:46:23 2015.
