 Entering Gaussian System, Link 0=g09
 Input=freq-fine-tio2-b971-6311+gdp.gau
 Output=freq-fine-tio2-b971-6311+gdp.log
 Initial command:
 /opt/g09/l1.exe "/scratch/pb556/g09_run/mech//Gau-21237.inp" -scrdir="/scratch/pb556/g09_run/mech//"
 Entering Link 1 = /opt/g09/l1.exe PID=     21246.
  
 Copyright (c) 1988,1990,1992,1993,1995,1998,2003,2009,2013,
            Gaussian, Inc.  All Rights Reserved.
  
 This is part of the Gaussian(R) 09 program.  It is based on
 the Gaussian(R) 03 system (copyright 2003, Gaussian, Inc.),
 the Gaussian(R) 98 system (copyright 1998, Gaussian, Inc.),
 the Gaussian(R) 94 system (copyright 1995, Gaussian, Inc.),
 the Gaussian 92(TM) system (copyright 1992, Gaussian, Inc.),
 the Gaussian 90(TM) system (copyright 1990, Gaussian, Inc.),
 the Gaussian 88(TM) system (copyright 1988, Gaussian, Inc.),
 the Gaussian 86(TM) system (copyright 1986, Carnegie Mellon
 University), and the Gaussian 82(TM) system (copyright 1983,
 Carnegie Mellon University). Gaussian is a federally registered
 trademark of Gaussian, Inc.
  
 This software contains proprietary and confidential information,
 including trade secrets, belonging to Gaussian, Inc.
  
 This software is provided under written license and may be
 used, copied, transmitted, or stored only in accord with that
 written license.
  
 The following legend is applicable only to US Government
 contracts under FAR:
  
                    RESTRICTED RIGHTS LEGEND
  
 Use, reproduction and disclosure by the US Government is
 subject to restrictions as set forth in subparagraphs (a)
 and (c) of the Commercial Computer Software - Restricted
 Rights clause in FAR 52.227-19.
  
 Gaussian, Inc.
 340 Quinnipiac St., Bldg. 40, Wallingford CT 06492
  
  
 ---------------------------------------------------------------
 Warning -- This program may not be used in any manner that
 competes with the business of Gaussian, Inc. or will provide
 assistance to any competitor of Gaussian, Inc.  The licensee
 of this program is prohibited from giving any competitor of
 Gaussian, Inc. access to this program.  By using this program,
 the user acknowledges that Gaussian, Inc. is engaged in the
 business of creating and licensing software in the field of
 computational chemistry and represents and warrants to the
 licensee that it is not a competitor of Gaussian, Inc. and that
 it will not use this program in any manner prohibited above.
 ---------------------------------------------------------------
  

 Cite this work as:
 Gaussian 09, Revision D.01,
 M. J. Frisch, G. W. Trucks, H. B. Schlegel, G. E. Scuseria, 
 M. A. Robb, J. R. Cheeseman, G. Scalmani, V. Barone, B. Mennucci, 
 G. A. Petersson, H. Nakatsuji, M. Caricato, X. Li, H. P. Hratchian, 
 A. F. Izmaylov, J. Bloino, G. Zheng, J. L. Sonnenberg, M. Hada, 
 M. Ehara, K. Toyota, R. Fukuda, J. Hasegawa, M. Ishida, T. Nakajima, 
 Y. Honda, O. Kitao, H. Nakai, T. Vreven, J. A. Montgomery, Jr., 
 J. E. Peralta, F. Ogliaro, M. Bearpark, J. J. Heyd, E. Brothers, 
 K. N. Kudin, V. N. Staroverov, T. Keith, R. Kobayashi, J. Normand, 
 K. Raghavachari, A. Rendell, J. C. Burant, S. S. Iyengar, J. Tomasi, 
 M. Cossi, N. Rega, J. M. Millam, M. Klene, J. E. Knox, J. B. Cross, 
 V. Bakken, C. Adamo, J. Jaramillo, R. Gomperts, R. E. Stratmann, 
 O. Yazyev, A. J. Austin, R. Cammi, C. Pomelli, J. W. Ochterski, 
 R. L. Martin, K. Morokuma, V. G. Zakrzewski, G. A. Voth, 
 P. Salvador, J. J. Dannenberg, S. Dapprich, A. D. Daniels, 
 O. Farkas, J. B. Foresman, J. V. Ortiz, J. Cioslowski, 
 and D. J. Fox, Gaussian, Inc., Wallingford CT, 2013.
 
 ******************************************
 Gaussian 09:  ES64L-G09RevD.01 24-Apr-2013
                 8-Feb-2015 
 ******************************************
 %NProcShared=8
 Will use up to    8 processors via shared memory.
 %Mem=500MW
 ----------------------------------------------------------------------
 #p rB971/6-311+G(d,p) Opt=(Tight, CalcAll) Freq GFInput Population=Non
 e Integral(Grid=UltraFine) SCF=XQC Guess=MIX NoSymmetry
 ----------------------------------------------------------------------
 1/7=10,10=4,14=-1,18=20,19=15,26=4,38=1/1,3;
 2/9=110,12=2,15=1,17=6,18=5,40=1/2;
 3/5=4,6=6,7=111,11=2,16=1,24=10,25=1,30=1,71=2,74=-20,75=-5,116=1,140=1/1,2,3;
 4/13=-1/1;
 5/5=2,8=3,13=1,38=5/2,8;
 8/6=4,10=90,11=11/1;
 11/6=1,8=1,9=11,15=111,16=1,31=1/1,2,10;
 10/6=1,31=1/2;
 7/10=1,25=1,30=1/1,2,3,16;
 1/7=10,10=4,14=-1,18=20,19=15,26=4/3(3);
 2/9=110,15=1/2;
 7/8=1,9=1,25=1,30=1,44=-1/16;
 99//99;
 2/9=110,15=1/2;
 3/5=4,6=6,7=111,11=2,16=1,25=1,30=1,71=2,74=-20,75=-5,116=1,140=1/1,2,3;
 4/5=5,16=3,69=1/1;
 5/5=2,8=3,13=1,38=5/2,8;
 8/6=4,10=90,11=11/1;
 11/6=1,8=1,9=11,15=111,16=1,31=1/1,2,10;
 10/6=1,31=1/2;
 7/10=1,25=1,30=1/1,2,3,16;
 1/7=10,10=4,14=-1,18=20,19=15,26=4/3(-8);
 2/9=110,15=1/2;
 7/8=1,9=1,25=1,30=1,44=-1/16;
 99//99;
 Leave Link    1 at Sun Feb  8 01:06:28 2015, MaxMem=   524288000 cpu:         0.6
 (Enter /opt/g09/l101.exe)
 --------------------------------
 freq-fine-tio2-b971-6311+gdp.gau
 --------------------------------
 Symbolic Z-matrix:
 Charge =  0 Multiplicity = 1
 Ti                   -0.00006   0.38618   0. 
 O                     1.35278  -0.53222   0. 
 O                    -1.35273  -0.53247   0. 
 
 NAtoms=      3 NQM=        3 NQMF=       0 NMMI=      0 NMMIF=      0
                NMic=       0 NMicF=      0.
                    Isotopes and Nuclear Properties:
 (Nuclear quadrupole moments (NQMom) in fm**2, nuclear magnetic moments (NMagM)
  in nuclear magnetons)

  Atom         1           2           3
 IAtWgt=          48          16          16
 AtmWgt=  47.9479467  15.9949146  15.9949146
 NucSpn=           0           0           0
 AtZEff=   0.0000000   0.0000000   0.0000000
 NQMom=    0.0000000   0.0000000   0.0000000
 NMagM=    0.0000000   0.0000000   0.0000000
 AtZNuc=  22.0000000   8.0000000   8.0000000
 Leave Link  101 at Sun Feb  8 01:06:28 2015, MaxMem=   524288000 cpu:         1.8
 (Enter /opt/g09/l103.exe)

 GradGradGradGradGradGradGradGradGradGradGradGradGradGradGradGradGradGrad
 Berny optimization.
 Initialization pass.
                           ----------------------------
                           !    Initial Parameters    !
                           ! (Angstroms and Degrees)  !
 --------------------------                            --------------------------
 ! Name  Definition              Value          Derivative Info.                !
 --------------------------------------------------------------------------------
 ! R1    R(1,2)                  1.6351         calculate D2E/DX2 analytically  !
 ! R2    R(1,3)                  1.6351         calculate D2E/DX2 analytically  !
 ! A1    A(2,1,3)              111.6467         calculate D2E/DX2 analytically  !
 --------------------------------------------------------------------------------
 Trust Radius=3.00D-01 FncErr=1.00D-07 GrdErr=1.00D-06
 Number of steps in this run=     20 maximum allowed number of steps=    100.
 GradGradGradGradGradGradGradGradGradGradGradGradGradGradGradGradGradGrad

 Leave Link  103 at Sun Feb  8 01:06:28 2015, MaxMem=   524288000 cpu:         0.1
 (Enter /opt/g09/l202.exe)
                          Input orientation:                          
 ---------------------------------------------------------------------
 Center     Atomic      Atomic             Coordinates (Angstroms)
 Number     Number       Type             X           Y           Z
 ---------------------------------------------------------------------
      1         22           0       -0.000060    0.386180    0.000000
      2          8           0        1.352780   -0.532220    0.000000
      3          8           0       -1.352730   -0.532470    0.000000
 ---------------------------------------------------------------------
                    Distance matrix (angstroms):
                    1          2          3
     1  Ti   0.000000
     2  O    1.635125   0.000000
     3  O    1.635125   2.705510   0.000000
 Symmetry turned off by external request.
 Stoichiometry    O2Ti
 Framework group  C2V[C2(Ti),SGV(O2)]
 Deg. of freedom     2
 Full point group                 C2V     NOp   4
 Rotational constants (GHZ):     31.2180200      8.6331040      6.7628811
 Leave Link  202 at Sun Feb  8 01:06:29 2015, MaxMem=   524288000 cpu:         0.0
 (Enter /opt/g09/l301.exe)
 Standard basis: 6-311+G(d,p) (5D, 7F)
 Ernie: Thresh=  0.10000D-02 Tol=  0.10000D-05 Strict=F.
 AO basis set in the form of general basis input (Overlap normalization):
      1 0
 S   6 1.00       0.000000000000
      0.2060820000D+06  0.5673151380D-03
      0.3122680000D+05  0.4379672866D-02
      0.7199320000D+04  0.2242029425D-01
      0.2048750000D+04  0.9063426645D-01
      0.6707900000D+03  0.2890357165D+00
      0.2436500000D+03  0.6803470061D+00
 S   1 1.00       0.000000000000
      0.9592500000D+02  0.1000000000D+01
 S   1 1.00       0.000000000000
      0.3981010000D+02  0.1000000000D+01
 S   1 1.00       0.000000000000
      0.1222050000D+02  0.1000000000D+01
 S   1 1.00       0.000000000000
      0.5008820000D+01  0.1000000000D+01
 S   1 1.00       0.000000000000
      0.1285690000D+01  0.1000000000D+01
 S   1 1.00       0.000000000000
      0.5128060000D+00  0.1000000000D+01
 S   1 1.00       0.000000000000
      0.8557600000D-01  0.1000000000D+01
 S   1 1.00       0.000000000000
      0.3330200000D-01  0.1000000000D+01
 S   1 1.00       0.000000000000
      0.9991000000D-02  0.1000000000D+01
 P   5 1.00       0.000000000000
      0.1264700000D+04  0.3122017423D-02
      0.3012300000D+03  0.2516579464D-01
      0.9697770000D+02  0.1184178291D+00
      0.3637270000D+02  0.3522190030D+00
      0.1478140000D+02  0.6219379661D+00
 P   1 1.00       0.000000000000
      0.6274650000D+01  0.1000000000D+01
 P   1 1.00       0.000000000000
      0.2478780000D+01  0.1000000000D+01
 P   1 1.00       0.000000000000
      0.1016180000D+01  0.1000000000D+01
 P   1 1.00       0.000000000000
      0.3981620000D+00  0.1000000000D+01
 P   1 1.00       0.000000000000
      0.1015610000D+00  0.1000000000D+01
 P   1 1.00       0.000000000000
      0.3405400000D-01  0.1000000000D+01
 D   3 1.00       0.000000000000
      0.2599240000D+02  0.5411706153D-01
      0.7086340000D+01  0.2873032281D+00
      0.2348710000D+01  0.7854540223D+00
 D   1 1.00       0.000000000000
      0.8001980000D+00  0.1000000000D+01
 D   1 1.00       0.000000000000
      0.2620490000D+00  0.1000000000D+01
 D   1 1.00       0.000000000000
      0.7200000000D-01  0.1000000000D+01
 F   1 1.00       0.000000000000
      0.6900000000D+00  0.1000000000D+01
 ****
      2 0
 S   6 1.00       0.000000000000
      0.8588500000D+04  0.1895150083D-02
      0.1297230000D+04  0.1438590063D-01
      0.2992960000D+03  0.7073200310D-01
      0.8737710000D+02  0.2400010105D+00
      0.2567890000D+02  0.5947970261D+00
      0.3740040000D+01  0.2808020123D+00
 SP   3 1.00       0.000000000000
      0.4211750000D+02  0.1138890124D+00  0.3651139738D-01
      0.9628370000D+01  0.9208111006D+00  0.2371529830D+00
      0.2853320000D+01 -0.3274470358D-02  0.8197019412D+00
 SP   1 1.00       0.000000000000
      0.9056610000D+00  0.1000000000D+01  0.1000000000D+01
 SP   1 1.00       0.000000000000
      0.2556110000D+00  0.1000000000D+01  0.1000000000D+01
 SP   1 1.00       0.000000000000
      0.8450000000D-01  0.1000000000D+01  0.1000000000D+01
 D   1 1.00       0.000000000000
      0.1292000000D+01  0.1000000000D+01
 ****
      3 0
 S   6 1.00       0.000000000000
      0.8588500000D+04  0.1895150083D-02
      0.1297230000D+04  0.1438590063D-01
      0.2992960000D+03  0.7073200310D-01
      0.8737710000D+02  0.2400010105D+00
      0.2567890000D+02  0.5947970261D+00
      0.3740040000D+01  0.2808020123D+00
 SP   3 1.00       0.000000000000
      0.4211750000D+02  0.1138890124D+00  0.3651139738D-01
      0.9628370000D+01  0.9208111006D+00  0.2371529830D+00
      0.2853320000D+01 -0.3274470358D-02  0.8197019412D+00
 SP   1 1.00       0.000000000000
      0.9056610000D+00  0.1000000000D+01  0.1000000000D+01
 SP   1 1.00       0.000000000000
      0.2556110000D+00  0.1000000000D+01  0.1000000000D+01
 SP   1 1.00       0.000000000000
      0.8450000000D-01  0.1000000000D+01  0.1000000000D+01
 D   1 1.00       0.000000000000
      0.1292000000D+01  0.1000000000D+01
 ****

   102 basis functions,   166 primitive gaussians,   111 cartesian basis functions
    19 alpha electrons       19 beta electrons
       nuclear repulsion energy       126.4360297573 Hartrees.
 IExCor= 1614 DFT=T Ex+Corr=B971 ExCW=0 ScaHFX=  0.210000
 ScaDFX=  1.000000  1.000000  1.000000  1.000000 ScalE2=  1.000000  1.000000
 IRadAn=      5 IRanWt=     -1 IRanGd=            0 ICorTp=0 IEmpDi=  4
 NAtoms=    3 NActive=    3 NUniq=    3 SFac= 1.00D+00 NAtFMM=   60 NAOKFM=F Big=F
 Integral buffers will be    131072 words long.
 Raffenetti 2 integral format.
 Two-electron integral symmetry is turned off.
 Leave Link  301 at Sun Feb  8 01:06:29 2015, MaxMem=   524288000 cpu:         0.4
 (Enter /opt/g09/l302.exe)
 NPDir=0 NMtPBC=     1 NCelOv=     1 NCel=       1 NClECP=     1 NCelD=      1
         NCelK=      1 NCelE2=     1 NClLst=     1 CellRange=     0.0.
 One-electron integrals computed using PRISM.
 NBasis=   102 RedAO= T EigKep=  1.14D-03  NBF=   102
 NBsUse=   102 1.00D-06 EigRej= -1.00D+00 NBFU=   102
 Precomputing XC quadrature grid using
 IXCGrd= 4 IRadAn=           5 IRanWt=          -1 IRanGd=           0 AccXCQ= 0.00D+00.
 Generated NRdTot=       0 NPtTot=           0 NUsed=           0 NTot=          32
 NSgBfM=   111   111   111   111   111 MxSgAt=     3 MxSgA2=     3.
 Leave Link  302 at Sun Feb  8 01:06:29 2015, MaxMem=   524288000 cpu:         1.6
 (Enter /opt/g09/l303.exe)
 DipDrv:  MaxL=1.
 Leave Link  303 at Sun Feb  8 01:06:29 2015, MaxMem=   524288000 cpu:         0.3
 (Enter /opt/g09/l401.exe)
 ExpMin= 9.99D-03 ExpMax= 2.06D+05 ExpMxC= 7.20D+03 IAcc=3 IRadAn=         5 AccDes= 0.00D+00
 Harris functional with IExCor= 1614 and IRadAn=       5 diagonalized for initial guess.
 HarFok:  IExCor= 1614 AccDes= 0.00D+00 IRadAn=         5 IDoV= 1 UseB2=F ITyADJ=14
 ICtDFT=  3500011 ScaDFX=  1.000000  1.000000  1.000000  1.000000
 FoFCou: FMM=F IPFlag=           0 FMFlag=      100000 FMFlg1=           0
         NFxFlg=           0 DoJE=T BraDBF=F KetDBF=T FulRan=T
         wScrn=  0.000000 ICntrl=     500 IOpCl=  0 I1Cent=   200000004 NGrid=           0
         NMat0=    1 NMatS0=      1 NMatT0=    0 NMatD0=    1 NMtDS0=    0 NMtDT0=    0
 Symmetry not used in FoFCou.
 Harris En= -988.026896323852    
 JPrj=0 DoOrth=F DoCkMO=T.
 Mixing orbitals, IMix= 1 IMixAn=  0 NRI=1 NE=   19 Coef=  7.07106781D-01  7.07106781D-01
 Leave Link  401 at Sun Feb  8 01:06:29 2015, MaxMem=   524288000 cpu:         2.8
 (Enter /opt/g09/l502.exe)
 Closed shell SCF:
 Using DIIS extrapolation, IDIIS=  1040.
 Two-electron integral symmetry not used.
 Keep R1 ints in memory in canonical form, NReq=15820633.
 IVT=       44465 IEndB=       44465 NGot=   524288000 MDV=   510443905
 LenX=   510443905 LenY=   510431143
 Requested convergence on RMS density matrix=1.00D-08 within  64 cycles.
 Requested convergence on MAX density matrix=1.00D-06.
 Requested convergence on             energy=1.00D-06.
 No special actions if energy rises.
 FoFCou: FMM=F IPFlag=           0 FMFlag=           0 FMFlg1=           0
         NFxFlg=           0 DoJE=F BraDBF=F KetDBF=F FulRan=T
         wScrn=  0.000000 ICntrl=     600 IOpCl=  0 I1Cent=           0 NGrid=           0
         NMat0=    1 NMatS0=   5253 NMatT0=    0 NMatD0=    1 NMtDS0=    0 NMtDT0=    0
 Symmetry not used in FoFCou.

 Cycle   1  Pass 1  IDiag  1:
 E= -999.281516808977    
 DIIS: error= 2.73D-01 at cycle   1 NSaved=   1.
 NSaved= 1 IEnMin= 1 EnMin= -999.281516808977     IErMin= 1 ErrMin= 2.73D-01
 ErrMax= 2.73D-01  0.00D+00 EMaxC= 1.00D-01 BMatC= 2.81D+00 BMatP= 2.81D+00
 IDIUse=3 WtCom= 0.00D+00 WtEn= 1.00D+00
 Coeff-Com:  0.100D+01
 Coeff-En:   0.100D+01
 Coeff:      0.100D+01
 Gap=     0.040 Goal=   None    Shift=    0.000
 GapD=    0.040 DampG=0.250 DampE=0.125 DampFc=0.1250 IDamp=-1.
 Damping current iteration by 1.25D-01
 RMSDP=2.25D-02 MaxDP=9.68D-01              OVMax= 8.95D-01

 Cycle   2  Pass 1  IDiag  1:
 E= -999.312502791933     Delta-E=       -0.030985982956 Rises=F Damp=T
 DIIS: error= 2.36D-01 at cycle   2 NSaved=   2.
 NSaved= 2 IEnMin= 2 EnMin= -999.312502791933     IErMin= 2 ErrMin= 2.36D-01
 ErrMax= 2.36D-01  0.00D+00 EMaxC= 1.00D-01 BMatC= 1.62D+00 BMatP= 2.81D+00
 IDIUse=3 WtCom= 0.00D+00 WtEn= 1.00D+00
 Coeff-Com: -0.843D+00 0.184D+01
 Coeff-En:   0.447D+00 0.553D+00
 Coeff:      0.447D+00 0.553D+00
 Gap=     0.003 Goal=   None    Shift=    0.000
 RMSDP=8.64D-03 MaxDP=1.68D-01 DE=-3.10D-02 OVMax= 9.18D-01

 Cycle   3  Pass 1  IDiag  1:
 E= -998.558529205736     Delta-E=        0.753973586197 Rises=F Damp=F
 DIIS: error= 2.55D-01 at cycle   3 NSaved=   3.
 NSaved= 3 IEnMin= 2 EnMin= -999.312502791933     IErMin= 2 ErrMin= 2.36D-01
 ErrMax= 2.55D-01  0.00D+00 EMaxC= 1.00D-01 BMatC= 2.82D+00 BMatP= 1.62D+00
 IDIUse=2 WtCom= 0.00D+00 WtEn= 1.00D+00
 EnCoef did   100 forward-backward iterations
 Coeff-En:   0.653D+00 0.630D-02 0.341D+00
 Coeff:      0.653D+00 0.630D-02 0.341D+00
 Gap=     0.196 Goal=   None    Shift=    0.000
 RMSDP=5.73D-03 MaxDP=6.91D-02 DE= 7.54D-01 OVMax= 3.37D-01

 Cycle   4  Pass 1  IDiag  1:
 E= -999.727341995426     Delta-E=       -1.168812789691 Rises=F Damp=F
 DIIS: error= 6.45D-02 at cycle   4 NSaved=   4.
 NSaved= 4 IEnMin= 4 EnMin= -999.727341995426     IErMin= 4 ErrMin= 6.45D-02
 ErrMax= 6.45D-02  0.00D+00 EMaxC= 1.00D-01 BMatC= 1.91D-01 BMatP= 1.62D+00
 IDIUse=3 WtCom= 3.55D-01 WtEn= 6.45D-01
 Coeff-Com: -0.222D+00 0.403D+00 0.775D-01 0.741D+00
 Coeff-En:   0.000D+00 0.000D+00 0.159D+00 0.841D+00
 Coeff:     -0.789D-01 0.143D+00 0.130D+00 0.806D+00
 Gap=     0.076 Goal=   None    Shift=    0.000
 RMSDP=3.75D-03 MaxDP=6.75D-02 DE=-1.17D+00 OVMax= 1.92D-01

 Cycle   5  Pass 1  IDiag  1:
 E= -999.704816066724     Delta-E=        0.022525928702 Rises=F Damp=F
 DIIS: error= 7.24D-02 at cycle   5 NSaved=   5.
 NSaved= 5 IEnMin= 4 EnMin= -999.727341995426     IErMin= 4 ErrMin= 6.45D-02
 ErrMax= 7.24D-02  0.00D+00 EMaxC= 1.00D-01 BMatC= 2.30D-01 BMatP= 1.91D-01
 IDIUse=2 WtCom= 0.00D+00 WtEn= 1.00D+00
 Coeff-En:   0.000D+00 0.000D+00 0.000D+00 0.526D+00 0.474D+00
 Coeff:      0.000D+00 0.000D+00 0.000D+00 0.526D+00 0.474D+00
 Gap=     0.148 Goal=   None    Shift=    0.000
 RMSDP=1.87D-03 MaxDP=4.27D-02 DE= 2.25D-02 OVMax= 9.59D-02

 Cycle   6  Pass 1  IDiag  1:
 E= -999.856840263188     Delta-E=       -0.152024196464 Rises=F Damp=F
 DIIS: error= 1.01D-02 at cycle   6 NSaved=   6.
 NSaved= 6 IEnMin= 6 EnMin= -999.856840263188     IErMin= 6 ErrMin= 1.01D-02
 ErrMax= 1.01D-02  0.00D+00 EMaxC= 1.00D-01 BMatC= 7.84D-03 BMatP= 1.91D-01
 IDIUse=3 WtCom= 8.99D-01 WtEn= 1.01D-01
 Coeff-Com: -0.132D-01 0.297D-01-0.170D-01 0.315D+00 0.272D+00 0.413D+00
 Coeff-En:   0.000D+00 0.000D+00 0.000D+00 0.000D+00 0.000D+00 0.100D+01
 Coeff:     -0.118D-01 0.267D-01-0.153D-01 0.283D+00 0.245D+00 0.473D+00
 Gap=     0.155 Goal=   None    Shift=    0.000
 RMSDP=7.47D-04 MaxDP=1.06D-02 DE=-1.52D-01 OVMax= 4.18D-02

 Cycle   7  Pass 1  IDiag  1:
 E= -999.857310472826     Delta-E=       -0.000470209639 Rises=F Damp=F
 DIIS: error= 1.14D-02 at cycle   7 NSaved=   7.
 NSaved= 7 IEnMin= 7 EnMin= -999.857310472826     IErMin= 6 ErrMin= 1.01D-02
 ErrMax= 1.14D-02  0.00D+00 EMaxC= 1.00D-01 BMatC= 7.04D-03 BMatP= 7.84D-03
 IDIUse=3 WtCom= 8.99D-01 WtEn= 1.01D-01
 Coeff-Com:  0.141D-02-0.173D-02-0.134D-01 0.759D-01 0.772D-01 0.489D+00
 Coeff-Com:  0.372D+00
 Coeff-En:   0.000D+00 0.000D+00 0.000D+00 0.000D+00 0.000D+00 0.486D+00
 Coeff-En:   0.514D+00
 Coeff:      0.126D-02-0.156D-02-0.120D-01 0.683D-01 0.694D-01 0.489D+00
 Coeff:      0.386D+00
 Gap=     0.151 Goal=   None    Shift=    0.000
 RMSDP=3.80D-04 MaxDP=6.17D-03 DE=-4.70D-04 OVMax= 2.03D-02

 Cycle   8  Pass 1  IDiag  1:
 E= -999.862750880210     Delta-E=       -0.005440407384 Rises=F Damp=F
 DIIS: error= 1.10D-03 at cycle   8 NSaved=   8.
 NSaved= 8 IEnMin= 8 EnMin= -999.862750880210     IErMin= 8 ErrMin= 1.10D-03
 ErrMax= 1.10D-03  0.00D+00 EMaxC= 1.00D-01 BMatC= 7.00D-05 BMatP= 7.04D-03
 IDIUse=3 WtCom= 9.89D-01 WtEn= 1.10D-02
 Coeff-Com:  0.142D-02-0.277D-02-0.544D-03-0.239D-02 0.225D-02 0.137D+00
 Coeff-Com:  0.134D+00 0.731D+00
 Coeff-En:   0.000D+00 0.000D+00 0.000D+00 0.000D+00 0.000D+00 0.000D+00
 Coeff-En:   0.000D+00 0.100D+01
 Coeff:      0.140D-02-0.274D-02-0.538D-03-0.236D-02 0.222D-02 0.136D+00
 Coeff:      0.133D+00 0.734D+00
 Gap=     0.149 Goal=   None    Shift=    0.000
 RMSDP=9.38D-05 MaxDP=2.05D-03 DE=-5.44D-03 OVMax= 5.75D-03

 Cycle   9  Pass 1  IDiag  1:
 E= -999.862810300881     Delta-E=       -0.000059420671 Rises=F Damp=F
 DIIS: error= 4.84D-04 at cycle   9 NSaved=   9.
 NSaved= 9 IEnMin= 9 EnMin= -999.862810300881     IErMin= 9 ErrMin= 4.84D-04
 ErrMax= 4.84D-04  0.00D+00 EMaxC= 1.00D-01 BMatC= 9.95D-06 BMatP= 7.00D-05
 IDIUse=3 WtCom= 9.95D-01 WtEn= 4.84D-03
 Coeff-Com:  0.115D-02-0.128D-02 0.349D-04-0.287D-02-0.600D-02-0.120D-01
 Coeff-Com: -0.844D-02 0.743D-01 0.955D+00
 Coeff-En:   0.000D+00 0.000D+00 0.000D+00 0.000D+00 0.000D+00 0.000D+00
 Coeff-En:   0.000D+00 0.000D+00 0.100D+01
 Coeff:      0.114D-02-0.128D-02 0.347D-04-0.286D-02-0.597D-02-0.120D-01
 Coeff:     -0.840D-02 0.740D-01 0.955D+00
 Gap=     0.150 Goal=   None    Shift=    0.000
 RMSDP=3.17D-05 MaxDP=6.31D-04 DE=-5.94D-05 OVMax= 3.05D-03

 Cycle  10  Pass 1  IDiag  1:
 E= -999.862820708381     Delta-E=       -0.000010407500 Rises=F Damp=F
 DIIS: error= 1.18D-04 at cycle  10 NSaved=  10.
 NSaved=10 IEnMin=10 EnMin= -999.862820708381     IErMin=10 ErrMin= 1.18D-04
 ErrMax= 1.18D-04  0.00D+00 EMaxC= 1.00D-01 BMatC= 6.06D-07 BMatP= 9.95D-06
 IDIUse=3 WtCom= 9.99D-01 WtEn= 1.18D-03
 Coeff-Com:  0.335D-03-0.337D-03-0.201D-03-0.370D-04-0.999D-03-0.993D-02
 Coeff-Com: -0.801D-02-0.400D-01 0.994D-01 0.960D+00
 Coeff-En:   0.000D+00 0.000D+00 0.000D+00 0.000D+00 0.000D+00 0.000D+00
 Coeff-En:   0.000D+00 0.000D+00 0.000D+00 0.100D+01
 Coeff:      0.335D-03-0.336D-03-0.200D-03-0.370D-04-0.998D-03-0.992D-02
 Coeff:     -0.800D-02-0.400D-01 0.993D-01 0.960D+00
 Gap=     0.150 Goal=   None    Shift=    0.000
 RMSDP=1.00D-05 MaxDP=1.80D-04 DE=-1.04D-05 OVMax= 1.05D-03

 Cycle  11  Pass 1  IDiag  1:
 E= -999.862821500802     Delta-E=       -0.000000792421 Rises=F Damp=F
 DIIS: error= 1.27D-05 at cycle  11 NSaved=  11.
 NSaved=11 IEnMin=11 EnMin= -999.862821500802     IErMin=11 ErrMin= 1.27D-05
 ErrMax= 1.27D-05  0.00D+00 EMaxC= 1.00D-01 BMatC= 9.47D-09 BMatP= 6.06D-07
 IDIUse=1 WtCom= 1.00D+00 WtEn= 0.00D+00
 Coeff-Com:  0.898D-05-0.137D-04-0.118D-04 0.133D-03 0.291D-03-0.998D-03
 Coeff-Com: -0.125D-02-0.115D-01-0.702D-01 0.201D+00 0.883D+00
 Coeff:      0.898D-05-0.137D-04-0.118D-04 0.133D-03 0.291D-03-0.998D-03
 Coeff:     -0.125D-02-0.115D-01-0.702D-01 0.201D+00 0.883D+00
 Gap=     0.150 Goal=   None    Shift=    0.000
 RMSDP=2.38D-06 MaxDP=5.15D-05 DE=-7.92D-07 OVMax= 2.43D-04

 Cycle  12  Pass 1  IDiag  1:
 E= -999.862821523461     Delta-E=       -0.000000022658 Rises=F Damp=F
 DIIS: error= 3.75D-06 at cycle  12 NSaved=  12.
 NSaved=12 IEnMin=12 EnMin= -999.862821523461     IErMin=12 ErrMin= 3.75D-06
 ErrMax= 3.75D-06  0.00D+00 EMaxC= 1.00D-01 BMatC= 6.96D-10 BMatP= 9.47D-09
 IDIUse=1 WtCom= 1.00D+00 WtEn= 0.00D+00
 Coeff-Com: -0.275D-05 0.229D-05 0.221D-05 0.422D-05 0.156D-04 0.152D-03
 Coeff-Com:  0.155D-04 0.154D-02-0.401D-02-0.232D-01 0.471D-01 0.978D+00
 Coeff:     -0.275D-05 0.229D-05 0.221D-05 0.422D-05 0.156D-04 0.152D-03
 Coeff:      0.155D-04 0.154D-02-0.401D-02-0.232D-01 0.471D-01 0.978D+00
 Gap=     0.150 Goal=   None    Shift=    0.000
 RMSDP=2.57D-07 MaxDP=2.89D-06 DE=-2.27D-08 OVMax= 1.97D-05

 Cycle  13  Pass 1  IDiag  1:
 E= -999.862821524195     Delta-E=       -0.000000000734 Rises=F Damp=F
 DIIS: error= 5.43D-07 at cycle  13 NSaved=  13.
 NSaved=13 IEnMin=13 EnMin= -999.862821524195     IErMin=13 ErrMin= 5.43D-07
 ErrMax= 5.43D-07  0.00D+00 EMaxC= 1.00D-01 BMatC= 3.20D-11 BMatP= 6.96D-10
 IDIUse=1 WtCom= 1.00D+00 WtEn= 0.00D+00
 Coeff-Com: -0.615D-06 0.922D-06 0.651D-06-0.414D-05-0.108D-04 0.652D-04
 Coeff-Com:  0.110D-03 0.781D-03 0.289D-02-0.134D-01-0.395D-01 0.130D+00
 Coeff-Com:  0.919D+00
 Coeff:     -0.615D-06 0.922D-06 0.651D-06-0.414D-05-0.108D-04 0.652D-04
 Coeff:      0.110D-03 0.781D-03 0.289D-02-0.134D-01-0.395D-01 0.130D+00
 Coeff:      0.919D+00
 Gap=     0.150 Goal=   None    Shift=    0.000
 RMSDP=5.99D-08 MaxDP=7.64D-07 DE=-7.34D-10 OVMax= 3.77D-06

 Cycle  14  Pass 1  IDiag  1:
 E= -999.862821524238     Delta-E=       -0.000000000042 Rises=F Damp=F
 DIIS: error= 1.38D-07 at cycle  14 NSaved=  14.
 NSaved=14 IEnMin=14 EnMin= -999.862821524238     IErMin=14 ErrMin= 1.38D-07
 ErrMax= 1.38D-07  0.00D+00 EMaxC= 1.00D-01 BMatC= 1.13D-12 BMatP= 3.20D-11
 IDIUse=1 WtCom= 1.00D+00 WtEn= 0.00D+00
 Coeff-Com:  0.910D-07-0.364D-07-0.590D-07-0.928D-06-0.265D-05 0.760D-05
 Coeff-Com:  0.239D-04 0.791D-04 0.782D-03-0.741D-03-0.105D-01-0.179D-01
 Coeff-Com:  0.176D+00 0.852D+00
 Coeff:      0.910D-07-0.364D-07-0.590D-07-0.928D-06-0.265D-05 0.760D-05
 Coeff:      0.239D-04 0.791D-04 0.782D-03-0.741D-03-0.105D-01-0.179D-01
 Coeff:      0.176D+00 0.852D+00
 Gap=     0.150 Goal=   None    Shift=    0.000
 RMSDP=1.14D-08 MaxDP=1.68D-07 DE=-4.23D-11 OVMax= 6.68D-07

 Cycle  15  Pass 1  IDiag  1:
 E= -999.862821524238     Delta-E=       -0.000000000001 Rises=F Damp=F
 DIIS: error= 4.69D-08 at cycle  15 NSaved=  15.
 NSaved=15 IEnMin=15 EnMin= -999.862821524238     IErMin=15 ErrMin= 4.69D-08
 ErrMax= 4.69D-08  0.00D+00 EMaxC= 1.00D-01 BMatC= 1.32D-13 BMatP= 1.13D-12
 IDIUse=1 WtCom= 1.00D+00 WtEn= 0.00D+00
 Coeff-Com: -0.454D-07 0.434D-07 0.359D-08-0.245D-06 0.728D-07-0.361D-05
 Coeff-Com: -0.425D-05-0.462D-04-0.462D-04 0.690D-03-0.718D-03-0.134D-01
 Coeff-Com: -0.293D-01 0.197D+00 0.846D+00
 Coeff:     -0.454D-07 0.434D-07 0.359D-08-0.245D-06 0.728D-07-0.361D-05
 Coeff:     -0.425D-05-0.462D-04-0.462D-04 0.690D-03-0.718D-03-0.134D-01
 Coeff:     -0.293D-01 0.197D+00 0.846D+00
 Gap=     0.150 Goal=   None    Shift=    0.000
 RMSDP=4.53D-09 MaxDP=5.95D-08 DE=-6.82D-13 OVMax= 3.87D-07

 SCF Done:  E(RB971) =  -999.862821524     A.U. after   15 cycles
            NFock= 15  Conv=0.45D-08     -V/T= 2.0011
 KE= 9.987581380204D+02 PE=-2.623229165764D+03 EE= 4.981721764617D+02
 Leave Link  502 at Sun Feb  8 01:06:35 2015, MaxMem=   524288000 cpu:        33.8
 (Enter /opt/g09/l508.exe)
 QCSCF skips out because SCF is already converged.
 Leave Link  508 at Sun Feb  8 01:06:35 2015, MaxMem=   524288000 cpu:         0.0
 (Enter /opt/g09/l801.exe)
 DoSCS=F DFT=T ScalE2(SS,OS)=  1.000000  1.000000
 Range of M.O.s used for correlation:     1   102
 NBasis=   102 NAE=    19 NBE=    19 NFC=     0 NFV=     0
 NROrb=    102 NOA=    19 NOB=    19 NVA=    83 NVB=    83

 **** Warning!!: The largest alpha MO coefficient is  0.13613525D+02

 Leave Link  801 at Sun Feb  8 01:06:35 2015, MaxMem=   524288000 cpu:         0.3
 (Enter /opt/g09/l1101.exe)
 Using compressed storage, NAtomX=     3.
 Will process      4 centers per pass.
 Leave Link 1101 at Sun Feb  8 01:06:35 2015, MaxMem=   524288000 cpu:         2.1
 (Enter /opt/g09/l1102.exe)
 Symmetrizing basis deriv contribution to polar:
 IMax=3 JMax=2 DiffMx= 0.00D+00
 Leave Link 1102 at Sun Feb  8 01:06:35 2015, MaxMem=   524288000 cpu:         0.3
 (Enter /opt/g09/l1110.exe)
 Forming Gx(P) for the SCF density, NAtomX=     3.
 Integral derivatives from FoFJK, PRISM(SPDF).
 Do as many integral derivatives as possible in FoFJK.
 G2DrvN: MDV=     524287872.
 G2DrvN: will do     4 centers at a time, making    1 passes.
 Calling FoFCou, ICntrl=  3107 FMM=F I1Cent=   0 AccDes= 0.00D+00.
 FoFJK:  IHMeth= 1 ICntrl=    3107 DoSepK=F KAlg= 0 I1Cent=   0 FoldK=F
 IRaf=         0 NMat=   1 IRICut=       1 DoRegI=T DoRafI=F ISym2E= 0.
 FoFCou: FMM=F IPFlag=           0 FMFlag=      100000 FMFlg1=           0
         NFxFlg=           0 DoJE=F BraDBF=F KetDBF=F FulRan=T
         wScrn=  0.000000 ICntrl=    3107 IOpCl=  0 I1Cent=           0 NGrid=           0
         NMat0=    1 NMatS0=      1 NMatT0=    0 NMatD0=    1 NMtDS0=    0 NMtDT0=    0
 Symmetry not used in FoFCou.
 End of G2Drv F.D. properties file   721 does not exist.
 End of G2Drv F.D. properties file   722 does not exist.
 End of G2Drv F.D. properties file   788 does not exist.
 Leave Link 1110 at Sun Feb  8 01:06:40 2015, MaxMem=   524288000 cpu:        35.8
 (Enter /opt/g09/l1002.exe)
 Minotr:  Closed shell wavefunction.
          IDoAtm=111
          Direct CPHF calculation.
          Differentiating once with respect to electric field.
                with respect to dipole field.
          Differentiating once with respect to nuclear coordinates.
          Requested convergence is 1.0D-08 RMS, and 1.0D-07 maximum.
          Secondary convergence is 1.0D-12 RMS, and 1.0D-12 maximum.
          NewPWx=T KeepS1=F KeepF1=F KeepIn=T MapXYZ=F SortEE=F KeepMc=T.
          MDV=     524287864 using IRadAn=       1.
 Generate precomputed XC quadrature information.
 Keep R1 ints in memory in canonical form, NReq=15792320.
 FoFCou: FMM=F IPFlag=           0 FMFlag=           0 FMFlg1=           0
         NFxFlg=           0 DoJE=F BraDBF=F KetDBF=F FulRan=T
         wScrn=  0.000000 ICntrl=     600 IOpCl=  0 I1Cent=           0 NGrid=           0
         NMat0=    1 NMatS0=   5253 NMatT0=    0 NMatD0=    1 NMtDS0=    0 NMtDT0=    0
 Symmetry not used in FoFCou.
          Solving linear equations simultaneously, MaxMat=       0.
          There are    12 degrees of freedom in the 1st order CPHF.  IDoFFX=6 NUNeed=     3.
      9 vectors produced by pass  0 Test12= 1.31D-14 8.33D-09 XBig12= 8.11D+01 3.70D+00.
 AX will form     9 AO Fock derivatives at one time.
      9 vectors produced by pass  1 Test12= 1.31D-14 8.33D-09 XBig12= 1.20D+02 3.49D+00.
      9 vectors produced by pass  2 Test12= 1.31D-14 8.33D-09 XBig12= 6.76D+00 8.51D-01.
      9 vectors produced by pass  3 Test12= 1.31D-14 8.33D-09 XBig12= 4.31D-01 2.05D-01.
      9 vectors produced by pass  4 Test12= 1.31D-14 8.33D-09 XBig12= 7.43D-03 3.50D-02.
      9 vectors produced by pass  5 Test12= 1.31D-14 8.33D-09 XBig12= 1.02D-04 3.94D-03.
      9 vectors produced by pass  6 Test12= 1.31D-14 8.33D-09 XBig12= 9.63D-07 3.66D-04.
      9 vectors produced by pass  7 Test12= 1.31D-14 8.33D-09 XBig12= 5.37D-09 2.76D-05.
      4 vectors produced by pass  8 Test12= 1.31D-14 8.33D-09 XBig12= 4.31D-11 1.61D-06.
      2 vectors produced by pass  9 Test12= 1.31D-14 8.33D-09 XBig12= 3.44D-13 1.86D-07.
      1 vectors produced by pass 10 Test12= 1.31D-14 8.33D-09 XBig12= 2.49D-15 1.56D-08.
 InvSVY:  IOpt=1 It=  1 EMax= 4.44D-16
 Solved reduced A of dimension    79 with     9 vectors.
 FullF1:  Do perturbations    1 to     3.
 Isotropic polarizability for W=    0.000000       31.38 Bohr**3.
 End of Minotr F.D. properties file   721 does not exist.
 End of Minotr F.D. properties file   722 does not exist.
 End of Minotr F.D. properties file   788 does not exist.
 Leave Link 1002 at Sun Feb  8 01:06:46 2015, MaxMem=   524288000 cpu:        52.8
 (Enter /opt/g09/l701.exe)
 Compute integral second derivatives.
 ... and contract with generalized density number  0.
 Leave Link  701 at Sun Feb  8 01:06:47 2015, MaxMem=   524288000 cpu:         4.3
 (Enter /opt/g09/l702.exe)
 L702 exits ... SP integral derivatives will be done elsewhere.
 Leave Link  702 at Sun Feb  8 01:06:47 2015, MaxMem=   524288000 cpu:         0.3
 (Enter /opt/g09/l703.exe)
 Compute integral second derivatives, UseDBF=F ICtDFT=           0.
 Integral derivatives from FoFJK, PRISM(SPDF).
 Calling FoFJK, ICntrl=    100127 FMM=F ISym2X=0 I1Cent= 0 IOpClX= 0 NMat=1 NMatS=1 NMatT=0.
 FoFJK:  IHMeth= 1 ICntrl=  100127 DoSepK=F KAlg= 0 I1Cent=   0 FoldK=F
 IRaf=         0 NMat=   1 IRICut=       1 DoRegI=T DoRafI=F ISym2E= 0.
 FoFCou: FMM=F IPFlag=           0 FMFlag=      100000 FMFlg1=         800
         NFxFlg=           0 DoJE=F BraDBF=F KetDBF=F FulRan=T
         wScrn=  0.000000 ICntrl=  100127 IOpCl=  0 I1Cent=           0 NGrid=           0
         NMat0=    1 NMatS0=      1 NMatT0=    0 NMatD0=    1 NMtDS0=    0 NMtDT0=    0
 Symmetry not used in FoFCou.
 Leave Link  703 at Sun Feb  8 01:06:57 2015, MaxMem=   524288000 cpu:        80.3
 (Enter /opt/g09/l716.exe)
 Dipole        =-2.50630031D-04 2.70559607D+00-8.62605770D-13
 Polarizability= 4.91853102D+01 2.19378605D-03 2.54477845D+01
                 1.72861283D-10-4.03983511D-11 1.95141882D+01
 -------------------------------------------------------------------
 Center     Atomic                   Forces (Hartrees/Bohr)
 Number     Number              X              Y              Z
 -------------------------------------------------------------------
      1       22           0.000000095   -0.000000657    0.000000000
      2        8          -0.000000124    0.000000371    0.000000000
      3        8           0.000000029    0.000000286    0.000000000
 -------------------------------------------------------------------
 Cartesian Forces:  Max     0.000000657 RMS     0.000000274
 Force constants in Cartesian coordinates: 
                1             2             3             4             5 
      1  0.550460D+00
      2  0.110889D-04  0.441092D+00
      3  0.000000D+00  0.000000D+00 -0.421851D-04
      4 -0.275267D+00  0.223264D+00  0.000000D+00  0.313012D+00
      5  0.186975D+00 -0.220508D+00  0.000000D+00 -0.205112D+00  0.173708D+00
      6  0.000000D+00  0.000000D+00  0.212005D-04  0.000000D+00  0.000000D+00
      7 -0.275193D+00 -0.223275D+00  0.000000D+00 -0.377451D-01  0.181370D-01
      8 -0.186986D+00 -0.220585D+00  0.000000D+00 -0.181526D-01  0.467997D-01
      9  0.000000D+00  0.000000D+00  0.209847D-04  0.000000D+00  0.000000D+00
                6             7             8             9 
      6 -0.243029D-04
      7  0.000000D+00  0.312938D+00
      8  0.000000D+00  0.205138D+00  0.173785D+00
      9  0.310241D-05  0.000000D+00  0.000000D+00 -0.240871D-04
 FormGI is forming the generalized inverse of G from B-inverse, IUseBI=4.
 Force constants in internal coordinates: 
                1             2             3 
      1  0.459670D+00
      2  0.574957D-01  0.459672D+00
      3 -0.337786D-01 -0.337788D-01  0.258265D+00
 Leave Link  716 at Sun Feb  8 01:06:57 2015, MaxMem=   524288000 cpu:         0.3
 (Enter /opt/g09/l103.exe)

 GradGradGradGradGradGradGradGradGradGradGradGradGradGradGradGradGradGrad
 Berny optimization.
 Red2BG is reusing G-inverse.
 Internal  Forces:  Max     0.000000707 RMS     0.000000458
 Search for a local minimum.
 Step number   1 out of a maximum of   20
 All quantities printed in internal units (Hartrees-Bohrs-Radians)
 RMS Force = .45847D-06 SwitMx=.10000D-02 MixMth= 2
 Mixed Optimization -- En-DIIS/RFO-DIIS
 Second derivative matrix not updated -- analytic derivatives used.
 The second derivative matrix:
                          R1        R2        A1
           R1           0.45967
           R2           0.05750   0.45967
           A1          -0.03378  -0.03378   0.25827
 ITU=  0
     Eigenvalues ---    0.24973   0.40218   0.52570
 RFO step:  Lambda= 0.00000000D+00 EMin= 2.49732238D-01
 Linear search not attempted -- first point.
 Iteration  1 RMS(Cart)=  0.00000238 RMS(Int)=  0.00000000
 Iteration  2 RMS(Cart)=  0.00000000 RMS(Int)=  0.00000000
 ITry= 1 IFail=0 DXMaxC= 2.38D-06 DCOld= 1.00D+10 DXMaxT= 3.00D-01 DXLimC= 3.00D+00 Rises=F
 Variable       Old X    -DE/DX   Delta X   Delta X   Delta X     New X
                                 (Linear)    (Quad)   (Total)
    R1        3.08994   0.00000   0.00000   0.00000   0.00000   3.08994
    R2        3.08994   0.00000   0.00000   0.00000   0.00000   3.08994
    A1        1.94860   0.00000   0.00000   0.00000   0.00000   1.94861
         Item               Value     Threshold  Converged?
 Maximum Force            0.000001     0.000015     YES
 RMS     Force            0.000000     0.000010     YES
 Maximum Displacement     0.000002     0.000060     YES
 RMS     Displacement     0.000002     0.000040     YES
 Predicted change in Energy=-1.025343D-12
 Optimization completed.
    -- Stationary point found.
                           ----------------------------
                           !   Optimized Parameters   !
                           ! (Angstroms and Degrees)  !
 --------------------------                            --------------------------
 ! Name  Definition              Value          Derivative Info.                !
 --------------------------------------------------------------------------------
 ! R1    R(1,2)                  1.6351         -DE/DX =    0.0                 !
 ! R2    R(1,3)                  1.6351         -DE/DX =    0.0                 !
 ! A1    A(2,1,3)              111.6467         -DE/DX =    0.0                 !
 --------------------------------------------------------------------------------
 Lowest energy point so far.  Saving SCF results.
 GradGradGradGradGradGradGradGradGradGradGradGradGradGradGradGradGradGrad

 Largest change from initial coordinates is atom    0       0.000 Angstoms.
 Leave Link  103 at Sun Feb  8 01:06:58 2015, MaxMem=   524288000 cpu:         0.3
 (Enter /opt/g09/l202.exe)
                          Input orientation:                          
 ---------------------------------------------------------------------
 Center     Atomic      Atomic             Coordinates (Angstroms)
 Number     Number       Type             X           Y           Z
 ---------------------------------------------------------------------
      1         22           0       -0.000060    0.386180    0.000000
      2          8           0        1.352780   -0.532220    0.000000
      3          8           0       -1.352730   -0.532470    0.000000
 ---------------------------------------------------------------------
                    Distance matrix (angstroms):
                    1          2          3
     1  Ti   0.000000
     2  O    1.635125   0.000000
     3  O    1.635125   2.705510   0.000000
 Symmetry turned off by external request.
 Stoichiometry    O2Ti
 Framework group  CS[SG(O2Ti)]
 Deg. of freedom     3
 Full point group                 CS      NOp   2
 Rotational constants (GHZ):     31.2180200      8.6331040      6.7628811
 Leave Link  202 at Sun Feb  8 01:06:58 2015, MaxMem=   524288000 cpu:         0.0
 (Enter /opt/g09/l716.exe)
 Dipole        =-2.50630031D-04 2.70559607D+00-8.62605770D-13
 Polarizability= 4.91853102D+01 2.19378605D-03 2.54477845D+01
                 1.72861283D-10-4.03983511D-11 1.95141882D+01
 Full mass-weighted force constant matrix:
 Low frequencies ---  -10.1661   -7.6223   -6.7151    0.0031    0.0035    0.0039
 Low frequencies ---  341.9934  983.8135 1034.3593
 Diagonal vibrational polarizability:
       13.5315652       4.4068350       0.0000000
 Harmonic frequencies (cm**-1), IR intensities (KM/Mole), Raman scattering
 activities (A**4/AMU), depolarization ratios for plane and unpolarized
 incident light, reduced masses (AMU), force constants (mDyne/A),
 and normal coordinates:
                      1                      2                      3
                      A                      A                      A
 Frequencies --    341.9934               983.8134              1034.3593
 Red. masses --     18.3727                20.2189                18.5398
 Frc consts  --      1.2661                11.5301                11.6869
 IR Inten    --     14.6390               486.6766                41.2891
  Atom  AN      X      Y      Z        X      Y      Z        X      Y      Z
     1  22     0.00  -0.27   0.00     0.36   0.00   0.00     0.00   0.28   0.00
     2   8     0.54   0.41   0.00    -0.55   0.37   0.00     0.53  -0.42   0.00
     3   8    -0.54   0.41   0.00    -0.54  -0.37   0.00    -0.53  -0.42   0.00

 -------------------
 - Thermochemistry -
 -------------------
 Temperature   298.150 Kelvin.  Pressure   1.00000 Atm.
 Atom     1 has atomic number 22 and mass  47.94795
 Atom     2 has atomic number  8 and mass  15.99491
 Atom     3 has atomic number  8 and mass  15.99491
 Molecular mass:    79.93778 amu.
 Principal axes and moments of inertia in atomic units:
                           1         2         3
     Eigenvalues --    57.81088 209.04894 266.85981
           X            1.00000  -0.00009   0.00000
           Y            0.00009   1.00000   0.00000
           Z            0.00000   0.00000   1.00000
 This molecule is an asymmetric top.
 Rotational symmetry number  1.
 Rotational temperatures (Kelvin)      1.49823     0.41432     0.32457
 Rotational constants (GHZ):          31.21802     8.63310     6.76288
 Zero-point vibrational energy      14116.9 (Joules/Mol)
                                    3.37403 (Kcal/Mol)
 Warning -- explicit consideration of   1 degrees of freedom as
           vibrations may cause significant error
 Vibrational temperatures:    492.05  1415.49  1488.21
          (Kelvin)
 
 Zero-point correction=                           0.005377 (Hartree/Particle)
 Thermal correction to Energy=                    0.008651
 Thermal correction to Enthalpy=                  0.009595
 Thermal correction to Gibbs Free Energy=        -0.020399
 Sum of electronic and zero-point Energies=           -999.857445
 Sum of electronic and thermal Energies=              -999.854170
 Sum of electronic and thermal Enthalpies=            -999.853226
 Sum of electronic and thermal Free Energies=         -999.883220
 
                     E (Thermal)             CV                S
                      KCal/Mol        Cal/Mol-Kelvin    Cal/Mol-Kelvin
 Total                    5.429              8.290             63.128
 Electronic               0.000              0.000              0.000
 Translational            0.889              2.981             39.051
 Rotational               0.889              2.981             22.694
 Vibrational              3.651              2.328              1.384
 Vibration     1          0.721              1.592              1.203
                       Q            Log10(Q)             Ln(Q)
 Total Bot       0.241461D+10          9.382848         21.604806
 Total V=0       0.717834D+12         11.856024         27.299504
 Vib (Bot)       0.422812D-02         -2.373852         -5.465997
 Vib (Bot)    1  0.542264D+00         -0.265789         -0.612003
 Vib (V=0)       0.125697D+01          0.099324          0.228701
 Vib (V=0)    1  0.123760D+01          0.092579          0.213172
 Electronic      0.100000D+01          0.000000          0.000000
 Translational   0.280920D+08          7.448583         17.150997
 Rotational      0.203290D+05          4.308117          9.919805
 
                                                   freq-fine-tio2-b971-6311+gdp.g
 au
                                                             IR Spectrum
 
      1                                                                                                                              
      0     9                                                                              3                                         
      3     8                                                                              4                                         
      4     4                                                                              2                                         
 
      X     X                                                                              X                                         
      X     X                                                                                                                        
            X                                                                                                                        
            X                                                                                                                        
            X                                                                                                                        
            X                                                                                                                        
            X                                                                                                                        
            X                                                                                                                        
            X                                                                                                                        
            X                                                                                                                        
            X                                                                                                                        
            X                                                                                                                        
            X                                                                                                                        
            X                                                                                                                        
            X                                                                                                                        
            X                                                                                                                        
            X                                                                                                                        
            X                                                                                                                        
            X                                                                                                                        
            X                                                                                                                        
 
 -------------------------------------------------------------------
 Center     Atomic                   Forces (Hartrees/Bohr)
 Number     Number              X              Y              Z
 -------------------------------------------------------------------
      1       22           0.000000095   -0.000000657    0.000000000
      2        8          -0.000000124    0.000000371    0.000000000
      3        8           0.000000029    0.000000286    0.000000000
 -------------------------------------------------------------------
 Cartesian Forces:  Max     0.000000657 RMS     0.000000274
 Force constants in Cartesian coordinates: 
                1             2             3             4             5 
      1  0.550460D+00
      2  0.110889D-04  0.441092D+00
      3  0.000000D+00  0.000000D+00 -0.421851D-04
      4 -0.275267D+00  0.223264D+00  0.000000D+00  0.313012D+00
      5  0.186975D+00 -0.220508D+00  0.000000D+00 -0.205112D+00  0.173708D+00
      6  0.000000D+00  0.000000D+00  0.212005D-04  0.000000D+00  0.000000D+00
      7 -0.275193D+00 -0.223275D+00  0.000000D+00 -0.377451D-01  0.181370D-01
      8 -0.186986D+00 -0.220585D+00  0.000000D+00 -0.181526D-01  0.467997D-01
      9  0.000000D+00  0.000000D+00  0.209847D-04  0.000000D+00  0.000000D+00
                6             7             8             9 
      6 -0.243029D-04
      7  0.000000D+00  0.312938D+00
      8  0.000000D+00  0.205138D+00  0.173785D+00
      9  0.310241D-05  0.000000D+00  0.000000D+00 -0.240871D-04
 Red2BG is reusing G-inverse.
 Force constants in internal coordinates: 
                1             2             3 
      1  0.459670D+00
      2  0.574957D-01  0.459672D+00
      3 -0.337786D-01 -0.337788D-01  0.258265D+00
 Leave Link  716 at Sun Feb  8 01:06:58 2015, MaxMem=   524288000 cpu:         0.3
 (Enter /opt/g09/l9999.exe)
 1\1\GINC-REMBRANDT\Freq\RB971\6-311+G(d,p)\O2Ti1\PB556\08-Feb-2015\0\\
 #p rB971/6-311+G(d,p) Opt=(Tight, CalcAll) Freq GFInput Population=Non
 e Integral(Grid=UltraFine) SCF=XQC Guess=MIX NoSymmetry\\freq-fine-tio
 2-b971-6311+gdp.gau\\0,1\Ti,-0.00006,0.38618,0.\O,1.35278,-0.53222,0.\
 O,-1.35273,-0.53247,0.\\Version=ES64L-G09RevD.01\HF=-999.8628215\RMSD=
 4.533e-09\RMSF=2.743e-07\ZeroPoint=0.0053769\Thermal=0.0086511\Dipole=
 -0.0002506,2.7055961,0.\DipoleDeriv=3.0770661,0.0001905,0.,0.0001904,1
 .0206873,0.,0.,0.,1.5587937,-1.538595,0.1567166,0.,0.5152605,-0.510281
 5,0.,0.,0.,-0.7793969,-1.5384711,-0.1569071,0.,-0.5154509,-0.5104059,0
 .,0.,0.,-0.7793968\Polar=49.1853102,0.0021938,25.4477845,0.,0.,19.5141
 882\PG=CS [SG(O2Ti1)]\NImag=0\\0.55045989,0.00001109,0.44109241,0.,0.,
 -0.00004219,-0.27526717,0.22326413,0.,0.31301228,0.18697455,-0.2205076
 6,0.,-0.20511153,0.17370799,0.,0.,0.00002120,0.,0.,-0.00002430,-0.2751
 9272,-0.22327522,0.,-0.03774511,0.01813698,0.,0.31293783,-0.18698564,-
 0.22058475,0.,-0.01815259,0.04679968,0.,0.20513823,0.17378507,0.,0.,0.
 00002098,0.,0.,0.00000310,0.,0.,-0.00002409\\-0.00000009,0.00000066,0.
 ,0.00000012,-0.00000037,0.,-0.00000003,-0.00000029,0.\\\@


 The mind is not a vessel to be filled but a fire to be kindled.
                                  -- Plutarch
 Leave Link 9999 at Sun Feb  8 01:06:58 2015, MaxMem=   524288000 cpu:         0.3
 Job cpu time:       0 days  0 hours  3 minutes 43.3 seconds.
 File lengths (MBytes):  RWF=      9 Int=      0 D2E=      0 Chk=      2 Scr=      1
 Normal termination of Gaussian 09 at Sun Feb  8 01:06:58 2015.
 (Enter /opt/g09/l1.exe)
 Link1:  Proceeding to internal job step number  2.
 ----------------------------------------------------------------------
 #P Geom=AllCheck Guess=TCheck SCRF=Check GenChk RB971/6-311+G(d,p) Fre
 q
 ----------------------------------------------------------------------
 1/7=10,10=4,29=7,30=1,38=1,40=1/1,3;
 2/12=2,15=1,40=1/2;
 3/5=4,6=6,7=111,11=2,14=-4,16=1,24=10,25=1,30=1,70=2,71=2,74=-20,75=-5,116=1,140=1/1,2,3;
 4/5=101/1;
 5/5=2,8=3,13=1,98=1/2,8;
 8/6=4,10=90,11=11/1;
 11/6=1,8=1,9=11,15=111,16=1,31=1/1,2,10;
 10/6=1,31=1/2;
 7/8=1,10=1,25=1,30=1/1,2,3,16;
 1/7=10,10=4,30=1/3;
 99//99;
 Leave Link    1 at Sun Feb  8 01:06:58 2015, MaxMem=   524288000 cpu:         0.4
 (Enter /opt/g09/l101.exe)
 Structure from the checkpoint file:  "/scratch/pb556/g09_run/mech//Gau-21246.chk"
 --------------------------------
 freq-fine-tio2-b971-6311+gdp.gau
 --------------------------------
 Charge =  0 Multiplicity = 1
 Redundant internal coordinates found in file.
 Ti,0,-0.00006,0.38618,0.
 O,0,1.35278,-0.53222,0.
 O,0,-1.35273,-0.53247,0.
 Recover connectivity data from disk.
 NAtoms=      3 NQM=        3 NQMF=       0 NMMI=      0 NMMIF=      0
                NMic=       0 NMicF=      0.
                    Isotopes and Nuclear Properties:
 (Nuclear quadrupole moments (NQMom) in fm**2, nuclear magnetic moments (NMagM)
  in nuclear magnetons)

  Atom         1           2           3
 IAtWgt=          48          16          16
 AtmWgt=  47.9479467  15.9949146  15.9949146
 NucSpn=           0           0           0
 AtZEff= -23.9800000  -5.6000000  -5.6000000
 NQMom=    0.0000000   0.0000000   0.0000000
 NMagM=    0.0000000   0.0000000   0.0000000
 AtZNuc=  22.0000000   8.0000000   8.0000000
 Leave Link  101 at Sun Feb  8 01:06:58 2015, MaxMem=   524288000 cpu:         2.0
 (Enter /opt/g09/l103.exe)

 GradGradGradGradGradGradGradGradGradGradGradGradGradGradGradGradGradGrad
 Berny optimization.
 Initialization pass.
                           ----------------------------
                           !    Initial Parameters    !
                           ! (Angstroms and Degrees)  !
 --------------------------                            --------------------------
 ! Name  Definition              Value          Derivative Info.                !
 --------------------------------------------------------------------------------
 ! R1    R(1,2)                  1.6351         calculate D2E/DX2 analytically  !
 ! R2    R(1,3)                  1.6351         calculate D2E/DX2 analytically  !
 ! A1    A(2,1,3)              111.6467         calculate D2E/DX2 analytically  !
 --------------------------------------------------------------------------------
 Trust Radius=3.00D-01 FncErr=1.00D-07 GrdErr=1.00D-07
 Number of steps in this run=      2 maximum allowed number of steps=      2.
 GradGradGradGradGradGradGradGradGradGradGradGradGradGradGradGradGradGrad

 Leave Link  103 at Sun Feb  8 01:06:58 2015, MaxMem=   524288000 cpu:         0.1
 (Enter /opt/g09/l202.exe)
                          Input orientation:                          
 ---------------------------------------------------------------------
 Center     Atomic      Atomic             Coordinates (Angstroms)
 Number     Number       Type             X           Y           Z
 ---------------------------------------------------------------------
      1         22           0       -0.000060    0.386180    0.000000
      2          8           0        1.352780   -0.532220    0.000000
      3          8           0       -1.352730   -0.532470    0.000000
 ---------------------------------------------------------------------
                    Distance matrix (angstroms):
                    1          2          3
     1  Ti   0.000000
     2  O    1.635125   0.000000
     3  O    1.635125   2.705510   0.000000
 Symmetry turned off by external request.
 Stoichiometry    O2Ti
 Framework group  CS[SG(O2Ti)]
 Deg. of freedom     3
 Full point group                 CS      NOp   2
 Rotational constants (GHZ):     31.2180200      8.6331040      6.7628811
 Leave Link  202 at Sun Feb  8 01:06:58 2015, MaxMem=   524288000 cpu:         0.0
 (Enter /opt/g09/l301.exe)
 Standard basis: 6-311+G(d,p) (5D, 7F)
 Ernie: Thresh=  0.10000D-02 Tol=  0.10000D-05 Strict=F.
 AO basis set in the form of general basis input (Overlap normalization):
      1 0
 S   6 1.00       0.000000000000
      0.2060820000D+06  0.5673151380D-03
      0.3122680000D+05  0.4379672866D-02
      0.7199320000D+04  0.2242029425D-01
      0.2048750000D+04  0.9063426645D-01
      0.6707900000D+03  0.2890357165D+00
      0.2436500000D+03  0.6803470061D+00
 S   1 1.00       0.000000000000
      0.9592500000D+02  0.1000000000D+01
 S   1 1.00       0.000000000000
      0.3981010000D+02  0.1000000000D+01
 S   1 1.00       0.000000000000
      0.1222050000D+02  0.1000000000D+01
 S   1 1.00       0.000000000000
      0.5008820000D+01  0.1000000000D+01
 S   1 1.00       0.000000000000
      0.1285690000D+01  0.1000000000D+01
 S   1 1.00       0.000000000000
      0.5128060000D+00  0.1000000000D+01
 S   1 1.00       0.000000000000
      0.8557600000D-01  0.1000000000D+01
 S   1 1.00       0.000000000000
      0.3330200000D-01  0.1000000000D+01
 S   1 1.00       0.000000000000
      0.9991000000D-02  0.1000000000D+01
 P   5 1.00       0.000000000000
      0.1264700000D+04  0.3122017423D-02
      0.3012300000D+03  0.2516579464D-01
      0.9697770000D+02  0.1184178291D+00
      0.3637270000D+02  0.3522190030D+00
      0.1478140000D+02  0.6219379661D+00
 P   1 1.00       0.000000000000
      0.6274650000D+01  0.1000000000D+01
 P   1 1.00       0.000000000000
      0.2478780000D+01  0.1000000000D+01
 P   1 1.00       0.000000000000
      0.1016180000D+01  0.1000000000D+01
 P   1 1.00       0.000000000000
      0.3981620000D+00  0.1000000000D+01
 P   1 1.00       0.000000000000
      0.1015610000D+00  0.1000000000D+01
 P   1 1.00       0.000000000000
      0.3405400000D-01  0.1000000000D+01
 D   3 1.00       0.000000000000
      0.2599240000D+02  0.5411706153D-01
      0.7086340000D+01  0.2873032281D+00
      0.2348710000D+01  0.7854540223D+00
 D   1 1.00       0.000000000000
      0.8001980000D+00  0.1000000000D+01
 D   1 1.00       0.000000000000
      0.2620490000D+00  0.1000000000D+01
 D   1 1.00       0.000000000000
      0.7200000000D-01  0.1000000000D+01
 F   1 1.00       0.000000000000
      0.6900000000D+00  0.1000000000D+01
 ****
      2 0
 S   6 1.00       0.000000000000
      0.8588500000D+04  0.1895150083D-02
      0.1297230000D+04  0.1438590063D-01
      0.2992960000D+03  0.7073200310D-01
      0.8737710000D+02  0.2400010105D+00
      0.2567890000D+02  0.5947970261D+00
      0.3740040000D+01  0.2808020123D+00
 SP   3 1.00       0.000000000000
      0.4211750000D+02  0.1138890124D+00  0.3651139738D-01
      0.9628370000D+01  0.9208111006D+00  0.2371529830D+00
      0.2853320000D+01 -0.3274470358D-02  0.8197019412D+00
 SP   1 1.00       0.000000000000
      0.9056610000D+00  0.1000000000D+01  0.1000000000D+01
 SP   1 1.00       0.000000000000
      0.2556110000D+00  0.1000000000D+01  0.1000000000D+01
 SP   1 1.00       0.000000000000
      0.8450000000D-01  0.1000000000D+01  0.1000000000D+01
 D   1 1.00       0.000000000000
      0.1292000000D+01  0.1000000000D+01
 ****
      3 0
 S   6 1.00       0.000000000000
      0.8588500000D+04  0.1895150083D-02
      0.1297230000D+04  0.1438590063D-01
      0.2992960000D+03  0.7073200310D-01
      0.8737710000D+02  0.2400010105D+00
      0.2567890000D+02  0.5947970261D+00
      0.3740040000D+01  0.2808020123D+00
 SP   3 1.00       0.000000000000
      0.4211750000D+02  0.1138890124D+00  0.3651139738D-01
      0.9628370000D+01  0.9208111006D+00  0.2371529830D+00
      0.2853320000D+01 -0.3274470358D-02  0.8197019412D+00
 SP   1 1.00       0.000000000000
      0.9056610000D+00  0.1000000000D+01  0.1000000000D+01
 SP   1 1.00       0.000000000000
      0.2556110000D+00  0.1000000000D+01  0.1000000000D+01
 SP   1 1.00       0.000000000000
      0.8450000000D-01  0.1000000000D+01  0.1000000000D+01
 D   1 1.00       0.000000000000
      0.1292000000D+01  0.1000000000D+01
 ****

   102 basis functions,   166 primitive gaussians,   111 cartesian basis functions
    19 alpha electrons       19 beta electrons
       nuclear repulsion energy       126.4360297573 Hartrees.
 IExCor= 1614 DFT=T Ex+Corr=B971 ExCW=0 ScaHFX=  0.210000
 ScaDFX=  1.000000  1.000000  1.000000  1.000000 ScalE2=  1.000000  1.000000
 IRadAn=      5 IRanWt=     -1 IRanGd=            0 ICorTp=0 IEmpDi=  4
 NAtoms=    3 NActive=    3 NUniq=    3 SFac= 1.00D+00 NAtFMM=   60 NAOKFM=F Big=F
 Integral buffers will be    131072 words long.
 Raffenetti 2 integral format.
 Two-electron integral symmetry is turned off.
 Leave Link  301 at Sun Feb  8 01:06:58 2015, MaxMem=   524288000 cpu:         0.4
 (Enter /opt/g09/l302.exe)
 NPDir=0 NMtPBC=     1 NCelOv=     1 NCel=       1 NClECP=     1 NCelD=      1
         NCelK=      1 NCelE2=     1 NClLst=     1 CellRange=     0.0.
 One-electron integrals computed using PRISM.
 NBasis=   102 RedAO= T EigKep=  1.14D-03  NBF=   102
 NBsUse=   102 1.00D-06 EigRej= -1.00D+00 NBFU=   102
 Precomputing XC quadrature grid using
 IXCGrd= 4 IRadAn=           5 IRanWt=          -1 IRanGd=           0 AccXCQ= 0.00D+00.
 Generated NRdTot=       0 NPtTot=           0 NUsed=           0 NTot=          32
 NSgBfM=   111   111   111   111   111 MxSgAt=     3 MxSgA2=     3.
 Leave Link  302 at Sun Feb  8 01:06:59 2015, MaxMem=   524288000 cpu:         1.6
 (Enter /opt/g09/l303.exe)
 DipDrv:  MaxL=1.
 Leave Link  303 at Sun Feb  8 01:06:59 2015, MaxMem=   524288000 cpu:         0.3
 (Enter /opt/g09/l401.exe)
 Initial guess from the checkpoint file:  "/scratch/pb556/g09_run/mech//Gau-21246.chk"
 B after Tr=     0.000000    0.000000    0.000000
         Rot=    1.000000    0.000000    0.000000    0.000000 Ang=   0.00 deg.
 Guess basis will be translated and rotated to current coordinates.
 JPrj=2 DoOrth=T DoCkMO=T.
 Leave Link  401 at Sun Feb  8 01:06:59 2015, MaxMem=   524288000 cpu:         0.8
 (Enter /opt/g09/l502.exe)
 Closed shell SCF:
 Using DIIS extrapolation, IDIIS=  1040.
 Two-electron integral symmetry not used.
 Keep R1 ints in memory in canonical form, NReq=15820633.
 IVT=       44465 IEndB=       44465 NGot=   524288000 MDV=   510443905
 LenX=   510443905 LenY=   510431143
 Requested convergence on RMS density matrix=1.00D-08 within  64 cycles.
 Requested convergence on MAX density matrix=1.00D-06.
 Requested convergence on             energy=1.00D-06.
 No special actions if energy rises.
 FoFCou: FMM=F IPFlag=           0 FMFlag=           0 FMFlg1=           0
         NFxFlg=           0 DoJE=F BraDBF=F KetDBF=F FulRan=T
         wScrn=  0.000000 ICntrl=     600 IOpCl=  0 I1Cent=           0 NGrid=           0
         NMat0=    1 NMatS0=   5253 NMatT0=    0 NMatD0=    1 NMtDS0=    0 NMtDT0=    0
 Symmetry not used in FoFCou.

 Cycle   1  Pass 1  IDiag  1:
 E= -999.862821524239    
 DIIS: error= 2.41D-08 at cycle   1 NSaved=   1.
 NSaved= 1 IEnMin= 1 EnMin= -999.862821524239     IErMin= 1 ErrMin= 2.41D-08
 ErrMax= 2.41D-08  0.00D+00 EMaxC= 1.00D-01 BMatC= 1.87D-14 BMatP= 1.87D-14
 IDIUse=1 WtCom= 1.00D+00 WtEn= 0.00D+00
 Coeff-Com:  0.100D+01
 Coeff:      0.100D+01
 Gap=     0.150 Goal=   None    Shift=    0.000
 RMSDP=3.14D-09 MaxDP=6.15D-08              OVMax= 1.85D-07

 SCF Done:  E(RB971) =  -999.862821524     A.U. after    1 cycles
            NFock=  1  Conv=0.31D-08     -V/T= 2.0011
 KE= 9.987581393600D+02 PE=-2.623229168091D+03 EE= 4.981721774495D+02
 Leave Link  502 at Sun Feb  8 01:07:00 2015, MaxMem=   524288000 cpu:         7.9
 (Enter /opt/g09/l508.exe)
 QCSCF skips out because SCF is already converged.
 Leave Link  508 at Sun Feb  8 01:07:00 2015, MaxMem=   524288000 cpu:         0.0
 (Enter /opt/g09/l801.exe)
 DoSCS=F DFT=T ScalE2(SS,OS)=  1.000000  1.000000
 Range of M.O.s used for correlation:     1   102
 NBasis=   102 NAE=    19 NBE=    19 NFC=     0 NFV=     0
 NROrb=    102 NOA=    19 NOB=    19 NVA=    83 NVB=    83

 **** Warning!!: The largest alpha MO coefficient is  0.13613524D+02

 Leave Link  801 at Sun Feb  8 01:07:00 2015, MaxMem=   524288000 cpu:         0.3
 (Enter /opt/g09/l1101.exe)
 Using compressed storage, NAtomX=     3.
 Will process      4 centers per pass.
 Leave Link 1101 at Sun Feb  8 01:07:00 2015, MaxMem=   524288000 cpu:         2.2
 (Enter /opt/g09/l1102.exe)
 Symmetrizing basis deriv contribution to polar:
 IMax=3 JMax=2 DiffMx= 0.00D+00
 Leave Link 1102 at Sun Feb  8 01:07:00 2015, MaxMem=   524288000 cpu:         0.3
 (Enter /opt/g09/l1110.exe)
 Forming Gx(P) for the SCF density, NAtomX=     3.
 Integral derivatives from FoFJK, PRISM(SPDF).
 Do as many integral derivatives as possible in FoFJK.
 G2DrvN: MDV=     524287872.
 G2DrvN: will do     4 centers at a time, making    1 passes.
 Calling FoFCou, ICntrl=  3107 FMM=F I1Cent=   0 AccDes= 0.00D+00.
 FoFJK:  IHMeth= 1 ICntrl=    3107 DoSepK=F KAlg= 0 I1Cent=   0 FoldK=F
 IRaf=         0 NMat=   1 IRICut=       1 DoRegI=T DoRafI=F ISym2E= 0.
 FoFCou: FMM=F IPFlag=           0 FMFlag=      100000 FMFlg1=           0
         NFxFlg=           0 DoJE=F BraDBF=F KetDBF=F FulRan=T
         wScrn=  0.000000 ICntrl=    3107 IOpCl=  0 I1Cent=           0 NGrid=           0
         NMat0=    1 NMatS0=      1 NMatT0=    0 NMatD0=    1 NMtDS0=    0 NMtDT0=    0
 Symmetry not used in FoFCou.
 End of G2Drv F.D. properties file   721 does not exist.
 End of G2Drv F.D. properties file   722 does not exist.
 End of G2Drv F.D. properties file   788 does not exist.
 Leave Link 1110 at Sun Feb  8 01:07:05 2015, MaxMem=   524288000 cpu:        35.3
 (Enter /opt/g09/l1002.exe)
 Minotr:  Closed shell wavefunction.
          IDoAtm=111
          Direct CPHF calculation.
          Differentiating once with respect to electric field.
                with respect to dipole field.
          Differentiating once with respect to nuclear coordinates.
          Requested convergence is 1.0D-08 RMS, and 1.0D-07 maximum.
          Secondary convergence is 1.0D-12 RMS, and 1.0D-12 maximum.
          NewPWx=T KeepS1=F KeepF1=F KeepIn=T MapXYZ=F SortEE=F KeepMc=T.
          MDV=     524287864 using IRadAn=       1.
 Generate precomputed XC quadrature information.
 Keep R1 ints in memory in canonical form, NReq=15792320.
 FoFCou: FMM=F IPFlag=           0 FMFlag=           0 FMFlg1=           0
         NFxFlg=           0 DoJE=F BraDBF=F KetDBF=F FulRan=T
         wScrn=  0.000000 ICntrl=     600 IOpCl=  0 I1Cent=           0 NGrid=           0
         NMat0=    1 NMatS0=   5253 NMatT0=    0 NMatD0=    1 NMtDS0=    0 NMtDT0=    0
 Symmetry not used in FoFCou.
          Solving linear equations simultaneously, MaxMat=       0.
          There are    12 degrees of freedom in the 1st order CPHF.  IDoFFX=6 NUNeed=     3.
      9 vectors produced by pass  0 Test12= 1.31D-14 8.33D-09 XBig12= 8.11D+01 3.70D+00.
 AX will form     9 AO Fock derivatives at one time.
      9 vectors produced by pass  1 Test12= 1.31D-14 8.33D-09 XBig12= 1.20D+02 3.49D+00.
      9 vectors produced by pass  2 Test12= 1.31D-14 8.33D-09 XBig12= 6.76D+00 8.51D-01.
      9 vectors produced by pass  3 Test12= 1.31D-14 8.33D-09 XBig12= 4.31D-01 2.05D-01.
      9 vectors produced by pass  4 Test12= 1.31D-14 8.33D-09 XBig12= 7.43D-03 3.50D-02.
      9 vectors produced by pass  5 Test12= 1.31D-14 8.33D-09 XBig12= 1.02D-04 3.94D-03.
      9 vectors produced by pass  6 Test12= 1.31D-14 8.33D-09 XBig12= 9.63D-07 3.66D-04.
      9 vectors produced by pass  7 Test12= 1.31D-14 8.33D-09 XBig12= 5.37D-09 2.76D-05.
      4 vectors produced by pass  8 Test12= 1.31D-14 8.33D-09 XBig12= 4.31D-11 1.61D-06.
      2 vectors produced by pass  9 Test12= 1.31D-14 8.33D-09 XBig12= 3.44D-13 1.86D-07.
      1 vectors produced by pass 10 Test12= 1.31D-14 8.33D-09 XBig12= 2.49D-15 1.56D-08.
 InvSVY:  IOpt=1 It=  1 EMax= 1.22D-15
 Solved reduced A of dimension    79 with     9 vectors.
 FullF1:  Do perturbations    1 to     3.
 Isotropic polarizability for W=    0.000000       31.38 Bohr**3.
 End of Minotr F.D. properties file   721 does not exist.
 End of Minotr F.D. properties file   722 does not exist.
 End of Minotr F.D. properties file   788 does not exist.
 Leave Link 1002 at Sun Feb  8 01:07:12 2015, MaxMem=   524288000 cpu:        53.1
 (Enter /opt/g09/l701.exe)
 Compute integral second derivatives.
 ... and contract with generalized density number  0.
 Leave Link  701 at Sun Feb  8 01:07:12 2015, MaxMem=   524288000 cpu:         4.1
 (Enter /opt/g09/l702.exe)
 L702 exits ... SP integral derivatives will be done elsewhere.
 Leave Link  702 at Sun Feb  8 01:07:12 2015, MaxMem=   524288000 cpu:         0.3
 (Enter /opt/g09/l703.exe)
 Compute integral second derivatives, UseDBF=F ICtDFT=           0.
 Integral derivatives from FoFJK, PRISM(SPDF).
 Calling FoFJK, ICntrl=    100127 FMM=F ISym2X=0 I1Cent= 0 IOpClX= 0 NMat=1 NMatS=1 NMatT=0.
 FoFJK:  IHMeth= 1 ICntrl=  100127 DoSepK=F KAlg= 0 I1Cent=   0 FoldK=F
 IRaf=         0 NMat=   1 IRICut=       1 DoRegI=T DoRafI=F ISym2E= 0.
 FoFCou: FMM=F IPFlag=           0 FMFlag=      100000 FMFlg1=         800
         NFxFlg=           0 DoJE=F BraDBF=F KetDBF=F FulRan=T
         wScrn=  0.000000 ICntrl=  100127 IOpCl=  0 I1Cent=           0 NGrid=           0
         NMat0=    1 NMatS0=      1 NMatT0=    0 NMatD0=    1 NMtDS0=    0 NMtDT0=    0
 Symmetry not used in FoFCou.
 Leave Link  703 at Sun Feb  8 01:07:22 2015, MaxMem=   524288000 cpu:        80.3
 (Enter /opt/g09/l716.exe)
 Dipole        =-2.51049331D-04 2.70559407D+00-8.49012031D-13
 Polarizability= 4.91853215D+01 2.19350025D-03 2.54477881D+01
                 1.73854064D-10-4.00222612D-11 1.95141902D+01
 Full mass-weighted force constant matrix:
 Low frequencies ---  -10.1659   -7.6244   -6.7148   -0.0059   -0.0043   -0.0028
 Low frequencies ---  341.9934  983.8132 1034.3591
 Diagonal vibrational polarizability:
       13.5315619       4.4068255       0.0000000
 Harmonic frequencies (cm**-1), IR intensities (KM/Mole), Raman scattering
 activities (A**4/AMU), depolarization ratios for plane and unpolarized
 incident light, reduced masses (AMU), force constants (mDyne/A),
 and normal coordinates:
                      1                      2                      3
                      A                      A                      A
 Frequencies --    341.9934               983.8132              1034.3591
 Red. masses --     18.3727                20.2189                18.5398
 Frc consts  --      1.2661                11.5301                11.6869
 IR Inten    --     14.6390               486.6762                41.2890
  Atom  AN      X      Y      Z        X      Y      Z        X      Y      Z
     1  22     0.00  -0.27   0.00     0.36   0.00   0.00     0.00   0.28   0.00
     2   8     0.54   0.41   0.00    -0.55   0.37   0.00     0.53  -0.42   0.00
     3   8    -0.54   0.41   0.00    -0.54  -0.37   0.00    -0.53  -0.42   0.00

 -------------------
 - Thermochemistry -
 -------------------
 Temperature   298.150 Kelvin.  Pressure   1.00000 Atm.
 Atom     1 has atomic number 22 and mass  47.94795
 Atom     2 has atomic number  8 and mass  15.99491
 Atom     3 has atomic number  8 and mass  15.99491
 Molecular mass:    79.93778 amu.
 Principal axes and moments of inertia in atomic units:
                           1         2         3
     Eigenvalues --    57.81088 209.04894 266.85981
           X            1.00000  -0.00009   0.00000
           Y            0.00009   1.00000   0.00000
           Z            0.00000   0.00000   1.00000
 This molecule is an asymmetric top.
 Rotational symmetry number  1.
 Rotational temperatures (Kelvin)      1.49823     0.41432     0.32457
 Rotational constants (GHZ):          31.21802     8.63310     6.76288
 Zero-point vibrational energy      14116.9 (Joules/Mol)
                                    3.37403 (Kcal/Mol)
 Warning -- explicit consideration of   1 degrees of freedom as
           vibrations may cause significant error
 Vibrational temperatures:    492.05  1415.49  1488.21
          (Kelvin)
 
 Zero-point correction=                           0.005377 (Hartree/Particle)
 Thermal correction to Energy=                    0.008651
 Thermal correction to Enthalpy=                  0.009595
 Thermal correction to Gibbs Free Energy=        -0.020399
 Sum of electronic and zero-point Energies=           -999.857445
 Sum of electronic and thermal Energies=              -999.854170
 Sum of electronic and thermal Enthalpies=            -999.853226
 Sum of electronic and thermal Free Energies=         -999.883220
 
                     E (Thermal)             CV                S
                      KCal/Mol        Cal/Mol-Kelvin    Cal/Mol-Kelvin
 Total                    5.429              8.290             63.128
 Electronic               0.000              0.000              0.000
 Translational            0.889              2.981             39.051
 Rotational               0.889              2.981             22.694
 Vibrational              3.651              2.328              1.384
 Vibration     1          0.721              1.592              1.203
                       Q            Log10(Q)             Ln(Q)
 Total Bot       0.241462D+10          9.382848         21.604807
 Total V=0       0.717834D+12         11.856024         27.299504
 Vib (Bot)       0.422813D-02         -2.373852         -5.465995
 Vib (Bot)    1  0.542264D+00         -0.265789         -0.612003
 Vib (V=0)       0.125697D+01          0.099324          0.228701
 Vib (V=0)    1  0.123760D+01          0.092579          0.213172
 Electronic      0.100000D+01          0.000000          0.000000
 Translational   0.280920D+08          7.448583         17.150997
 Rotational      0.203290D+05          4.308117          9.919805
 
                                                   freq-fine-tio2-b971-6311+gdp.g
 au
                                                             IR Spectrum
 
     1                                                                                                                               
     0      9                                                                              3                                         
     3      8                                                                              4                                         
     4      4                                                                              2                                         
 
     X      X                                                                              X                                         
     X      X                                                                                                                        
            X                                                                                                                        
            X                                                                                                                        
            X                                                                                                                        
            X                                                                                                                        
            X                                                                                                                        
            X                                                                                                                        
            X                                                                                                                        
            X                                                                                                                        
            X                                                                                                                        
            X                                                                                                                        
            X                                                                                                                        
            X                                                                                                                        
            X                                                                                                                        
            X                                                                                                                        
            X                                                                                                                        
            X                                                                                                                        
            X                                                                                                                        
            X                                                                                                                        
 
 -------------------------------------------------------------------
 Center     Atomic                   Forces (Hartrees/Bohr)
 Number     Number              X              Y              Z
 -------------------------------------------------------------------
      1       22           0.000000066   -0.000000704    0.000000000
      2        8          -0.000000167    0.000000385    0.000000000
      3        8           0.000000101    0.000000319    0.000000000
 -------------------------------------------------------------------
 Cartesian Forces:  Max     0.000000704 RMS     0.000000296
 Force constants in Cartesian coordinates: 
                1             2             3             4             5 
      1  0.550460D+00
      2  0.110869D-04  0.441092D+00
      3  0.000000D+00  0.000000D+00 -0.422091D-04
      4 -0.275267D+00  0.223264D+00  0.000000D+00  0.313012D+00
      5  0.186974D+00 -0.220508D+00  0.000000D+00 -0.205111D+00  0.173708D+00
      6  0.000000D+00  0.000000D+00  0.211987D-04  0.000000D+00  0.000000D+00
      7 -0.275193D+00 -0.223275D+00  0.000000D+00 -0.377451D-01  0.181370D-01
      8 -0.186986D+00 -0.220585D+00  0.000000D+00 -0.181526D-01  0.467997D-01
      9  0.000000D+00  0.000000D+00  0.210103D-04  0.000000D+00  0.000000D+00
                6             7             8             9 
      6 -0.242936D-04
      7  0.000000D+00  0.312938D+00
      8  0.000000D+00  0.205138D+00  0.173785D+00
      9  0.309490D-05  0.000000D+00  0.000000D+00 -0.241052D-04
 FormGI is forming the generalized inverse of G from B-inverse, IUseBI=4.
 Force constants in internal coordinates: 
                1             2             3 
      1  0.459669D+00
      2  0.574957D-01  0.459672D+00
      3 -0.337786D-01 -0.337788D-01  0.258265D+00
 Leave Link  716 at Sun Feb  8 01:07:23 2015, MaxMem=   524288000 cpu:         0.3
 (Enter /opt/g09/l103.exe)

 GradGradGradGradGradGradGradGradGradGradGradGradGradGradGradGradGradGrad
 Berny optimization.
 Red2BG is reusing G-inverse.
 Internal  Forces:  Max     0.000000668 RMS     0.000000462
 Search for a local minimum.
 Step number   1 out of a maximum of    2
 All quantities printed in internal units (Hartrees-Bohrs-Radians)
 Second derivative matrix not updated -- analytic derivatives used.
 The second derivative matrix:
                          R1        R2        A1
           R1           0.45967
           R2           0.05750   0.45967
           A1          -0.03378  -0.03378   0.25827
 ITU=  0
     Eigenvalues ---    0.24973   0.40217   0.52570
 Angle between quadratic step and forces=  19.16 degrees.
 Linear search not attempted -- first point.
 Iteration  1 RMS(Cart)=  0.00000217 RMS(Int)=  0.00000000
 Iteration  2 RMS(Cart)=  0.00000000 RMS(Int)=  0.00000000
 ITry= 1 IFail=0 DXMaxC= 2.27D-06 DCOld= 1.00D+10 DXMaxT= 3.00D-01 DXLimC= 3.00D+00 Rises=F
 Variable       Old X    -DE/DX   Delta X   Delta X   Delta X     New X
                                 (Linear)    (Quad)   (Total)
    R1        3.08994   0.00000   0.00000   0.00000   0.00000   3.08994
    R2        3.08994   0.00000   0.00000   0.00000   0.00000   3.08994
    A1        1.94860   0.00000   0.00000   0.00000   0.00000   1.94861
         Item               Value     Threshold  Converged?
 Maximum Force            0.000001     0.000015     YES
 RMS     Force            0.000000     0.000010     YES
 Maximum Displacement     0.000002     0.000060     YES
 RMS     Displacement     0.000002     0.000040     YES
 Predicted change in Energy=-9.638503D-13
 Optimization completed.
    -- Stationary point found.
                           ----------------------------
                           !   Optimized Parameters   !
                           ! (Angstroms and Degrees)  !
 --------------------------                            --------------------------
 ! Name  Definition              Value          Derivative Info.                !
 --------------------------------------------------------------------------------
 ! R1    R(1,2)                  1.6351         -DE/DX =    0.0                 !
 ! R2    R(1,3)                  1.6351         -DE/DX =    0.0                 !
 ! A1    A(2,1,3)              111.6467         -DE/DX =    0.0                 !
 --------------------------------------------------------------------------------
 GradGradGradGradGradGradGradGradGradGradGradGradGradGradGradGradGradGrad

 Leave Link  103 at Sun Feb  8 01:07:23 2015, MaxMem=   524288000 cpu:         0.0
 (Enter /opt/g09/l9999.exe)
 1\1\GINC-REMBRANDT\Freq\RB971\6-311+G(d,p)\O2Ti1\PB556\08-Feb-2015\0\\
 #P Geom=AllCheck Guess=TCheck SCRF=Check GenChk RB971/6-311+G(d,p) Fre
 q\\freq-fine-tio2-b971-6311+gdp.gau\\0,1\Ti,-0.00006,0.38618,0.\O,1.35
 278,-0.53222,0.\O,-1.35273,-0.53247,0.\\Version=ES64L-G09RevD.01\HF=-9
 99.8628215\RMSD=3.143e-09\RMSF=2.960e-07\ZeroPoint=0.0053769\Thermal=0
 .0086511\Dipole=-0.000251,2.7055941,0.\DipoleDeriv=3.0770648,0.0001903
 ,0.,0.0001903,1.0206864,0.,0.,0.,1.558793,-1.5385944,0.1567167,0.,0.51
 52603,-0.5102811,0.,0.,0.,-0.7793966,-1.5384704,-0.1569069,0.,-0.51545
 06,-0.5104054,0.,0.,0.,-0.7793964\Polar=49.1853215,0.0021935,25.447788
 1,0.,0.,19.5141902\PG=CS [SG(O2Ti1)]\NImag=0\\0.55045956,0.00001109,0.
 44109226,0.,0.,-0.00004221,-0.27526702,0.22326400,0.,0.31301213,0.1869
 7445,-0.22050760,0.,-0.20511142,0.17370793,0.,0.,0.00002120,0.,0.,-0.0
 0002429,-0.27519254,-0.22327509,0.,-0.03774511,0.01813697,0.,0.3129376
 5,-0.18698554,-0.22058466,0.,-0.01815258,0.04679967,0.,0.20513812,0.17
 378499,0.,0.,0.00002101,0.,0.,0.00000309,0.,0.,-0.00002411\\-0.0000000
 7,0.00000070,0.,0.00000017,-0.00000039,0.,-0.00000010,-0.00000032,0.\\
 \@


       THE DEATH-KNELL OF THE ATOM

 SO THE ATOMS IN TURN, WE NOW CLEARLY DISCERN,
 FLY TO BITS WITH THE UTMOST FACILITY;
 THEY WEND ON THEIR WAY, AND, IN SPLITTING, DISPLAY
 AN ABSOLUTE LACK OF STABILITY.

          SIR WM. RAMSAY, 1905
 Job cpu time:       0 days  0 hours  3 minutes 14.7 seconds.
 File lengths (MBytes):  RWF=      9 Int=      0 D2E=      0 Chk=      2 Scr=      1
 Normal termination of Gaussian 09 at Sun Feb  8 01:07:23 2015.
