 Entering Gaussian System, Link 0=g09
 Initial command:
 /usr/local/Cluster-Apps/gaussian/g09/l1.exe "/rds/user/am2145/hpc-work/scratch/36605974/Gau-46513.inp" -scrdir="/rds/user/am2145/hpc-work/scratch/36605974/"
 Entering Link 1 = /usr/local/Cluster-Apps/gaussian/g09/l1.exe PID=     46514.
  
 Copyright (c) 1988,1990,1992,1993,1995,1998,2003,2009,2013,
            Gaussian, Inc.  All Rights Reserved.
  
 This is part of the Gaussian(R) 09 program.  It is based on
 the Gaussian(R) 03 system (copyright 2003, Gaussian, Inc.),
 the Gaussian(R) 98 system (copyright 1998, Gaussian, Inc.),
 the Gaussian(R) 94 system (copyright 1995, Gaussian, Inc.),
 the Gaussian 92(TM) system (copyright 1992, Gaussian, Inc.),
 the Gaussian 90(TM) system (copyright 1990, Gaussian, Inc.),
 the Gaussian 88(TM) system (copyright 1988, Gaussian, Inc.),
 the Gaussian 86(TM) system (copyright 1986, Carnegie Mellon
 University), and the Gaussian 82(TM) system (copyright 1983,
 Carnegie Mellon University). Gaussian is a federally registered
 trademark of Gaussian, Inc.
  
 This software contains proprietary and confidential information,
 including trade secrets, belonging to Gaussian, Inc.
  
 This software is provided under written license and may be
 used, copied, transmitted, or stored only in accord with that
 written license.
  
 The following legend is applicable only to US Government
 contracts under FAR:
  
                    RESTRICTED RIGHTS LEGEND
  
 Use, reproduction and disclosure by the US Government is
 subject to restrictions as set forth in subparagraphs (a)
 and (c) of the Commercial Computer Software - Restricted
 Rights clause in FAR 52.227-19.
  
 Gaussian, Inc.
 340 Quinnipiac St., Bldg. 40, Wallingford CT 06492
  
  
 ---------------------------------------------------------------
 Warning -- This program may not be used in any manner that
 competes with the business of Gaussian, Inc. or will provide
 assistance to any competitor of Gaussian, Inc.  The licensee
 of this program is prohibited from giving any competitor of
 Gaussian, Inc. access to this program.  By using this program,
 the user acknowledges that Gaussian, Inc. is engaged in the
 business of creating and licensing software in the field of
 computational chemistry and represents and warrants to the
 licensee that it is not a competitor of Gaussian, Inc. and that
 it will not use this program in any manner prohibited above.
 ---------------------------------------------------------------
  

 Cite this work as:
 Gaussian 09, Revision D.01,
 M. J. Frisch, G. W. Trucks, H. B. Schlegel, G. E. Scuseria, 
 M. A. Robb, J. R. Cheeseman, G. Scalmani, V. Barone, B. Mennucci, 
 G. A. Petersson, H. Nakatsuji, M. Caricato, X. Li, H. P. Hratchian, 
 A. F. Izmaylov, J. Bloino, G. Zheng, J. L. Sonnenberg, M. Hada, 
 M. Ehara, K. Toyota, R. Fukuda, J. Hasegawa, M. Ishida, T. Nakajima, 
 Y. Honda, O. Kitao, H. Nakai, T. Vreven, J. A. Montgomery, Jr., 
 J. E. Peralta, F. Ogliaro, M. Bearpark, J. J. Heyd, E. Brothers, 
 K. N. Kudin, V. N. Staroverov, T. Keith, R. Kobayashi, J. Normand, 
 K. Raghavachari, A. Rendell, J. C. Burant, S. S. Iyengar, J. Tomasi, 
 M. Cossi, N. Rega, J. M. Millam, M. Klene, J. E. Knox, J. B. Cross, 
 V. Bakken, C. Adamo, J. Jaramillo, R. Gomperts, R. E. Stratmann, 
 O. Yazyev, A. J. Austin, R. Cammi, C. Pomelli, J. W. Ochterski, 
 R. L. Martin, K. Morokuma, V. G. Zakrzewski, G. A. Voth, 
 P. Salvador, J. J. Dannenberg, S. Dapprich, A. D. Daniels, 
 O. Farkas, J. B. Foresman, J. V. Ortiz, J. Cioslowski, 
 and D. J. Fox, Gaussian, Inc., Wallingford CT, 2013.
 
 ******************************************
 Gaussian 09:  ES64L-G09RevD.01 24-Apr-2013
                22-Mar-2021 
 ******************************************
 %NProcShared=20
 Will use up to   20 processors via shared memory.
 %mem=32GB
 %Chk=ethane_scan_short.chk
 ----------------------------------
 #n B3LYP/6-31G(d) Opt=ModRedundant
 ----------------------------------
 1/14=-1,18=120,19=15,26=3,38=1/1,3;
 2/9=110,12=2,17=6,18=5,40=1/2;
 3/5=1,6=6,7=1,11=2,16=1,25=1,30=1,71=1,74=-5/1,2,3;
 4//1;
 5/5=2,38=5/2;
 6/7=2,8=2,9=2,10=2,28=1/1;
 7//1,2,3,16;
 1/14=-1,18=20,19=15,26=3/3(2);
 2/9=110/2;
 99//99;
 2/9=110/2;
 3/5=1,6=6,7=1,11=2,16=1,25=1,30=1,71=1,74=-5/1,2,3;
 4/5=5,16=3,69=1/1;
 5/5=2,38=5/2;
 7//1,2,3,16;
 1/14=-1,18=20,19=15,26=3/3(-5);
 2/9=110/2;
 6/7=2,8=2,9=2,10=2,19=2,28=1/1;
 99/9=1/99;
 -----------
 ethane_scan
 -----------
 Symbolic Z-matrix:
 Charge =  0 Multiplicity = 1
 C                     0.76537   0.        0. 
 C                    -0.76537   0.        0. 
 H                    -1.16351   0.19387  -0.99987 
 H                    -1.16351   0.76898   0.66783 
 H                    -1.16351  -0.96285   0.33204 
 H                     1.16351   0.96285  -0.33204 
 H                     1.16351  -0.76898  -0.66783 
 H                     1.16351  -0.19387   0.99987 
 
 The following ModRedundant input section has been read:
 B       1       2 S   2 0.1000                                                
 

 GradGradGradGradGradGradGradGradGradGradGradGradGradGradGradGradGradGrad
 Berny optimization.
 Initialization pass.
                           ----------------------------
                           !    Initial Parameters    !
                           ! (Angstroms and Degrees)  !
 --------------------------                            --------------------------
 ! Name  Definition              Value          Derivative Info.                !
 --------------------------------------------------------------------------------
 ! R1    R(1,2)                  1.5307         Scan                            !
 ! R2    R(1,6)                  1.0935         estimate D2E/DX2                !
 ! R3    R(1,7)                  1.0935         estimate D2E/DX2                !
 ! R4    R(1,8)                  1.0935         estimate D2E/DX2                !
 ! R5    R(2,3)                  1.0935         estimate D2E/DX2                !
 ! R6    R(2,4)                  1.0935         estimate D2E/DX2                !
 ! R7    R(2,5)                  1.0935         estimate D2E/DX2                !
 ! A1    A(2,1,6)              111.351          estimate D2E/DX2                !
 ! A2    A(2,1,7)              111.3511         estimate D2E/DX2                !
 ! A3    A(2,1,8)              111.3511         estimate D2E/DX2                !
 ! A4    A(6,1,7)              107.5278         estimate D2E/DX2                !
 ! A5    A(6,1,8)              107.5277         estimate D2E/DX2                !
 ! A6    A(7,1,8)              107.5276         estimate D2E/DX2                !
 ! A7    A(1,2,3)              111.3511         estimate D2E/DX2                !
 ! A8    A(1,2,4)              111.3511         estimate D2E/DX2                !
 ! A9    A(1,2,5)              111.351          estimate D2E/DX2                !
 ! A10   A(3,2,4)              107.5276         estimate D2E/DX2                !
 ! A11   A(3,2,5)              107.5277         estimate D2E/DX2                !
 ! A12   A(4,2,5)              107.5278         estimate D2E/DX2                !
 ! D1    D(6,1,2,3)             60.0            estimate D2E/DX2                !
 ! D2    D(6,1,2,4)            -59.9999         estimate D2E/DX2                !
 ! D3    D(6,1,2,5)            180.0            estimate D2E/DX2                !
 ! D4    D(7,1,2,3)            -60.0001         estimate D2E/DX2                !
 ! D5    D(7,1,2,4)            180.0            estimate D2E/DX2                !
 ! D6    D(7,1,2,5)             59.9999         estimate D2E/DX2                !
 ! D7    D(8,1,2,3)            180.0            estimate D2E/DX2                !
 ! D8    D(8,1,2,4)             60.0001         estimate D2E/DX2                !
 ! D9    D(8,1,2,5)            -60.0            estimate D2E/DX2                !
 --------------------------------------------------------------------------------
 Trust Radius=3.00D-01 FncErr=1.00D-07 GrdErr=1.00D-06
 Number of optimizations in scan=   3
 Number of steps in this run=     38 maximum allowed number of steps=    100.
 GradGradGradGradGradGradGradGradGradGradGradGradGradGradGradGradGradGrad

                          Input orientation:                          
 ---------------------------------------------------------------------
 Center     Atomic      Atomic             Coordinates (Angstroms)
 Number     Number       Type             X           Y           Z
 ---------------------------------------------------------------------
      1          6           0        0.765370    0.000000    0.000000
      2          6           0       -0.765370    0.000000    0.000000
      3          1           0       -1.163510    0.193870   -0.999870
      4          1           0       -1.163510    0.768980    0.667830
      5          1           0       -1.163510   -0.962850    0.332040
      6          1           0        1.163510    0.962850   -0.332040
      7          1           0        1.163510   -0.768980   -0.667830
      8          1           0        1.163510   -0.193870    0.999870
 ---------------------------------------------------------------------
                    Distance matrix (angstroms):
                    1          2          3          4          5
     1  C    0.000000
     2  C    1.530740   0.000000
     3  H    2.181262   1.093545   0.000000
     4  H    2.181262   1.093546   1.764079   0.000000
     5  H    2.181263   1.093548   1.764082   1.764083   0.000000
     6  H    1.093548   2.181263   2.540147   2.540147   3.092627
     7  H    1.093546   2.181262   2.540148   3.092625   2.540147
     8  H    1.093545   2.181262   3.092624   2.540148   2.540147
                    6          7          8
     6  H    0.000000
     7  H    1.764083   0.000000
     8  H    1.764082   1.764079   0.000000
 This structure is nearly, but not quite of a higher symmetry.
 Consider Symm=Loose if the higher symmetry is desired.
 Stoichiometry    C2H6
 Framework group  CI[X(C2H6)]
 Deg. of freedom     9
 Full point group                 CI      NOp   2
 Largest Abelian subgroup         CI      NOp   2
 Largest concise Abelian subgroup CI      NOp   2
                         Standard orientation:                         
 ---------------------------------------------------------------------
 Center     Atomic      Atomic             Coordinates (Angstroms)
 Number     Number       Type             X           Y           Z
 ---------------------------------------------------------------------
      1          6           0        0.765370    0.000000    0.000000
      2          6           0       -0.765370    0.000000    0.000000
      3          1           0       -1.163510    0.193870   -0.999870
      4          1           0       -1.163510    0.768980    0.667830
      5          1           0       -1.163510   -0.962850    0.332040
      6          1           0        1.163510    0.962850   -0.332040
      7          1           0        1.163510   -0.768980   -0.667830
      8          1           0        1.163510   -0.193870    0.999870
 ---------------------------------------------------------------------
 Rotational constants (GHZ):     80.5684079     19.9113860     19.9113717
 Standard basis: 6-31G(d) (6D, 7F)
 There are    21 symmetry adapted cartesian basis functions of AG  symmetry.
 There are    21 symmetry adapted cartesian basis functions of AU  symmetry.
 There are    21 symmetry adapted basis functions of AG  symmetry.
 There are    21 symmetry adapted basis functions of AU  symmetry.
    42 basis functions,    80 primitive gaussians,    42 cartesian basis functions
     9 alpha electrons        9 beta electrons
       nuclear repulsion energy        42.1627134354 Hartrees.
 NAtoms=    8 NActive=    8 NUniq=    4 SFac= 4.00D+00 NAtFMM=   60 NAOKFM=F Big=F
 Integral buffers will be    131072 words long.
 Raffenetti 2 integral format.
 Two-electron integral symmetry is turned on.
 One-electron integrals computed using PRISM.
 NBasis=    42 RedAO= T EigKep=  5.98D-03  NBF=    21    21
 NBsUse=    42 1.00D-06 EigRej= -1.00D+00 NBFU=    21    21
 ExpMin= 1.61D-01 ExpMax= 3.05D+03 ExpMxC= 4.57D+02 IAcc=1 IRadAn=         1 AccDes= 0.00D+00
 Harris functional with IExCor=  402 and IRadAn=       1 diagonalized for initial guess.
 HarFok:  IExCor=  402 AccDes= 0.00D+00 IRadAn=         1 IDoV= 1 UseB2=F ITyADJ=14
 ICtDFT=  3500011 ScaDFX=  1.000000  1.000000  1.000000  1.000000
 FoFCou: FMM=F IPFlag=           0 FMFlag=      100000 FMFlg1=           0
         NFxFlg=           0 DoJE=T BraDBF=F KetDBF=T FulRan=T
         wScrn=  0.000000 ICntrl=     500 IOpCl=  0 I1Cent=   200000004 NGrid=           0
         NMat0=    1 NMatS0=      1 NMatT0=    0 NMatD0=    1 NMtDS0=    0 NMtDT0=    0
 Petite list used in FoFCou.
 Initial guess orbital symmetries:
       Occupied  (AG) (AU) (AG) (AU) (AU) (AU) (AG) (AG) (AG)
       Virtual   (AG) (AU) (AU) (AU) (AG) (AG) (AU) (AG) (AU) (AU)
                 (AU) (AG) (AG) (AU) (AU) (AG) (AG) (AG) (AU) (AG)
                 (AU) (AU) (AU) (AG) (AG) (AG) (AU) (AU) (AG) (AG)
                 (AU) (AG) (AU)
 The electronic state of the initial guess is 1-AG.
 Keep R1 ints in memory in symmetry-blocked form, NReq=1296204.
 Requested convergence on RMS density matrix=1.00D-08 within 128 cycles.
 Requested convergence on MAX density matrix=1.00D-06.
 Requested convergence on             energy=1.00D-06.
 No special actions if energy rises.
 Integral accuracy reduced to 1.0D-05 until final iterations.
 Initial convergence to 1.0D-05 achieved.  Increase integral accuracy.
 SCF Done:  E(RB3LYP) =  -79.8303966415     A.U. after   10 cycles
            NFock= 10  Conv=0.13D-08     -V/T= 2.0106

 **********************************************************************

            Population analysis using the SCF density.

 **********************************************************************

 Orbital symmetries:
       Occupied  (AG) (AU) (AG) (AU) (AU) (AU) (AG) (AG) (AG)
       Virtual   (AG) (AU) (AU) (AU) (AG) (AG) (AU) (AG) (AU) (AU)
                 (AG) (AG) (AU) (AU) (AU) (AG) (AG) (AG) (AU) (AG)
                 (AU) (AU) (AU) (AG) (AG) (AG) (AU) (AU) (AG) (AG)
                 (AU) (AG) (AU)
 The electronic state is 1-AG.
 Alpha  occ. eigenvalues --  -10.17147 -10.17126  -0.74782  -0.61277  -0.43047
 Alpha  occ. eigenvalues --   -0.43047  -0.36278  -0.34049  -0.34049
 Alpha virt. eigenvalues --    0.10530   0.15668   0.16472   0.16472   0.19081
 Alpha virt. eigenvalues --    0.19081   0.24268   0.51310   0.54302   0.54303
 Alpha virt. eigenvalues --    0.63613   0.63613   0.66884   0.88486   0.88486
 Alpha virt. eigenvalues --    0.90981   0.92140   0.92141   0.98242   1.06680
 Alpha virt. eigenvalues --    1.44008   1.52618   1.52618   1.93305   1.98148
 Alpha virt. eigenvalues --    1.98149   2.27426   2.27426   2.33580   2.33580
 Alpha virt. eigenvalues --    2.58751   4.14662   4.36703
          Condensed to atoms (all electrons):
               1          2          3          4          5          6
     1  C    5.011121   0.376666  -0.034523  -0.034524  -0.034524   0.383220
     2  C    0.376666   5.011121   0.383221   0.383219   0.383220  -0.034524
     3  H   -0.034523   0.383221   0.574274  -0.032492  -0.032492  -0.003639
     4  H   -0.034524   0.383219  -0.032492   0.574281  -0.032492  -0.003639
     5  H   -0.034524   0.383220  -0.032492  -0.032492   0.574277   0.004663
     6  H    0.383220  -0.034524  -0.003639  -0.003639   0.004663   0.574277
     7  H    0.383219  -0.034524  -0.003639   0.004663  -0.003639  -0.032492
     8  H    0.383221  -0.034523   0.004663  -0.003639  -0.003639  -0.032492
               7          8
     1  C    0.383219   0.383221
     2  C   -0.034524  -0.034523
     3  H   -0.003639   0.004663
     4  H    0.004663  -0.003639
     5  H   -0.003639  -0.003639
     6  H   -0.032492  -0.032492
     7  H    0.574281  -0.032492
     8  H   -0.032492   0.574274
 Mulliken charges:
               1
     1  C   -0.433877
     2  C   -0.433877
     3  H    0.144627
     4  H    0.144623
     5  H    0.144627
     6  H    0.144627
     7  H    0.144623
     8  H    0.144627
 Sum of Mulliken charges =   0.00000
 Mulliken charges with hydrogens summed into heavy atoms:
               1
     1  C    0.000000
     2  C    0.000000
 Electronic spatial extent (au):  <R**2>=            109.5100
 Charge=              0.0000 electrons
 Dipole moment (field-independent basis, Debye):
    X=              0.0000    Y=              0.0000    Z=              0.0000  Tot=              0.0000
 Quadrupole moment (field-independent basis, Debye-Ang):
   XX=            -15.2140   YY=            -14.7037   ZZ=            -14.7037
   XY=              0.0000   XZ=              0.0000   YZ=              0.0000
 Traceless Quadrupole moment (field-independent basis, Debye-Ang):
   XX=             -0.3402   YY=              0.1701   ZZ=              0.1701
   XY=              0.0000   XZ=              0.0000   YZ=              0.0000
 Octapole moment (field-independent basis, Debye-Ang**2):
  XXX=              0.0000  YYY=              0.0000  ZZZ=              0.0000  XYY=              0.0000
  XXY=              0.0000  XXZ=              0.0000  XZZ=              0.0000  YZZ=              0.0000
  YYZ=              0.0000  XYZ=              0.0000
 Hexadecapole moment (field-independent basis, Debye-Ang**3):
 XXXX=            -92.5422 YYYY=            -28.5518 ZZZZ=            -28.5517 XXXY=              0.0000
 XXXZ=              0.0001 YYYX=              0.6448 YYYZ=              0.0000 ZZZX=              0.9960
 ZZZY=              0.0000 XXYY=            -19.1215 XXZZ=            -19.1215 YYZZ=             -9.5173
 XXYZ=              0.0000 YYXZ=             -0.9958 ZZXY=             -0.6447
 N-N= 4.216271343541D+01 E-N=-2.681460894389D+02  KE= 7.899475165371D+01
 Symmetry AG   KE= 4.101164994090D+01
 Symmetry AU   KE= 3.798310171280D+01
 Calling FoFJK, ICntrl=      2127 FMM=F ISym2X=1 I1Cent= 0 IOpClX= 0 NMat=1 NMatS=1 NMatT=0.
 ***** Axes restored to original set *****
 -------------------------------------------------------------------
 Center     Atomic                   Forces (Hartrees/Bohr)
 Number     Number              X              Y              Z
 -------------------------------------------------------------------
      1        6          -0.001678572    0.000007754   -0.000004319
      2        6           0.001678572   -0.000007754    0.000004319
      3        1          -0.000565558    0.000316932   -0.001589496
      4        1          -0.000577696    0.001223755    0.001061281
      5        1          -0.000585568   -0.001533180    0.000518390
      6        1           0.000585568    0.001533180   -0.000518390
      7        1           0.000577696   -0.001223755   -0.001061281
      8        1           0.000565558   -0.000316932    0.001589496
 -------------------------------------------------------------------
 Cartesian Forces:  Max     0.001678572 RMS     0.000986761

 GradGradGradGradGradGradGradGradGradGradGradGradGradGradGradGradGradGrad
 Berny optimization.
 FormGI is forming the generalized inverse of G from B-inverse, IUseBI=4.
 Internal  Forces:  Max     0.001722776 RMS     0.000796251
 Search for a local minimum.
 Step number   1 out of a maximum of   38 on scan point     1 out of     3
 All quantities printed in internal units (Hartrees-Bohrs-Radians)
 Mixed Optimization -- En-DIIS/RFO-DIIS
 Second derivative matrix not updated -- first step.
 ITU=  0
     Eigenvalues ---    0.00359   0.05455   0.05455   0.05455   0.05455
     Eigenvalues ---    0.16000   0.16000   0.16000   0.16000   0.16000
     Eigenvalues ---    0.16000   0.34406   0.34406   0.34406   0.34406
     Eigenvalues ---    0.34406   0.344061000.000001000.000001000.00000
     Eigenvalues --- 1000.000001000.000001000.000001000.000001000.00000
     Eigenvalues --- 1000.000001000.000001000.00000
 RFO step:  Lambda=-5.17041561D-05 EMin= 3.59316169D-03
 Linear search not attempted -- first point.
 Iteration  1 RMS(Cart)=  0.00233197 RMS(Int)=  0.00000056
 Iteration  2 RMS(Cart)=  0.00000079 RMS(Int)=  0.00000003
 Iteration  1 RMS(Cart)=  0.00000000 RMS(Int)=  0.00000000
 ClnCor:  largest displacement from symmetrization is 9.85D-09 for atom     6.
 Variable       Old X    -DE/DX   Delta X   Delta X   Delta X     New X
                                 (Linear)    (Quad)   (Total)
    R1        2.89268   0.00005   0.00000   0.00000   0.00000   2.89268
    R2        2.06651   0.00172   0.00000   0.00501   0.00501   2.07151
    R3        2.06650   0.00172   0.00000   0.00500   0.00500   2.07150
    R4        2.06650   0.00171   0.00000   0.00498   0.00498   2.07148
    R5        2.06650   0.00171   0.00000   0.00498   0.00498   2.07148
    R6        2.06650   0.00172   0.00000   0.00500   0.00500   2.07150
    R7        2.06651   0.00172   0.00000   0.00501   0.00501   2.07151
    A1        1.94344  -0.00004   0.00000  -0.00025  -0.00025   1.94319
    A2        1.94344  -0.00005   0.00000  -0.00032  -0.00032   1.94312
    A3        1.94344  -0.00006   0.00000  -0.00039  -0.00039   1.94305
    A4        1.87671   0.00005   0.00000   0.00035   0.00035   1.87707
    A5        1.87671   0.00005   0.00000   0.00034   0.00034   1.87706
    A6        1.87671   0.00006   0.00000   0.00033   0.00033   1.87704
    A7        1.94344  -0.00006   0.00000  -0.00039  -0.00039   1.94305
    A8        1.94344  -0.00005   0.00000  -0.00032  -0.00032   1.94312
    A9        1.94344  -0.00004   0.00000  -0.00025  -0.00025   1.94319
   A10        1.87671   0.00006   0.00000   0.00033   0.00033   1.87704
   A11        1.87671   0.00005   0.00000   0.00034   0.00034   1.87706
   A12        1.87671   0.00005   0.00000   0.00035   0.00035   1.87707
    D1        1.04720   0.00000   0.00000   0.00000   0.00000   1.04719
    D2       -1.04720   0.00000   0.00000   0.00006   0.00006  -1.04713
    D3        3.14159   0.00000   0.00000   0.00000   0.00000   3.14159
    D4       -1.04720   0.00000   0.00000  -0.00007  -0.00007  -1.04727
    D5        3.14159   0.00000   0.00000   0.00000   0.00000   3.14159
    D6        1.04720   0.00000   0.00000  -0.00006  -0.00006   1.04713
    D7        3.14159   0.00000   0.00000   0.00000   0.00000   3.14159
    D8        1.04720   0.00000   0.00000   0.00007   0.00007   1.04727
    D9       -1.04720   0.00000   0.00000   0.00000   0.00000  -1.04719
         Item               Value     Threshold  Converged?
 Maximum Force            0.001723     0.000450     NO 
 RMS     Force            0.000811     0.000300     NO 
 Maximum Displacement     0.004765     0.001800     NO 
 RMS     Displacement     0.002332     0.001200     NO 
 Predicted change in Energy=-2.585208D-05
 GradGradGradGradGradGradGradGradGradGradGradGradGradGradGradGradGradGrad

                          Input orientation:                          
 ---------------------------------------------------------------------
 Center     Atomic      Atomic             Coordinates (Angstroms)
 Number     Number       Type             X           Y           Z
 ---------------------------------------------------------------------
      1          6           0        0.765370    0.000021   -0.000023
      2          6           0       -0.765370   -0.000021    0.000023
      3          1           0       -1.164106    0.194358   -1.002392
      4          1           0       -1.164147    0.770933    0.669530
      5          1           0       -1.164183   -0.965315    0.332892
      6          1           0        1.164183    0.965315   -0.332892
      7          1           0        1.164147   -0.770933   -0.669530
      8          1           0        1.164106   -0.194358    1.002392
 ---------------------------------------------------------------------
                    Distance matrix (angstroms):
                    1          2          3          4          5
     1  C    0.000000
     2  C    1.530740   0.000000
     3  H    2.182977   1.096179   0.000000
     4  H    2.183035   1.096190   1.768547   0.000000
     5  H    2.183090   1.096197   1.768566   1.768582   0.000000
     6  H    1.096197   2.183090   2.542348   2.542392   3.097078
     7  H    1.096190   2.183035   2.542311   3.096996   2.542392
     8  H    1.096179   2.182977   3.096906   2.542311   2.542348
                    6          7          8
     6  H    0.000000
     7  H    1.768582   0.000000
     8  H    1.768566   1.768547   0.000000
 Stoichiometry    C2H6
 Framework group  CI[X(C2H6)]
 Deg. of freedom     9
 Full point group                 CI      NOp   2
 Largest Abelian subgroup         CI      NOp   2
 Largest concise Abelian subgroup CI      NOp   2
                         Standard orientation:                         
 ---------------------------------------------------------------------
 Center     Atomic      Atomic             Coordinates (Angstroms)
 Number     Number       Type             X           Y           Z
 ---------------------------------------------------------------------
      1          6           0        0.765370    0.000021   -0.000023
      2          6           0       -0.765370   -0.000021    0.000023
      3          1           0       -1.164106    0.194358   -1.002392
      4          1           0       -1.164147    0.770933    0.669530
      5          1           0       -1.164183   -0.965315    0.332892
      6          1           0        1.164183    0.965315   -0.332892
      7          1           0        1.164147   -0.770933   -0.669530
      8          1           0        1.164106   -0.194358    1.002392
 ---------------------------------------------------------------------
 Rotational constants (GHZ):     80.1604004     19.8919152     19.8918022
 Standard basis: 6-31G(d) (6D, 7F)
 There are    21 symmetry adapted cartesian basis functions of AG  symmetry.
 There are    21 symmetry adapted cartesian basis functions of AU  symmetry.
 There are    21 symmetry adapted basis functions of AG  symmetry.
 There are    21 symmetry adapted basis functions of AU  symmetry.
    42 basis functions,    80 primitive gaussians,    42 cartesian basis functions
     9 alpha electrons        9 beta electrons
       nuclear repulsion energy        42.1072619450 Hartrees.
 NAtoms=    8 NActive=    8 NUniq=    4 SFac= 4.00D+00 NAtFMM=   60 NAOKFM=F Big=F
 Integral buffers will be    131072 words long.
 Raffenetti 2 integral format.
 Two-electron integral symmetry is turned on.
 One-electron integrals computed using PRISM.
 NBasis=    42 RedAO= T EigKep=  6.00D-03  NBF=    21    21
 NBsUse=    42 1.00D-06 EigRej= -1.00D+00 NBFU=    21    21
 Initial guess from the checkpoint file:  "ethane_scan_short.chk"
 B after Tr=     0.000000    0.000000    0.000000
         Rot=    1.000000    0.000000   -0.000005   -0.000004 Ang=   0.00 deg.
 Initial guess orbital symmetries:
       Occupied  (AG) (AU) (AG) (AU) (AU) (AU) (AG) (AG) (AG)
       Virtual   (AG) (AG) (AG) (AG) (AG) (AG) (AG) (AG) (AG) (AG)
                 (AG) (AG) (AG) (AG) (AG) (AG) (AU) (AU) (AU) (AU)
                 (AU) (AU) (AU) (AU) (AU) (AU) (AU) (AU) (AU) (AU)
                 (AU) (AU) (AU)
 Keep R1 ints in memory in symmetry-blocked form, NReq=1296204.
 Requested convergence on RMS density matrix=1.00D-08 within 128 cycles.
 Requested convergence on MAX density matrix=1.00D-06.
 Requested convergence on             energy=1.00D-06.
 No special actions if energy rises.
 SCF Done:  E(RB3LYP) =  -79.8304220205     A.U. after    6 cycles
            NFock=  6  Conv=0.36D-08     -V/T= 2.0108
 Calling FoFJK, ICntrl=      2127 FMM=F ISym2X=1 I1Cent= 0 IOpClX= 0 NMat=1 NMatS=1 NMatT=0.
 ***** Axes restored to original set *****
 -------------------------------------------------------------------
 Center     Atomic                   Forces (Hartrees/Bohr)
 Number     Number              X              Y              Z
 -------------------------------------------------------------------
      1        6          -0.000148752   -0.000002447    0.000004376
      2        6           0.000148752    0.000002447   -0.000004376
      3        1          -0.000027189    0.000001650    0.000030200
      4        1          -0.000030569   -0.000027611   -0.000022691
      5        1          -0.000031032    0.000034321   -0.000021101
      6        1           0.000031032   -0.000034321    0.000021101
      7        1           0.000030569    0.000027611    0.000022691
      8        1           0.000027189   -0.000001650   -0.000030200
 -------------------------------------------------------------------
 Cartesian Forces:  Max     0.000148752 RMS     0.000048823

 GradGradGradGradGradGradGradGradGradGradGradGradGradGradGradGradGradGrad
 Berny optimization.
 Using GEDIIS/GDIIS optimizer.
 FormGI is forming the generalized inverse of G from B-inverse, IUseBI=4.
 Internal  Forces:  Max     0.000059962 RMS     0.000030435
 Search for a local minimum.
 Step number   2 out of a maximum of   38 on scan point     1 out of     3
 All quantities printed in internal units (Hartrees-Bohrs-Radians)
 Mixed Optimization -- En-DIIS/RFO-DIIS
 Swapping is turned off.
 Update second derivatives using D2CorX and points    1    2
 DE= -2.54D-05 DEPred=-2.59D-05 R= 9.82D-01
 TightC=F SS=  1.41D+00  RLast= 1.23D-02 DXNew= 5.0454D-01 3.6860D-02
 Trust test= 9.82D-01 RLast= 1.23D-02 DXMaxT set to 3.00D-01
 ITU=  1  0
     Eigenvalues ---    0.00359   0.05457   0.05457   0.05458   0.05458
     Eigenvalues ---    0.16000   0.16000   0.16000   0.16000   0.16000
     Eigenvalues ---    0.16066   0.34405   0.34406   0.34406   0.34406
     Eigenvalues ---    0.34406   0.348081000.000001000.000001000.00000
     Eigenvalues --- 1000.000001000.000001000.000001000.000001000.00000
     Eigenvalues --- 1000.000001000.000001000.00000
 En-DIIS/RFO-DIIS IScMMF=        0 using points:     2    1
 RFO step:  Lambda=-5.28366470D-08.
 DidBck=F Rises=F RFO-DIIS coefs:    0.98459    0.01541
 Iteration  1 RMS(Cart)=  0.00023078 RMS(Int)=  0.00000004
 Iteration  2 RMS(Cart)=  0.00000003 RMS(Int)=  0.00000002
 Iteration  1 RMS(Cart)=  0.00000000 RMS(Int)=  0.00000000
 ClnCor:  largest displacement from symmetrization is 9.78D-09 for atom     8.
 Variable       Old X    -DE/DX   Delta X   Delta X   Delta X     New X
                                 (Linear)    (Quad)   (Total)
    R1        2.89268  -0.00006   0.00000   0.00000   0.00000   2.89268
    R2        2.07151  -0.00002  -0.00008   0.00002  -0.00006   2.07146
    R3        2.07150  -0.00002  -0.00008   0.00003  -0.00005   2.07145
    R4        2.07148  -0.00002  -0.00008   0.00003  -0.00005   2.07143
    R5        2.07148  -0.00002  -0.00008   0.00003  -0.00005   2.07143
    R6        2.07150  -0.00002  -0.00008   0.00003  -0.00005   2.07145
    R7        2.07151  -0.00002  -0.00008   0.00002  -0.00006   2.07146
    A1        1.94319   0.00004   0.00000   0.00022   0.00022   1.94342
    A2        1.94312   0.00004   0.00000   0.00023   0.00024   1.94336
    A3        1.94305   0.00004   0.00001   0.00025   0.00026   1.94331
    A4        1.87707  -0.00004  -0.00001  -0.00025  -0.00026   1.87681
    A5        1.87706  -0.00004  -0.00001  -0.00025  -0.00025   1.87680
    A6        1.87704  -0.00004  -0.00001  -0.00025  -0.00026   1.87678
    A7        1.94305   0.00004   0.00001   0.00025   0.00026   1.94331
    A8        1.94312   0.00004   0.00000   0.00023   0.00024   1.94336
    A9        1.94319   0.00004   0.00000   0.00022   0.00022   1.94342
   A10        1.87704  -0.00004  -0.00001  -0.00025  -0.00026   1.87678
   A11        1.87706  -0.00004  -0.00001  -0.00025  -0.00025   1.87680
   A12        1.87707  -0.00004  -0.00001  -0.00025  -0.00026   1.87681
    D1        1.04719   0.00000   0.00000   0.00000   0.00000   1.04719
    D2       -1.04713   0.00000   0.00000  -0.00001  -0.00001  -1.04714
    D3        3.14159   0.00000   0.00000   0.00000   0.00000   3.14159
    D4       -1.04727   0.00000   0.00000   0.00001   0.00001  -1.04726
    D5        3.14159   0.00000   0.00000   0.00000   0.00000   3.14159
    D6        1.04713   0.00000   0.00000   0.00001   0.00001   1.04714
    D7        3.14159   0.00000   0.00000   0.00000   0.00000   3.14159
    D8        1.04727   0.00000   0.00000  -0.00001  -0.00001   1.04726
    D9       -1.04719   0.00000   0.00000   0.00000   0.00000  -1.04719
         Item               Value     Threshold  Converged?
 Maximum Force            0.000042     0.000450     YES
 RMS     Force            0.000029     0.000300     YES
 Maximum Displacement     0.000461     0.001800     YES
 RMS     Displacement     0.000231     0.001200     YES
 Predicted change in Energy=-6.321889D-08
 Optimization completed.
    -- Stationary point found.
                           ----------------------------
                           !   Optimized Parameters   !
                           ! (Angstroms and Degrees)  !
 --------------------------                            --------------------------
 ! Name  Definition              Value          Derivative Info.                !
 --------------------------------------------------------------------------------
 ! R1    R(1,2)                  1.5307         -DE/DX =   -0.0001              !
 ! R2    R(1,6)                  1.0962         -DE/DX =    0.0                 !
 ! R3    R(1,7)                  1.0962         -DE/DX =    0.0                 !
 ! R4    R(1,8)                  1.0962         -DE/DX =    0.0                 !
 ! R5    R(2,3)                  1.0962         -DE/DX =    0.0                 !
 ! R6    R(2,4)                  1.0962         -DE/DX =    0.0                 !
 ! R7    R(2,5)                  1.0962         -DE/DX =    0.0                 !
 ! A1    A(2,1,6)              111.3367         -DE/DX =    0.0                 !
 ! A2    A(2,1,7)              111.3327         -DE/DX =    0.0                 !
 ! A3    A(2,1,8)              111.3288         -DE/DX =    0.0                 !
 ! A4    A(6,1,7)              107.5481         -DE/DX =    0.0                 !
 ! A5    A(6,1,8)              107.5474         -DE/DX =    0.0                 !
 ! A6    A(7,1,8)              107.5463         -DE/DX =    0.0                 !
 ! A7    A(1,2,3)              111.3288         -DE/DX =    0.0                 !
 ! A8    A(1,2,4)              111.3327         -DE/DX =    0.0                 !
 ! A9    A(1,2,5)              111.3367         -DE/DX =    0.0                 !
 ! A10   A(3,2,4)              107.5463         -DE/DX =    0.0                 !
 ! A11   A(3,2,5)              107.5474         -DE/DX =    0.0                 !
 ! A12   A(4,2,5)              107.5481         -DE/DX =    0.0                 !
 ! D1    D(6,1,2,3)             59.9997         -DE/DX =    0.0                 !
 ! D2    D(6,1,2,4)            -59.9963         -DE/DX =    0.0                 !
 ! D3    D(6,1,2,5)            180.0            -DE/DX =    0.0                 !
 ! D4    D(7,1,2,3)            -60.004          -DE/DX =    0.0                 !
 ! D5    D(7,1,2,4)            180.0            -DE/DX =    0.0                 !
 ! D6    D(7,1,2,5)             59.9963         -DE/DX =    0.0                 !
 ! D7    D(8,1,2,3)            180.0            -DE/DX =    0.0                 !
 ! D8    D(8,1,2,4)             60.004          -DE/DX =    0.0                 !
 ! D9    D(8,1,2,5)            -59.9997         -DE/DX =    0.0                 !
 --------------------------------------------------------------------------------
 Iteration  1 RMS(Cart)=  0.05050506 RMS(Int)=  0.00000001
 Iteration  2 RMS(Cart)=  0.00000001 RMS(Int)=  0.00000000
 Iteration  1 RMS(Cart)=  0.00000000 RMS(Int)=  0.00000000
 GradGradGradGradGradGradGradGradGradGradGradGradGradGradGradGradGradGrad

                          Input orientation:                          
 ---------------------------------------------------------------------
 Center     Atomic      Atomic             Coordinates (Angstroms)
 Number     Number       Type             X           Y           Z
 ---------------------------------------------------------------------
      1          6           0        0.815370    0.000018   -0.000018
      2          6           0       -0.815370   -0.000018    0.000018
      3          1           0       -1.214350    0.194338   -1.002276
      4          1           0       -1.214382    0.770843    0.669449
      5          1           0       -1.214408   -0.965198    0.332852
      6          1           0        1.214408    0.965198   -0.332852
      7          1           0        1.214382   -0.770843   -0.669449
      8          1           0        1.214350   -0.194338    1.002276
 ---------------------------------------------------------------------
                    Distance matrix (angstroms):
                    1          2          3          4          5
     1  C    0.000000
     2  C    1.630740   0.000000
     3  H    2.272013   1.096154   0.000000
     4  H    2.272059   1.096164   1.768340   0.000000
     5  H    2.272101   1.096168   1.768358   1.768371   0.000000
     6  H    1.096168   2.272101   2.634620   2.634654   3.173128
     7  H    1.096164   2.272059   2.634593   3.173064   2.634654
     8  H    1.096154   2.272013   3.172992   2.634593   2.634620
                    6          7          8
     6  H    0.000000
     7  H    1.768371   0.000000
     8  H    1.768358   1.768340   0.000000
 Stoichiometry    C2H6
 Framework group  CI[X(C2H6)]
 Deg. of freedom     9
 Full point group                 CI      NOp   2
 Largest Abelian subgroup         CI      NOp   2
 Largest concise Abelian subgroup CI      NOp   2
                         Standard orientation:                         
 ---------------------------------------------------------------------
 Center     Atomic      Atomic             Coordinates (Angstroms)
 Number     Number       Type             X           Y           Z
 ---------------------------------------------------------------------
      1          6           0        0.815370    0.000018   -0.000018
      2          6           0       -0.815370   -0.000018    0.000018
      3          1           0       -1.214350    0.194338   -1.002276
      4          1           0       -1.214382    0.770843    0.669449
      5          1           0       -1.214408   -0.965198    0.332852
      6          1           0        1.214408    0.965198   -0.332852
      7          1           0        1.214382   -0.770843   -0.669449
      8          1           0        1.214350   -0.194338    1.002276
 ---------------------------------------------------------------------
 Rotational constants (GHZ):     80.1793280     18.0332032     18.0331192
 Standard basis: 6-31G(d) (6D, 7F)
 There are    21 symmetry adapted cartesian basis functions of AG  symmetry.
 There are    21 symmetry adapted cartesian basis functions of AU  symmetry.
 There are    21 symmetry adapted basis functions of AG  symmetry.
 There are    21 symmetry adapted basis functions of AU  symmetry.
    42 basis functions,    80 primitive gaussians,    42 cartesian basis functions
     9 alpha electrons        9 beta electrons
       nuclear repulsion energy        40.9467862049 Hartrees.
 NAtoms=    8 NActive=    8 NUniq=    4 SFac= 4.00D+00 NAtFMM=   60 NAOKFM=F Big=F
 Integral buffers will be    131072 words long.
 Raffenetti 2 integral format.
 Two-electron integral symmetry is turned on.
 One-electron integrals computed using PRISM.
 NBasis=    42 RedAO= T EigKep=  7.26D-03  NBF=    21    21
 NBsUse=    42 1.00D-06 EigRej= -1.00D+00 NBFU=    21    21
 Initial guess from the checkpoint file:  "ethane_scan_short.chk"
 B after Tr=     0.000000    0.000000    0.000000
         Rot=    1.000000    0.000000    0.000001    0.000001 Ang=   0.00 deg.
 Initial guess orbital symmetries:
       Occupied  (AG) (AU) (AG) (AU) (AU) (AU) (AG) (AG) (AG)
       Virtual   (AG) (AG) (AG) (AG) (AG) (AG) (AG) (AG) (AG) (AG)
                 (AG) (AG) (AG) (AG) (AG) (AG) (AU) (AU) (AU) (AU)
                 (AU) (AU) (AU) (AU) (AU) (AU) (AU) (AU) (AU) (AU)
                 (AU) (AU) (AU)
 ExpMin= 1.61D-01 ExpMax= 3.05D+03 ExpMxC= 4.57D+02 IAcc=1 IRadAn=         1 AccDes= 0.00D+00
 Harris functional with IExCor=  402 and IRadAn=       1 diagonalized for initial guess.
 HarFok:  IExCor=  402 AccDes= 0.00D+00 IRadAn=         1 IDoV= 1 UseB2=F ITyADJ=14
 ICtDFT=  3500011 ScaDFX=  1.000000  1.000000  1.000000  1.000000
 FoFCou: FMM=F IPFlag=           0 FMFlag=      100000 FMFlg1=           0
         NFxFlg=           0 DoJE=T BraDBF=F KetDBF=T FulRan=T
         wScrn=  0.000000 ICntrl=     500 IOpCl=  0 I1Cent=   200000004 NGrid=           0
         NMat0=    1 NMatS0=      1 NMatT0=    0 NMatD0=    1 NMtDS0=    0 NMtDT0=    0
 Petite list used in FoFCou.
 Keep R1 ints in memory in symmetry-blocked form, NReq=1296204.
 Requested convergence on RMS density matrix=1.00D-08 within 128 cycles.
 Requested convergence on MAX density matrix=1.00D-06.
 Requested convergence on             energy=1.00D-06.
 No special actions if energy rises.
 Integral accuracy reduced to 1.0D-05 until final iterations.
 Initial convergence to 1.0D-05 achieved.  Increase integral accuracy.
 SCF Done:  E(RB3LYP) =  -79.8259977458     A.U. after    9 cycles
            NFock=  9  Conv=0.95D-08     -V/T= 2.0126
 Calling FoFJK, ICntrl=      2127 FMM=F ISym2X=1 I1Cent= 0 IOpClX= 0 NMat=1 NMatS=1 NMatT=0.
 ***** Axes restored to original set *****
 -------------------------------------------------------------------
 Center     Atomic                   Forces (Hartrees/Bohr)
 Number     Number              X              Y              Z
 -------------------------------------------------------------------
      1        6          -0.034175652   -0.000000603    0.000000016
      2        6           0.034175652    0.000000603   -0.000000016
      3        1           0.002940932    0.000031887   -0.000145138
      4        1           0.002940609    0.000106527    0.000093916
      5        1           0.002937333   -0.000133818    0.000037562
      6        1          -0.002937333    0.000133818   -0.000037562
      7        1          -0.002940609   -0.000106527   -0.000093916
      8        1          -0.002940932   -0.000031887    0.000145138
 -------------------------------------------------------------------
 Cartesian Forces:  Max     0.034175652 RMS     0.009974806

 GradGradGradGradGradGradGradGradGradGradGradGradGradGradGradGradGradGrad
 Berny optimization.
 FormGI is forming the generalized inverse of G from B-inverse, IUseBI=4.
 Internal  Forces:  Max     0.042994527 RMS     0.008339970
 Search for a local minimum.
 Step number   1 out of a maximum of   38 on scan point     2 out of     3
 All quantities printed in internal units (Hartrees-Bohrs-Radians)
 Mixed Optimization -- RFO/linear search
 Second derivative matrix not updated -- first step.
 ITU=  0
     Eigenvalues ---    0.00359   0.05455   0.05455   0.05456   0.05456
     Eigenvalues ---    0.16000   0.16000   0.16000   0.16000   0.16000
     Eigenvalues ---    0.16066   0.34405   0.34406   0.34406   0.34406
     Eigenvalues ---    0.34406   0.348081000.000001000.000001000.00000
     Eigenvalues --- 1000.000001000.000001000.000001000.000001000.00000
     Eigenvalues --- 1000.000001000.000001000.00000
 RFO step:  Lambda=-6.04299841D-04 EMin= 3.59316169D-03
 Linear search not attempted -- first point.
 Iteration  1 RMS(Cart)=  0.01624848 RMS(Int)=  0.00018057
 Iteration  2 RMS(Cart)=  0.00017472 RMS(Int)=  0.00009069
 Iteration  3 RMS(Cart)=  0.00000002 RMS(Int)=  0.00009069
 Iteration  1 RMS(Cart)=  0.00000000 RMS(Int)=  0.00000000
 ClnCor:  largest displacement from symmetrization is 9.16D-09 for atom     6.
 Variable       Old X    -DE/DX   Delta X   Delta X   Delta X     New X
                                 (Linear)    (Quad)   (Total)
    R1        3.08165  -0.04299   0.00000   0.00000   0.00000   3.08165
    R2        2.07146  -0.00094   0.00000  -0.00350  -0.00350   2.06796
    R3        2.07145  -0.00094   0.00000  -0.00350  -0.00350   2.06795
    R4        2.07143  -0.00093   0.00000  -0.00348  -0.00348   2.06795
    R5        2.07143  -0.00093   0.00000  -0.00348  -0.00348   2.06795
    R6        2.07145  -0.00094   0.00000  -0.00350  -0.00350   2.06795
    R7        2.07146  -0.00094   0.00000  -0.00350  -0.00350   2.06796
    A1        1.94342  -0.00270   0.00000  -0.01686  -0.01700   1.92641
    A2        1.94336  -0.00271   0.00000  -0.01687  -0.01701   1.92635
    A3        1.94331  -0.00270   0.00000  -0.01685  -0.01699   1.92632
    A4        1.87681   0.00288   0.00000   0.01799   0.01785   1.89466
    A5        1.87680   0.00288   0.00000   0.01797   0.01783   1.89464
    A6        1.87678   0.00288   0.00000   0.01800   0.01786   1.89464
    A7        1.94331  -0.00270   0.00000  -0.01685  -0.01699   1.92632
    A8        1.94336  -0.00271   0.00000  -0.01687  -0.01701   1.92635
    A9        1.94342  -0.00270   0.00000  -0.01686  -0.01700   1.92641
   A10        1.87678   0.00288   0.00000   0.01800   0.01786   1.89464
   A11        1.87680   0.00288   0.00000   0.01797   0.01783   1.89464
   A12        1.87681   0.00288   0.00000   0.01799   0.01785   1.89466
    D1        1.04719   0.00000   0.00000   0.00001   0.00001   1.04720
    D2       -1.04714   0.00000   0.00000   0.00000   0.00000  -1.04715
    D3        3.14159   0.00000   0.00000   0.00000   0.00000   3.14159
    D4       -1.04726   0.00000   0.00000   0.00002   0.00002  -1.04724
    D5        3.14159   0.00000   0.00000   0.00000   0.00000   3.14159
    D6        1.04714   0.00000   0.00000   0.00000   0.00000   1.04715
    D7        3.14159   0.00000   0.00000   0.00000   0.00000  -3.14159
    D8        1.04726   0.00000   0.00000  -0.00002  -0.00002   1.04724
    D9       -1.04719   0.00000   0.00000  -0.00001  -0.00001  -1.04720
         Item               Value     Threshold  Converged?
 Maximum Force            0.002885     0.000450     NO 
 RMS     Force            0.001915     0.000300     NO 
 Maximum Displacement     0.034146     0.001800     NO 
 RMS     Displacement     0.016369     0.001200     NO 
 Predicted change in Energy=-3.032593D-04
 GradGradGradGradGradGradGradGradGradGradGradGradGradGradGradGradGradGrad

                          Input orientation:                          
 ---------------------------------------------------------------------
 Center     Atomic      Atomic             Coordinates (Angstroms)
 Number     Number       Type             X           Y           Z
 ---------------------------------------------------------------------
      1          6           0        0.815370    0.000017   -0.000015
      2          6           0       -0.815370   -0.000017    0.000015
      3          1           0       -1.196301    0.195263   -1.007096
      4          1           0       -1.196313    0.774545    0.672667
      5          1           0       -1.196352   -0.969832    0.334442
      6          1           0        1.196352    0.969832   -0.334442
      7          1           0        1.196313   -0.774545   -0.672667
      8          1           0        1.196301   -0.195263    1.007096
 ---------------------------------------------------------------------
                    Distance matrix (angstroms):
                    1          2          3          4          5
     1  C    0.000000
     2  C    1.630740   0.000000
     3  H    2.258130   1.094311   0.000000
     4  H    2.258154   1.094314   1.776843   0.000000
     5  H    2.258206   1.094317   1.776843   1.776864   0.000000
     6  H    1.094317   2.258206   2.603307   2.603315   3.151941
     7  H    1.094314   2.258154   2.603261   3.151865   2.603315
     8  H    1.094311   2.258130   3.151828   2.603261   2.603307
                    6          7          8
     6  H    0.000000
     7  H    1.776864   0.000000
     8  H    1.776843   1.776843   0.000000
 Stoichiometry    C2H6
 Framework group  CI[X(C2H6)]
 Deg. of freedom     9
 Full point group                 CI      NOp   2
 Largest Abelian subgroup         CI      NOp   2
 Largest concise Abelian subgroup CI      NOp   2
                         Standard orientation:                         
 ---------------------------------------------------------------------
 Center     Atomic      Atomic             Coordinates (Angstroms)
 Number     Number       Type             X           Y           Z
 ---------------------------------------------------------------------
      1          6           0        0.815370    0.000017   -0.000015
      2          6           0       -0.815370   -0.000017    0.000015
      3          1           0       -1.196301    0.195263   -1.007096
      4          1           0       -1.196313    0.774545    0.672667
      5          1           0       -1.196352   -0.969832    0.334442
      6          1           0        1.196352    0.969832   -0.334442
      7          1           0        1.196313   -0.774545   -0.672667
      8          1           0        1.196301   -0.195263    1.007096
 ---------------------------------------------------------------------
 Rotational constants (GHZ):     79.4146435     18.1843098     18.1842452
 Standard basis: 6-31G(d) (6D, 7F)
 There are    21 symmetry adapted cartesian basis functions of AG  symmetry.
 There are    21 symmetry adapted cartesian basis functions of AU  symmetry.
 There are    21 symmetry adapted basis functions of AG  symmetry.
 There are    21 symmetry adapted basis functions of AU  symmetry.
    42 basis functions,    80 primitive gaussians,    42 cartesian basis functions
     9 alpha electrons        9 beta electrons
       nuclear repulsion energy        41.0370062550 Hartrees.
 NAtoms=    8 NActive=    8 NUniq=    4 SFac= 4.00D+00 NAtFMM=   60 NAOKFM=F Big=F
 Integral buffers will be    131072 words long.
 Raffenetti 2 integral format.
 Two-electron integral symmetry is turned on.
 One-electron integrals computed using PRISM.
 NBasis=    42 RedAO= T EigKep=  7.09D-03  NBF=    21    21
 NBsUse=    42 1.00D-06 EigRej= -1.00D+00 NBFU=    21    21
 Initial guess from the checkpoint file:  "ethane_scan_short.chk"
 B after Tr=     0.000000    0.000000    0.000000
         Rot=    1.000000    0.000000    0.000001    0.000000 Ang=   0.00 deg.
 Initial guess orbital symmetries:
       Occupied  (AG) (AU) (AG) (AU) (AU) (AU) (AG) (AG) (AG)
       Virtual   (AG) (AG) (AG) (AG) (AG) (AG) (AG) (AG) (AG) (AG)
                 (AG) (AG) (AG) (AG) (AG) (AG) (AU) (AU) (AU) (AU)
                 (AU) (AU) (AU) (AU) (AU) (AU) (AU) (AU) (AU) (AU)
                 (AU) (AU) (AU)
 ExpMin= 1.61D-01 ExpMax= 3.05D+03 ExpMxC= 4.57D+02 IAcc=1 IRadAn=         1 AccDes= 0.00D+00
 Harris functional with IExCor=  402 and IRadAn=       1 diagonalized for initial guess.
 HarFok:  IExCor=  402 AccDes= 0.00D+00 IRadAn=         1 IDoV= 1 UseB2=F ITyADJ=14
 ICtDFT=  3500011 ScaDFX=  1.000000  1.000000  1.000000  1.000000
 FoFCou: FMM=F IPFlag=           0 FMFlag=      100000 FMFlg1=           0
         NFxFlg=           0 DoJE=T BraDBF=F KetDBF=T FulRan=T
         wScrn=  0.000000 ICntrl=     500 IOpCl=  0 I1Cent=   200000004 NGrid=           0
         NMat0=    1 NMatS0=      1 NMatT0=    0 NMatD0=    1 NMtDS0=    0 NMtDT0=    0
 Petite list used in FoFCou.
 Keep R1 ints in memory in symmetry-blocked form, NReq=1296204.
 Requested convergence on RMS density matrix=1.00D-08 within 128 cycles.
 Requested convergence on MAX density matrix=1.00D-06.
 Requested convergence on             energy=1.00D-06.
 No special actions if energy rises.
 Integral accuracy reduced to 1.0D-05 until final iterations.
 Initial convergence to 1.0D-05 achieved.  Increase integral accuracy.
 SCF Done:  E(RB3LYP) =  -79.8263481574     A.U. after    8 cycles
            NFock=  8  Conv=0.87D-08     -V/T= 2.0123
 Calling FoFJK, ICntrl=      2127 FMM=F ISym2X=1 I1Cent= 0 IOpClX= 0 NMat=1 NMatS=1 NMatT=0.
 ***** Axes restored to original set *****
 -------------------------------------------------------------------
 Center     Atomic                   Forces (Hartrees/Bohr)
 Number     Number              X              Y              Z
 -------------------------------------------------------------------
      1        6          -0.038624985   -0.000001922    0.000002242
      2        6           0.038624985    0.000001922   -0.000002242
      3        1           0.000434618    0.000020051   -0.000080955
      4        1           0.000431538    0.000059644    0.000052420
      5        1           0.000430279   -0.000076346    0.000018768
      6        1          -0.000430279    0.000076346   -0.000018768
      7        1          -0.000431538   -0.000059644   -0.000052420
      8        1          -0.000434618   -0.000020051    0.000080955
 -------------------------------------------------------------------
 Cartesian Forces:  Max     0.038624985 RMS     0.011152239

 GradGradGradGradGradGradGradGradGradGradGradGradGradGradGradGradGradGrad
 Berny optimization.
 Using GEDIIS/GDIIS optimizer.
 FormGI is forming the generalized inverse of G from B-inverse, IUseBI=4.
 Internal  Forces:  Max     0.039921420 RMS     0.007550029
 Search for a local minimum.
 Step number   2 out of a maximum of   38 on scan point     2 out of     3
 All quantities printed in internal units (Hartrees-Bohrs-Radians)
 Mixed Optimization -- En-DIIS/RFO-DIIS
 Update second derivatives using D2CorX and points    1    2
 DE= -3.50D-04 DEPred=-3.03D-04 R= 1.16D+00
 TightC=F SS=  1.41D+00  RLast= 6.10D-02 DXNew= 5.0454D-01 1.8295D-01
 Trust test= 1.16D+00 RLast= 6.10D-02 DXMaxT set to 3.00D-01
 ITU=  1  0
 Use linear search instead of GDIIS.
     Eigenvalues ---    0.00359   0.05634   0.05634   0.05634   0.05634
     Eigenvalues ---    0.13611   0.16000   0.16000   0.16000   0.16000
     Eigenvalues ---    0.16000   0.34405   0.34406   0.34406   0.34406
     Eigenvalues ---    0.34406   0.348381000.000001000.000001000.00000
     Eigenvalues --- 1000.000001000.000001000.000001000.000001000.00000
     Eigenvalues --- 1000.000001000.000001000.00000
 RFO step:  Lambda=-1.18513637D-07 EMin= 3.59316169D-03
 Quartic linear search produced a step of  0.17996.
 Iteration  1 RMS(Cart)=  0.00300011 RMS(Int)=  0.00002080
 Iteration  2 RMS(Cart)=  0.00000626 RMS(Int)=  0.00002007
 Iteration  3 RMS(Cart)=  0.00000000 RMS(Int)=  0.00002007
 Iteration  1 RMS(Cart)=  0.00000000 RMS(Int)=  0.00000000
 ClnCor:  largest displacement from symmetrization is 2.70D-09 for atom     8.
 Variable       Old X    -DE/DX   Delta X   Delta X   Delta X     New X
                                 (Linear)    (Quad)   (Total)
    R1        3.08165  -0.03992   0.00000   0.00000   0.00000   3.08165
    R2        2.06796  -0.00008  -0.00063   0.00023  -0.00040   2.06756
    R3        2.06795  -0.00008  -0.00063   0.00023  -0.00040   2.06756
    R4        2.06795  -0.00008  -0.00063   0.00023  -0.00040   2.06755
    R5        2.06795  -0.00008  -0.00063   0.00023  -0.00040   2.06755
    R6        2.06795  -0.00008  -0.00063   0.00023  -0.00040   2.06756
    R7        2.06796  -0.00008  -0.00063   0.00023  -0.00040   2.06756
    A1        1.92641  -0.00043  -0.00306  -0.00004  -0.00313   1.92328
    A2        1.92635  -0.00043  -0.00306  -0.00004  -0.00313   1.92321
    A3        1.92632  -0.00043  -0.00306  -0.00004  -0.00313   1.92319
    A4        1.89466   0.00045   0.00321   0.00005   0.00323   1.89790
    A5        1.89464   0.00045   0.00321   0.00004   0.00322   1.89786
    A6        1.89464   0.00045   0.00321   0.00004   0.00323   1.89787
    A7        1.92632  -0.00043  -0.00306  -0.00004  -0.00313   1.92319
    A8        1.92635  -0.00043  -0.00306  -0.00004  -0.00313   1.92321
    A9        1.92641  -0.00043  -0.00306  -0.00004  -0.00313   1.92328
   A10        1.89464   0.00045   0.00321   0.00004   0.00323   1.89787
   A11        1.89464   0.00045   0.00321   0.00004   0.00322   1.89786
   A12        1.89466   0.00045   0.00321   0.00005   0.00323   1.89790
    D1        1.04720   0.00000   0.00000   0.00000   0.00001   1.04721
    D2       -1.04715   0.00000   0.00000   0.00001   0.00001  -1.04714
    D3        3.14159   0.00000   0.00000   0.00000   0.00000   3.14159
    D4       -1.04724   0.00000   0.00000   0.00000   0.00000  -1.04724
    D5        3.14159   0.00000   0.00000   0.00000   0.00000   3.14159
    D6        1.04715   0.00000   0.00000  -0.00001  -0.00001   1.04714
    D7        3.14159   0.00000   0.00000   0.00000   0.00000   3.14159
    D8        1.04724   0.00000   0.00000   0.00000   0.00000   1.04724
    D9       -1.04720   0.00000   0.00000   0.00000  -0.00001  -1.04721
         Item               Value     Threshold  Converged?
 Maximum Force            0.000448     0.000450     YES
 RMS     Force            0.000296     0.000300     YES
 Maximum Displacement     0.006218     0.001800     NO 
 RMS     Displacement     0.003005     0.001200     NO 
 Predicted change in Energy=-8.661189D-06
 GradGradGradGradGradGradGradGradGradGradGradGradGradGradGradGradGradGrad

                          Input orientation:                          
 ---------------------------------------------------------------------
 Center     Atomic      Atomic             Coordinates (Angstroms)
 Number     Number       Type             X           Y           Z
 ---------------------------------------------------------------------
      1          6           0        0.815370    0.000016   -0.000015
      2          6           0       -0.815370   -0.000016    0.000015
      3          1           0       -1.193015    0.195450   -1.008069
      4          1           0       -1.193022    0.775296    0.673316
      5          1           0       -1.193063   -0.970770    0.334762
      6          1           0        1.193063    0.970770   -0.334762
      7          1           0        1.193022   -0.775296   -0.673316
      8          1           0        1.193015   -0.195450    1.008069
 ---------------------------------------------------------------------
                    Distance matrix (angstroms):
                    1          2          3          4          5
     1  C    0.000000
     2  C    1.630740   0.000000
     3  H    2.255655   1.094101   0.000000
     4  H    2.255676   1.094104   1.778561   0.000000
     5  H    2.255727   1.094107   1.778557   1.778586   0.000000
     6  H    1.094107   2.255727   2.597659   2.597659   3.148243
     7  H    1.094104   2.255676   2.597611   3.148168   2.597659
     8  H    1.094101   2.255655   3.148136   2.597611   2.597659
                    6          7          8
     6  H    0.000000
     7  H    1.778586   0.000000
     8  H    1.778557   1.778561   0.000000
 Stoichiometry    C2H6
 Framework group  CI[X(C2H6)]
 Deg. of freedom     9
 Full point group                 CI      NOp   2
 Largest Abelian subgroup         CI      NOp   2
 Largest concise Abelian subgroup CI      NOp   2
                         Standard orientation:                         
 ---------------------------------------------------------------------
 Center     Atomic      Atomic             Coordinates (Angstroms)
 Number     Number       Type             X           Y           Z
 ---------------------------------------------------------------------
      1          6           0        0.815370    0.000016   -0.000015
      2          6           0       -0.815370   -0.000016    0.000015
      3          1           0       -1.193015    0.195450   -1.008069
      4          1           0       -1.193022    0.775296    0.673316
      5          1           0       -1.193063   -0.970770    0.334762
      6          1           0        1.193063    0.970770   -0.334762
      7          1           0        1.193022   -0.775296   -0.673316
      8          1           0        1.193015   -0.195450    1.008069
 ---------------------------------------------------------------------
 Rotational constants (GHZ):     79.2612965     18.2114179     18.2113336
 Standard basis: 6-31G(d) (6D, 7F)
 There are    21 symmetry adapted cartesian basis functions of AG  symmetry.
 There are    21 symmetry adapted cartesian basis functions of AU  symmetry.
 There are    21 symmetry adapted basis functions of AG  symmetry.
 There are    21 symmetry adapted basis functions of AU  symmetry.
    42 basis functions,    80 primitive gaussians,    42 cartesian basis functions
     9 alpha electrons        9 beta electrons
       nuclear repulsion energy        41.0511240400 Hartrees.
 NAtoms=    8 NActive=    8 NUniq=    4 SFac= 4.00D+00 NAtFMM=   60 NAOKFM=F Big=F
 Integral buffers will be    131072 words long.
 Raffenetti 2 integral format.
 Two-electron integral symmetry is turned on.
 One-electron integrals computed using PRISM.
 NBasis=    42 RedAO= T EigKep=  7.06D-03  NBF=    21    21
 NBsUse=    42 1.00D-06 EigRej= -1.00D+00 NBFU=    21    21
 Initial guess from the checkpoint file:  "ethane_scan_short.chk"
 B after Tr=     0.000000    0.000000    0.000000
         Rot=    1.000000    0.000000    0.000000    0.000000 Ang=   0.00 deg.
 Initial guess orbital symmetries:
       Occupied  (AG) (AU) (AG) (AU) (AU) (AU) (AG) (AG) (AG)
       Virtual   (AG) (AG) (AG) (AG) (AG) (AG) (AG) (AG) (AG) (AG)
                 (AG) (AG) (AG) (AG) (AG) (AG) (AU) (AU) (AU) (AU)
                 (AU) (AU) (AU) (AU) (AU) (AU) (AU) (AU) (AU) (AU)
                 (AU) (AU) (AU)
 Keep R1 ints in memory in symmetry-blocked form, NReq=1296204.
 Requested convergence on RMS density matrix=1.00D-08 within 128 cycles.
 Requested convergence on MAX density matrix=1.00D-06.
 Requested convergence on             energy=1.00D-06.
 No special actions if energy rises.
 SCF Done:  E(RB3LYP) =  -79.8263566554     A.U. after    6 cycles
            NFock=  6  Conv=0.32D-08     -V/T= 2.0123
 Calling FoFJK, ICntrl=      2127 FMM=F ISym2X=1 I1Cent= 0 IOpClX= 0 NMat=1 NMatS=1 NMatT=0.
 ***** Axes restored to original set *****
 -------------------------------------------------------------------
 Center     Atomic                   Forces (Hartrees/Bohr)
 Number     Number              X              Y              Z
 -------------------------------------------------------------------
      1        6          -0.039348396   -0.000001637    0.000002376
      2        6           0.039348396    0.000001637   -0.000002376
      3        1           0.000002520    0.000004895   -0.000001969
      4        1          -0.000001025   -0.000001676   -0.000000342
      5        1          -0.000001962    0.000000213   -0.000006846
      6        1           0.000001962   -0.000000213    0.000006846
      7        1           0.000001025    0.000001676    0.000000342
      8        1          -0.000002520   -0.000004895    0.000001969
 -------------------------------------------------------------------
 Cartesian Forces:  Max     0.039348396 RMS     0.011358904

 GradGradGradGradGradGradGradGradGradGradGradGradGradGradGradGradGradGrad
 Berny optimization.
 Using GEDIIS/GDIIS optimizer.
 FormGI is forming the generalized inverse of G from B-inverse, IUseBI=4.
 Internal  Forces:  Max     0.039347930 RMS     0.007436060
 Search for a local minimum.
 Step number   3 out of a maximum of   38 on scan point     2 out of     3
 All quantities printed in internal units (Hartrees-Bohrs-Radians)
 Mixed Optimization -- En-DIIS/RFO-DIIS
 Swapping is turned off.
 Update second derivatives using D2CorX and points    1    2    3
 DE= -8.50D-06 DEPred=-8.66D-06 R= 9.81D-01
 TightC=F SS=  1.41D+00  RLast= 1.11D-02 DXNew= 5.0454D-01 3.3172D-02
 Trust test= 9.81D-01 RLast= 1.11D-02 DXMaxT set to 3.00D-01
 ITU=  1  1  0
     Eigenvalues ---    0.00359   0.05667   0.05667   0.05667   0.05667
     Eigenvalues ---    0.13893   0.16000   0.16000   0.16000   0.16000
     Eigenvalues ---    0.16000   0.34405   0.34406   0.34406   0.34406
     Eigenvalues ---    0.34406   0.348381000.000001000.000001000.00000
     Eigenvalues --- 1000.000001000.000001000.000001000.000001000.00000
     Eigenvalues --- 1000.000001000.000001000.00000
 En-DIIS/RFO-DIIS IScMMF=        0 using points:     3    2
 RFO step:  Lambda=-4.89602717D-05.
 DidBck=F Rises=F RFO-DIIS coefs:    1.00075   -0.00075
 Iteration  1 RMS(Cart)=  0.00000185 RMS(Int)=  0.00000000
 Iteration  2 RMS(Cart)=  0.00000000 RMS(Int)=  0.00000000
 Iteration  1 RMS(Cart)=  0.00000000 RMS(Int)=  0.00000000
 ClnCor:  largest displacement from symmetrization is 9.07D-09 for atom     6.
 Variable       Old X    -DE/DX   Delta X   Delta X   Delta X     New X
                                 (Linear)    (Quad)   (Total)
    R1        3.08165  -0.03935   0.00000   0.00000   0.00000   3.08165
    R2        2.06756   0.00000   0.00000   0.00000   0.00000   2.06756
    R3        2.06756   0.00000   0.00000   0.00000   0.00000   2.06756
    R4        2.06755   0.00000   0.00000   0.00000   0.00000   2.06755
    R5        2.06755   0.00000   0.00000   0.00000   0.00000   2.06755
    R6        2.06756   0.00000   0.00000   0.00000   0.00000   2.06756
    R7        2.06756   0.00000   0.00000   0.00000   0.00000   2.06756
    A1        1.92328   0.00000   0.00000   0.00000   0.00000   1.92328
    A2        1.92321   0.00000   0.00000   0.00000   0.00000   1.92322
    A3        1.92319   0.00000   0.00000   0.00000   0.00000   1.92319
    A4        1.89790   0.00000   0.00000   0.00000   0.00000   1.89790
    A5        1.89786   0.00000   0.00000  -0.00001   0.00000   1.89785
    A6        1.89787   0.00000   0.00000   0.00000   0.00000   1.89786
    A7        1.92319   0.00000   0.00000   0.00000   0.00000   1.92319
    A8        1.92321   0.00000   0.00000   0.00000   0.00000   1.92322
    A9        1.92328   0.00000   0.00000   0.00000   0.00000   1.92328
   A10        1.89787   0.00000   0.00000   0.00000   0.00000   1.89786
   A11        1.89786   0.00000   0.00000  -0.00001   0.00000   1.89785
   A12        1.89790   0.00000   0.00000   0.00000   0.00000   1.89790
    D1        1.04721   0.00000   0.00000   0.00000   0.00000   1.04721
    D2       -1.04714   0.00000   0.00000   0.00000   0.00000  -1.04714
    D3        3.14159   0.00000   0.00000   0.00000   0.00000   3.14159
    D4       -1.04724   0.00000   0.00000   0.00000   0.00000  -1.04724
    D5        3.14159   0.00000   0.00000   0.00000   0.00000   3.14159
    D6        1.04714   0.00000   0.00000   0.00000   0.00000   1.04714
    D7        3.14159   0.00000   0.00000   0.00000   0.00000   3.14159
    D8        1.04724   0.00000   0.00000   0.00000   0.00000   1.04724
    D9       -1.04721   0.00000   0.00000   0.00000   0.00000  -1.04721
         Item               Value     Threshold  Converged?
 Maximum Force            0.000000     0.000450     YES
 RMS     Force            0.000000     0.000300     YES
 Maximum Displacement     0.000004     0.001800     YES
 RMS     Displacement     0.000002     0.001200     YES
 Predicted change in Energy=-3.998783D-12
 Optimization completed.
    -- Stationary point found.
                           ----------------------------
                           !   Optimized Parameters   !
                           ! (Angstroms and Degrees)  !
 --------------------------                            --------------------------
 ! Name  Definition              Value          Derivative Info.                !
 --------------------------------------------------------------------------------
 ! R1    R(1,2)                  1.6307         -DE/DX =   -0.0393              !
 ! R2    R(1,6)                  1.0941         -DE/DX =    0.0                 !
 ! R3    R(1,7)                  1.0941         -DE/DX =    0.0                 !
 ! R4    R(1,8)                  1.0941         -DE/DX =    0.0                 !
 ! R5    R(2,3)                  1.0941         -DE/DX =    0.0                 !
 ! R6    R(2,4)                  1.0941         -DE/DX =    0.0                 !
 ! R7    R(2,5)                  1.0941         -DE/DX =    0.0                 !
 ! A1    A(2,1,6)              110.1958         -DE/DX =    0.0                 !
 ! A2    A(2,1,7)              110.192          -DE/DX =    0.0                 !
 ! A3    A(2,1,8)              110.1906         -DE/DX =    0.0                 !
 ! A4    A(6,1,7)              108.7415         -DE/DX =    0.0                 !
 ! A5    A(6,1,8)              108.7391         -DE/DX =    0.0                 !
 ! A6    A(7,1,8)              108.7397         -DE/DX =    0.0                 !
 ! A7    A(1,2,3)              110.1906         -DE/DX =    0.0                 !
 ! A8    A(1,2,4)              110.192          -DE/DX =    0.0                 !
 ! A9    A(1,2,5)              110.1958         -DE/DX =    0.0                 !
 ! A10   A(3,2,4)              108.7397         -DE/DX =    0.0                 !
 ! A11   A(3,2,5)              108.7391         -DE/DX =    0.0                 !
 ! A12   A(4,2,5)              108.7415         -DE/DX =    0.0                 !
 ! D1    D(6,1,2,3)             60.0007         -DE/DX =    0.0                 !
 ! D2    D(6,1,2,4)            -59.9969         -DE/DX =    0.0                 !
 ! D3    D(6,1,2,5)            180.0            -DE/DX =    0.0                 !
 ! D4    D(7,1,2,3)            -60.0024         -DE/DX =    0.0                 !
 ! D5    D(7,1,2,4)            180.0            -DE/DX =    0.0                 !
 ! D6    D(7,1,2,5)             59.9969         -DE/DX =    0.0                 !
 ! D7    D(8,1,2,3)            180.0            -DE/DX =    0.0                 !
 ! D8    D(8,1,2,4)             60.0024         -DE/DX =    0.0                 !
 ! D9    D(8,1,2,5)            -60.0007         -DE/DX =    0.0                 !
 --------------------------------------------------------------------------------
 Iteration  1 RMS(Cart)=  0.05050506 RMS(Int)=  0.00000001
 Iteration  2 RMS(Cart)=  0.00000001 RMS(Int)=  0.00000000
 Iteration  1 RMS(Cart)=  0.00000000 RMS(Int)=  0.00000000
 GradGradGradGradGradGradGradGradGradGradGradGradGradGradGradGradGradGrad

                          Input orientation:                          
 ---------------------------------------------------------------------
 Center     Atomic      Atomic             Coordinates (Angstroms)
 Number     Number       Type             X           Y           Z
 ---------------------------------------------------------------------
      1          6           0        0.865370    0.000017   -0.000016
      2          6           0       -0.865370   -0.000017    0.000016
      3          1           0       -1.243017    0.195449   -1.008068
      4          1           0       -1.243024    0.775295    0.673316
      5          1           0       -1.243065   -0.970770    0.334762
      6          1           0        1.243065    0.970770   -0.334762
      7          1           0        1.243024   -0.775295   -0.673316
      8          1           0        1.243017   -0.195449    1.008068
 ---------------------------------------------------------------------
                    Distance matrix (angstroms):
                    1          2          3          4          5
     1  C    0.000000
     2  C    1.730740   0.000000
     3  H    2.345134   1.094101   0.000000
     4  H    2.345156   1.094104   1.778559   0.000000
     5  H    2.345208   1.094107   1.778555   1.778584   0.000000
     6  H    1.094107   2.345208   2.689808   2.689808   3.224699
     7  H    1.094104   2.345156   2.689758   3.224621   2.689808
     8  H    1.094101   2.345134   3.224587   2.689758   2.689808
                    6          7          8
     6  H    0.000000
     7  H    1.778584   0.000000
     8  H    1.778555   1.778559   0.000000
 Stoichiometry    C2H6
 Framework group  CI[X(C2H6)]
 Deg. of freedom     9
 Full point group                 CI      NOp   2
 Largest Abelian subgroup         CI      NOp   2
 Largest concise Abelian subgroup CI      NOp   2
                         Standard orientation:                         
 ---------------------------------------------------------------------
 Center     Atomic      Atomic             Coordinates (Angstroms)
 Number     Number       Type             X           Y           Z
 ---------------------------------------------------------------------
      1          6           0        0.865370    0.000017   -0.000016
      2          6           0       -0.865370   -0.000017    0.000016
      3          1           0       -1.243017    0.195449   -1.008068
      4          1           0       -1.243024    0.775295    0.673316
      5          1           0       -1.243065   -0.970770    0.334762
      6          1           0        1.243065    0.970770   -0.334762
      7          1           0        1.243024   -0.775295   -0.673316
      8          1           0        1.243017   -0.195449    1.008068
 ---------------------------------------------------------------------
 Rotational constants (GHZ):     79.2614590     16.5675689     16.5674978
 Standard basis: 6-31G(d) (6D, 7F)
 There are    21 symmetry adapted cartesian basis functions of AG  symmetry.
 There are    21 symmetry adapted cartesian basis functions of AU  symmetry.
 There are    21 symmetry adapted basis functions of AG  symmetry.
 There are    21 symmetry adapted basis functions of AU  symmetry.
    42 basis functions,    80 primitive gaussians,    42 cartesian basis functions
     9 alpha electrons        9 beta electrons
       nuclear repulsion energy        40.0000881512 Hartrees.
 NAtoms=    8 NActive=    8 NUniq=    4 SFac= 4.00D+00 NAtFMM=   60 NAOKFM=F Big=F
 Integral buffers will be    131072 words long.
 Raffenetti 2 integral format.
 Two-electron integral symmetry is turned on.
 One-electron integrals computed using PRISM.
 NBasis=    42 RedAO= T EigKep=  8.25D-03  NBF=    21    21
 NBsUse=    42 1.00D-06 EigRej= -1.00D+00 NBFU=    21    21
 Initial guess from the checkpoint file:  "ethane_scan_short.chk"
 B after Tr=     0.000000    0.000000    0.000000
         Rot=    1.000000    0.000000    0.000000    0.000000 Ang=   0.00 deg.
 Initial guess orbital symmetries:
       Occupied  (AG) (AU) (AG) (AU) (AU) (AU) (AG) (AG) (AG)
       Virtual   (AG) (AG) (AG) (AG) (AG) (AG) (AG) (AG) (AG) (AG)
                 (AG) (AG) (AG) (AG) (AG) (AG) (AU) (AU) (AU) (AU)
                 (AU) (AU) (AU) (AU) (AU) (AU) (AU) (AU) (AU) (AU)
                 (AU) (AU) (AU)
 ExpMin= 1.61D-01 ExpMax= 3.05D+03 ExpMxC= 4.57D+02 IAcc=1 IRadAn=         1 AccDes= 0.00D+00
 Harris functional with IExCor=  402 and IRadAn=       1 diagonalized for initial guess.
 HarFok:  IExCor=  402 AccDes= 0.00D+00 IRadAn=         1 IDoV= 1 UseB2=F ITyADJ=14
 ICtDFT=  3500011 ScaDFX=  1.000000  1.000000  1.000000  1.000000
 FoFCou: FMM=F IPFlag=           0 FMFlag=      100000 FMFlg1=           0
         NFxFlg=           0 DoJE=T BraDBF=F KetDBF=T FulRan=T
         wScrn=  0.000000 ICntrl=     500 IOpCl=  0 I1Cent=   200000004 NGrid=           0
         NMat0=    1 NMatS0=      1 NMatT0=    0 NMatD0=    1 NMtDS0=    0 NMtDT0=    0
 Petite list used in FoFCou.
 Keep R1 ints in memory in symmetry-blocked form, NReq=1296204.
 Requested convergence on RMS density matrix=1.00D-08 within 128 cycles.
 Requested convergence on MAX density matrix=1.00D-06.
 Requested convergence on             energy=1.00D-06.
 No special actions if energy rises.
 Integral accuracy reduced to 1.0D-05 until final iterations.
 Initial convergence to 1.0D-05 achieved.  Increase integral accuracy.
 SCF Done:  E(RB3LYP) =  -79.8163053586     A.U. after    9 cycles
            NFock=  9  Conv=0.50D-08     -V/T= 2.0135
 Calling FoFJK, ICntrl=      2127 FMM=F ISym2X=1 I1Cent= 0 IOpClX= 0 NMat=1 NMatS=1 NMatT=0.
 ***** Axes restored to original set *****
 -------------------------------------------------------------------
 Center     Atomic                   Forces (Hartrees/Bohr)
 Number     Number              X              Y              Z
 -------------------------------------------------------------------
      1        6          -0.056651178   -0.000002711    0.000000373
      2        6           0.056651178    0.000002711   -0.000000373
      3        1           0.002660704    0.000043151   -0.000214475
      4        1           0.002663688    0.000160301    0.000141655
      5        1           0.002664366   -0.000201103    0.000066079
      6        1          -0.002664366    0.000201103   -0.000066079
      7        1          -0.002663688   -0.000160301   -0.000141655
      8        1          -0.002660704   -0.000043151    0.000214475
 -------------------------------------------------------------------
 Cartesian Forces:  Max     0.056651178 RMS     0.016408250

 GradGradGradGradGradGradGradGradGradGradGradGradGradGradGradGradGradGrad
 Berny optimization.
 FormGI is forming the generalized inverse of G from B-inverse, IUseBI=4.
 Internal  Forces:  Max     0.064639936 RMS     0.012340603
 Search for a local minimum.
 Step number   1 out of a maximum of   38 on scan point     3 out of     3
 All quantities printed in internal units (Hartrees-Bohrs-Radians)
 Mixed Optimization -- RFO/linear search
 Second derivative matrix not updated -- first step.
 ITU=  0
     Eigenvalues ---    0.00359   0.05667   0.05667   0.05667   0.05667
     Eigenvalues ---    0.13893   0.16000   0.16000   0.16000   0.16000
     Eigenvalues ---    0.16000   0.34405   0.34406   0.34406   0.34406
     Eigenvalues ---    0.34406   0.348381000.000001000.000001000.00000
     Eigenvalues --- 1000.000001000.000001000.000001000.000001000.00000
     Eigenvalues --- 1000.000001000.000001000.00000
 RFO step:  Lambda=-6.09321089D-04 EMin= 3.59316169D-03
 Linear search not attempted -- first point.
 Iteration  1 RMS(Cart)=  0.01792216 RMS(Int)=  0.00022908
 Iteration  2 RMS(Cart)=  0.00022363 RMS(Int)=  0.00011983
 Iteration  3 RMS(Cart)=  0.00000004 RMS(Int)=  0.00011983
 Iteration  1 RMS(Cart)=  0.00000000 RMS(Int)=  0.00000000
 ClnCor:  largest displacement from symmetrization is 2.60D-08 for atom     7.
 Variable       Old X    -DE/DX   Delta X   Delta X   Delta X     New X
                                 (Linear)    (Quad)   (Total)
    R1        3.27062  -0.06464   0.00000   0.00000   0.00000   3.27062
    R2        2.06756  -0.00072   0.00000  -0.00314  -0.00314   2.06442
    R3        2.06756  -0.00072   0.00000  -0.00314  -0.00314   2.06442
    R4        2.06755  -0.00071   0.00000  -0.00312  -0.00312   2.06443
    R5        2.06755  -0.00071   0.00000  -0.00312  -0.00312   2.06443
    R6        2.06756  -0.00072   0.00000  -0.00314  -0.00314   2.06442
    R7        2.06756  -0.00072   0.00000  -0.00314  -0.00314   2.06442
    A1        1.92328  -0.00259   0.00000  -0.01869  -0.01887   1.90441
    A2        1.92322  -0.00259   0.00000  -0.01867  -0.01885   1.90437
    A3        1.92319  -0.00259   0.00000  -0.01864  -0.01882   1.90437
    A4        1.89790   0.00266   0.00000   0.01916   0.01898   1.91687
    A5        1.89785   0.00266   0.00000   0.01914   0.01895   1.91681
    A6        1.89786   0.00266   0.00000   0.01916   0.01898   1.91684
    A7        1.92319  -0.00259   0.00000  -0.01864  -0.01882   1.90437
    A8        1.92322  -0.00259   0.00000  -0.01867  -0.01885   1.90437
    A9        1.92328  -0.00259   0.00000  -0.01869  -0.01887   1.90441
   A10        1.89786   0.00266   0.00000   0.01916   0.01898   1.91684
   A11        1.89785   0.00266   0.00000   0.01914   0.01895   1.91681
   A12        1.89790   0.00266   0.00000   0.01916   0.01898   1.91687
    D1        1.04721   0.00000   0.00000   0.00002   0.00002   1.04723
    D2       -1.04714   0.00000   0.00000  -0.00001  -0.00001  -1.04715
    D3        3.14159   0.00000   0.00000   0.00000   0.00000   3.14159
[...]
      8          1           0        1.222085   -0.196522    1.013616
 ---------------------------------------------------------------------
 Rotational constants (GHZ):     78.3978617     16.7195688     16.7194971
 Standard basis: 6-31G(d) (6D, 7F)
 There are    21 symmetry adapted cartesian basis functions of AG  symmetry.
 There are    21 symmetry adapted cartesian basis functions of AU  symmetry.
 There are    21 symmetry adapted basis functions of AG  symmetry.
 There are    21 symmetry adapted basis functions of AU  symmetry.
    42 basis functions,    80 primitive gaussians,    42 cartesian basis functions
     9 alpha electrons        9 beta electrons
       nuclear repulsion energy        40.0949128981 Hartrees.
 NAtoms=    8 NActive=    8 NUniq=    4 SFac= 4.00D+00 NAtFMM=   60 NAOKFM=F Big=F
 Integral buffers will be    131072 words long.
 Raffenetti 2 integral format.
 Two-electron integral symmetry is turned on.
 One-electron integrals computed using PRISM.
 NBasis=    42 RedAO= T EigKep=  8.05D-03  NBF=    21    21
 NBsUse=    42 1.00D-06 EigRej= -1.00D+00 NBFU=    21    21
 Initial guess from the checkpoint file:  "ethane_scan_short.chk"
 B after Tr=     0.000000    0.000000    0.000000
         Rot=    1.000000    0.000000    0.000001    0.000001 Ang=   0.00 deg.
 Initial guess orbital symmetries:
       Occupied  (AG) (AU) (AG) (AU) (AU) (AU) (AG) (AG) (AG)
       Virtual   (AG) (AG) (AG) (AG) (AG) (AG) (AG) (AG) (AG) (AG)
                 (AG) (AG) (AG) (AG) (AG) (AG) (AU) (AU) (AU) (AU)
                 (AU) (AU) (AU) (AU) (AU) (AU) (AU) (AU) (AU) (AU)
                 (AU) (AU) (AU)
 Keep R1 ints in memory in symmetry-blocked form, NReq=1296204.
 Requested convergence on RMS density matrix=1.00D-08 within 128 cycles.
 Requested convergence on MAX density matrix=1.00D-06.
 Requested convergence on             energy=1.00D-06.
 No special actions if energy rises.
 SCF Done:  E(RB3LYP) =  -79.8166270313     A.U. after    6 cycles
            NFock=  6  Conv=0.12D-08     -V/T= 2.0133
 Calling FoFJK, ICntrl=      2127 FMM=F ISym2X=1 I1Cent= 0 IOpClX= 0 NMat=1 NMatS=1 NMatT=0.
 ***** Axes restored to original set *****
 -------------------------------------------------------------------
 Center     Atomic                   Forces (Hartrees/Bohr)
 Number     Number              X              Y              Z
 -------------------------------------------------------------------
      1        6          -0.061374544   -0.000000389    0.000000462
      2        6           0.061374544    0.000000389   -0.000000462
      3        1          -0.000000057    0.000001892    0.000000850
      4        1           0.000000249   -0.000000977    0.000001439
      5        1          -0.000000202   -0.000000194   -0.000001273
      6        1           0.000000202    0.000000194    0.000001273
      7        1          -0.000000249    0.000000977   -0.000001439
      8        1           0.000000057   -0.000001892   -0.000000850
 -------------------------------------------------------------------
 Cartesian Forces:  Max     0.061374544 RMS     0.017717305

 GradGradGradGradGradGradGradGradGradGradGradGradGradGradGradGradGradGrad
 Berny optimization.
 Using GEDIIS/GDIIS optimizer.
 FormGI is forming the generalized inverse of G from B-inverse, IUseBI=4.
 Internal  Forces:  Max     0.061374534 RMS     0.011598697
 Search for a local minimum.
 Step number   3 out of a maximum of   38 on scan point     3 out of     3
 All quantities printed in internal units (Hartrees-Bohrs-Radians)
 Mixed Optimization -- En-DIIS/RFO-DIIS
 Swapping is turned off.
 Update second derivatives using D2CorX and points    1    2    3
 DE= -7.24D-07 DEPred=-7.37D-07 R= 9.82D-01
 Trust test= 9.82D-01 RLast= 3.27D-03 DXMaxT set to 3.00D-01
 ITU=  0  1  0
     Eigenvalues ---    0.00359   0.05875   0.05875   0.05875   0.05875
     Eigenvalues ---    0.13541   0.16000   0.16000   0.16000   0.16000
     Eigenvalues ---    0.16000   0.34405   0.34406   0.34406   0.34406
     Eigenvalues ---    0.34406   0.348331000.000001000.000001000.00000
     Eigenvalues --- 1000.000001000.000001000.000001000.000001000.00000
     Eigenvalues --- 1000.000001000.000001000.00000
 En-DIIS/RFO-DIIS IScMMF=        0 using points:     3    2
 RFO step:  Lambda=-1.19117732D-04.
 DidBck=F Rises=F RFO-DIIS coefs:    1.00636   -0.00636
 Iteration  1 RMS(Cart)=  0.00000068 RMS(Int)=  0.00000000
 Iteration  1 RMS(Cart)=  0.00000000 RMS(Int)=  0.00000000
 ClnCor:  largest displacement from symmetrization is 1.45D-12 for atom     8.
 Variable       Old X    -DE/DX   Delta X   Delta X   Delta X     New X
                                 (Linear)    (Quad)   (Total)
    R1        3.27062  -0.06137   0.00000   0.00000   0.00000   3.27062
    R2        2.06429   0.00000   0.00000   0.00000   0.00000   2.06429
    R3        2.06429   0.00000   0.00000   0.00000   0.00000   2.06429
    R4        2.06430   0.00000   0.00000   0.00000   0.00000   2.06430
    R5        2.06430   0.00000   0.00000   0.00000   0.00000   2.06430
    R6        2.06429   0.00000   0.00000   0.00000   0.00000   2.06429
    R7        2.06429   0.00000   0.00000   0.00000   0.00000   2.06429
    A1        1.90345   0.00000  -0.00001   0.00001   0.00000   1.90345
    A2        1.90342   0.00000  -0.00001   0.00001   0.00000   1.90342
    A3        1.90344   0.00000  -0.00001   0.00001   0.00000   1.90344
    A4        1.91780   0.00000   0.00001  -0.00001   0.00000   1.91780
    A5        1.91774   0.00000   0.00001  -0.00001   0.00000   1.91774
    A6        1.91777   0.00000   0.00001  -0.00001   0.00000   1.91777
    A7        1.90344   0.00000  -0.00001   0.00001   0.00000   1.90344
    A8        1.90342   0.00000  -0.00001   0.00001   0.00000   1.90342
    A9        1.90345   0.00000  -0.00001   0.00001   0.00000   1.90345
   A10        1.91777   0.00000   0.00001  -0.00001   0.00000   1.91777
   A11        1.91774   0.00000   0.00001  -0.00001   0.00000   1.91774
   A12        1.91780   0.00000   0.00001  -0.00001   0.00000   1.91780
    D1        1.04723   0.00000   0.00000   0.00000   0.00000   1.04722
    D2       -1.04716   0.00000   0.00000   0.00000   0.00000  -1.04716
    D3        3.14159   0.00000   0.00000   0.00000   0.00000   3.14159
    D4       -1.04721   0.00000   0.00000   0.00000   0.00000  -1.04721
    D5        3.14159   0.00000   0.00000   0.00000   0.00000   3.14159
    D6        1.04716   0.00000   0.00000   0.00000   0.00000   1.04716
    D7        3.14159   0.00000   0.00000   0.00000   0.00000  -3.14159
    D8        1.04721   0.00000   0.00000   0.00000   0.00000   1.04721
    D9       -1.04723   0.00000   0.00000   0.00000   0.00000  -1.04722
         Item               Value     Threshold  Converged?
 Maximum Force            0.000000     0.000450     YES
 RMS     Force            0.000000     0.000300     YES
 Maximum Displacement     0.000002     0.001800     YES
 RMS     Displacement     0.000001     0.001200     YES
 Predicted change in Energy=-7.607491D-13
 Optimization completed.
    -- Stationary point found.
                           ----------------------------
                           !   Optimized Parameters   !
                           ! (Angstroms and Degrees)  !
 --------------------------                            --------------------------
 ! Name  Definition              Value          Derivative Info.                !
 --------------------------------------------------------------------------------
 ! R1    R(1,2)                  1.7307         -DE/DX =   -0.0614              !
 ! R2    R(1,6)                  1.0924         -DE/DX =    0.0                 !
 ! R3    R(1,7)                  1.0924         -DE/DX =    0.0                 !
 ! R4    R(1,8)                  1.0924         -DE/DX =    0.0                 !
 ! R5    R(2,3)                  1.0924         -DE/DX =    0.0                 !
 ! R6    R(2,4)                  1.0924         -DE/DX =    0.0                 !
 ! R7    R(2,5)                  1.0924         -DE/DX =    0.0                 !
 ! A1    A(2,1,6)              109.0598         -DE/DX =    0.0                 !
 ! A2    A(2,1,7)              109.0581         -DE/DX =    0.0                 !
 ! A3    A(2,1,8)              109.0589         -DE/DX =    0.0                 !
 ! A4    A(6,1,7)              109.882          -DE/DX =    0.0                 !
 ! A5    A(6,1,8)              109.8786         -DE/DX =    0.0                 !
 ! A6    A(7,1,8)              109.8804         -DE/DX =    0.0                 !
 ! A7    A(1,2,3)              109.0589         -DE/DX =    0.0                 !
 ! A8    A(1,2,4)              109.0581         -DE/DX =    0.0                 !
 ! A9    A(1,2,5)              109.0598         -DE/DX =    0.0                 !
 ! A10   A(3,2,4)              109.8804         -DE/DX =    0.0                 !
 ! A11   A(3,2,5)              109.8786         -DE/DX =    0.0                 !
 ! A12   A(4,2,5)              109.882          -DE/DX =    0.0                 !
 ! D1    D(6,1,2,3)             60.0016         -DE/DX =    0.0                 !
 ! D2    D(6,1,2,4)            -59.9979         -DE/DX =    0.0                 !
 ! D3    D(6,1,2,5)            180.0            -DE/DX =    0.0                 !
 ! D4    D(7,1,2,3)            -60.0004         -DE/DX =    0.0                 !
 ! D5    D(7,1,2,4)            180.0            -DE/DX =    0.0                 !
 ! D6    D(7,1,2,5)             59.9979         -DE/DX =    0.0                 !
 ! D7    D(8,1,2,3)           -180.0            -DE/DX =    0.0                 !
 ! D8    D(8,1,2,4)             60.0004         -DE/DX =    0.0                 !
 ! D9    D(8,1,2,5)            -60.0016         -DE/DX =    0.0                 !
 --------------------------------------------------------------------------------
 GradGradGradGradGradGradGradGradGradGradGradGradGradGradGradGradGradGrad

 Summary of Optimized Potential Surface Scan
                           1         2         3
     Eigenvalues --   -79.83042 -79.82636 -79.81663
           R1           1.53074   1.63074   1.73074
           R2           1.09620   1.09411   1.09237
           R3           1.09619   1.09410   1.09237
           R4           1.09618   1.09410   1.09238
           R5           1.09618   1.09410   1.09238
           R6           1.09619   1.09410   1.09237
           R7           1.09620   1.09411   1.09237
           A1         111.33673 110.19582 109.05978
           A2         111.33271 110.19201 109.05813
           A3         111.32877 110.19060 109.05891
           A4         107.54807 108.74146 109.88201
           A5         107.54744 108.73914 109.87860
           A6         107.54626 108.73968 109.88039
           A7         111.32877 110.19060 109.05891
           A8         111.33271 110.19201 109.05813
           A9         111.33673 110.19582 109.05978
           A10        107.54626 108.73968 109.88039
           A11        107.54744 108.73914 109.87860
           A12        107.54807 108.74146 109.88201
           D1          59.99975  60.00068  60.00163
           D2         -59.99629 -59.99689 -59.99794
           D3         180.00000 180.00000 180.00000
           D4         -60.00397 -60.00243 -60.00043
           D5         180.00000 180.00000 180.00000
           D6          59.99629  59.99689  59.99794
           D7         180.00000 180.00000-180.00000
           D8          60.00397  60.00243  60.00043
           D9         -59.99975 -60.00068 -60.00163
                          Input orientation:                          
 ---------------------------------------------------------------------
 Center     Atomic      Atomic             Coordinates (Angstroms)
 Number     Number       Type             X           Y           Z
 ---------------------------------------------------------------------
      1          6           0        0.865370    0.000005   -0.000006
      2          6           0       -0.865370   -0.000005    0.000006
      3          1           0       -1.222085    0.196522   -1.013616
      4          1           0       -1.222060    0.779557    0.677012
      5          1           0       -1.222082   -0.976093    0.336590
      6          1           0        1.222082    0.976093   -0.336590
      7          1           0        1.222060   -0.779557   -0.677012
      8          1           0        1.222085   -0.196522    1.013616
 ---------------------------------------------------------------------
                    Distance matrix (angstroms):
                    1          2          3          4          5
     1  C    0.000000
     2  C    1.730740   0.000000
     3  H    2.328839   1.092382   0.000000
     4  H    2.328823   1.092374   1.788338   0.000000
     5  H    2.328845   1.092373   1.788318   1.788349   0.000000
     6  H    1.092373   2.328845   2.653308   2.653270   3.199709
     7  H    1.092374   2.328823   2.653276   3.199677   2.653270
     8  H    1.092382   2.328839   3.199706   2.653276   2.653308
                    6          7          8
     6  H    0.000000
     7  H    1.788349   0.000000
     8  H    1.788318   1.788338   0.000000
 Stoichiometry    C2H6
 Framework group  CI[X(C2H6)]
 Deg. of freedom     9
 Full point group                 CI      NOp   2
 Largest Abelian subgroup         CI      NOp   2
 Largest concise Abelian subgroup CI      NOp   2
                         Standard orientation:                         
 ---------------------------------------------------------------------
 Center     Atomic      Atomic             Coordinates (Angstroms)
 Number     Number       Type             X           Y           Z
 ---------------------------------------------------------------------
      1          6           0        0.865370    0.000005   -0.000006
      2          6           0       -0.865370   -0.000005    0.000006
      3          1           0       -1.222085    0.196522   -1.013616
      4          1           0       -1.222060    0.779557    0.677012
      5          1           0       -1.222082   -0.976093    0.336590
      6          1           0        1.222082    0.976093   -0.336590
      7          1           0        1.222060   -0.779557   -0.677012
      8          1           0        1.222085   -0.196522    1.013616
 ---------------------------------------------------------------------
 Rotational constants (GHZ):     78.3978617     16.7195688     16.7194971

 **********************************************************************

            Population analysis using the SCF density.

 **********************************************************************

 Orbital symmetries:
       Occupied  (AG) (AU) (AG) (AU) (AU) (AU) (AG) (AG) (AG)
       Virtual   (AG) (AU) (AU) (AU) (AU) (AG) (AG) (AU) (AU) (AG)
                 (AU) (AG) (AG) (AG) (AG) (AG) (AU) (AU) (AU) (AG)
                 (AU) (AU) (AU) (AG) (AG) (AG) (AU) (AU) (AG) (AG)
                 (AU) (AG) (AU)
 The electronic state is 1-AG.
 Alpha  occ. eigenvalues --  -10.18182 -10.18175  -0.71763  -0.62165  -0.41937
 Alpha  occ. eigenvalues --   -0.41937  -0.35703  -0.35702  -0.32329
 Alpha virt. eigenvalues --    0.10498   0.13085   0.17600   0.17600   0.18460
 Alpha virt. eigenvalues --    0.18543   0.18543   0.52317   0.52318   0.56720
 Alpha virt. eigenvalues --    0.59647   0.64097   0.64097   0.87496   0.90963
 Alpha virt. eigenvalues --    0.90964   0.90993   0.90993   0.97526   1.06601
 Alpha virt. eigenvalues --    1.40075   1.55502   1.55503   1.77435   1.93538
 Alpha virt. eigenvalues --    1.93539   2.25726   2.25727   2.27132   2.27134
 Alpha virt. eigenvalues --    2.48325   4.10769   4.32324
          Condensed to atoms (all electrons):
               1          2          3          4          5          6
     1  C    5.039740   0.344600  -0.026012  -0.026012  -0.026009   0.380474
     2  C    0.344600   5.039740   0.380473   0.380473   0.380474  -0.026009
     3  H   -0.026012   0.380473   0.560829  -0.031824  -0.031826  -0.001741
     4  H   -0.026012   0.380473  -0.031824   0.560827  -0.031822  -0.001741
     5  H   -0.026009   0.380474  -0.031826  -0.031822   0.560824   0.002599
     6  H    0.380474  -0.026009  -0.001741  -0.001741   0.002599   0.560824
     7  H    0.380473  -0.026012  -0.001741   0.002599  -0.001741  -0.031822
     8  H    0.380473  -0.026012   0.002599  -0.001741  -0.001741  -0.031826
               7          8
     1  C    0.380473   0.380473
     2  C   -0.026012  -0.026012
     3  H   -0.001741   0.002599
     4  H    0.002599  -0.001741
     5  H   -0.001741  -0.001741
     6  H   -0.031822  -0.031826
     7  H    0.560827  -0.031824
     8  H   -0.031824   0.560829
 Mulliken charges:
               1
     1  C   -0.447726
     2  C   -0.447726
     3  H    0.149243
     4  H    0.149241
     5  H    0.149242
     6  H    0.149242
     7  H    0.149241
     8  H    0.149243
 Sum of Mulliken charges =   0.00000
 Mulliken charges with hydrogens summed into heavy atoms:
               1
     1  C    0.000000
     2  C    0.000000
 Electronic spatial extent (au):  <R**2>=            119.9387
 Charge=              0.0000 electrons
 Dipole moment (field-independent basis, Debye):
    X=              0.0000    Y=              0.0000    Z=              0.0000  Tot=              0.0000
 Quadrupole moment (field-independent basis, Debye-Ang):
   XX=            -15.0668   YY=            -14.6641   ZZ=            -14.6642
   XY=              0.0001   XZ=              0.0001   YZ=              0.0001
 Traceless Quadrupole moment (field-independent basis, Debye-Ang):
   XX=             -0.2684   YY=              0.1343   ZZ=              0.1341
   XY=              0.0001   XZ=              0.0001   YZ=              0.0001
 Octapole moment (field-independent basis, Debye-Ang**2):
  XXX=              0.0000  YYY=              0.0000  ZZZ=              0.0000  XYY=              0.0000
  XXY=              0.0000  XXZ=              0.0000  XZZ=              0.0000  YZZ=              0.0000
  YYZ=              0.0000  XYZ=              0.0000
 Hexadecapole moment (field-independent basis, Debye-Ang**3):
 XXXX=           -107.3325 YYYY=            -28.5987 ZZZZ=            -28.5987 XXXY=              0.0000
 XXXZ=              0.0002 YYYX=              0.7698 YYYZ=              0.0000 ZZZX=              1.1893
 ZZZY=              0.0000 XXYY=            -21.1346 XXZZ=            -21.1348 YYZZ=             -9.5329
 XXYZ=              0.0000 YYXZ=             -1.1892 ZZXY=             -0.7700
 N-N= 4.009491289809D+01 E-N=-2.638530147234D+02  KE= 7.877220875872D+01
 Symmetry AG   KE= 4.072765588705D+01
 Symmetry AU   KE= 3.804455287167D+01
 1\1\GINC-CPU-G-14\Scan\RB3LYP\6-31G(d)\C2H6\AM2145\22-Mar-2021\0\\#n B
 3LYP/6-31G(d) Opt=ModRedundant\\ethane_scan\\0,1\C,0.86537,0.000004823
 9,-0.0000059857\C,-0.86537,-0.0000048258,0.0000059864\H,-1.222084769,0
 .1965218675,-1.0136164195\H,-1.2220595065,0.7795566764,0.6770119123\H,
 -1.2220817331,-0.9760927684,0.3365899458\H,1.2220817331,0.9760927665,-
 0.3365899451\H,1.2220595065,-0.7795566783,-0.6770119116\H,1.222084769,
 -0.1965218694,1.0136164201\\Version=ES64L-G09RevD.01\State=1-AG\HF=-79
 .830422,-79.8263567,-79.816627\RMSD=3.613e-09,3.162e-09,1.177e-09\PG=C
 I [X(C2H6)]\\@


 WE MIGHT AS WELL ATTEMPT TO INTRODUCE A NEW PLANET 
 INTO THE SOLAR SYSTEM, OR TO ANNIHILATE ONE ALREADYIN EXISTENCE, 
 AS TO CREATE OR DESTROY A PARTICLE OF HYDROGEN.
 ALL THE CHANGES WE CAN PRODUCE CONSIST IN SEPARATING PARTICLES
 THAT ARE IN A STATE OF ... COMBINATION, AND JOINING 
 THOSE THAT WERE PREVIOUSLY AT A DISTANCE.

                                    -- JOHN DALTON, 1810
 Job cpu time:       0 days  0 hours 20 minutes  4.7 seconds.
 File lengths (MBytes):  RWF=      5 Int=      0 D2E=      0 Chk=      1 Scr=      1
 Normal termination of Gaussian 09 at Mon Mar 22 15:54:10 2021.
