 Entering Gaussian System, Link 0=g09
 Initial command:
 /usr/local/Cluster-Apps/gaussian/g09/l1.exe "/rds/user/am2145/hpc-work/scratch/41103279/Gau-197019.inp" -scrdir="/rds/user/am2145/hpc-work/scratch/41103279/"
 Entering Link 1 = /usr/local/Cluster-Apps/gaussian/g09/l1.exe PID=    197020.
  
 Copyright (c) 1988,1990,1992,1993,1995,1998,2003,2009,2013,
            Gaussian, Inc.  All Rights Reserved.
  
 This is part of the Gaussian(R) 09 program.  It is based on
 the Gaussian(R) 03 system (copyright 2003, Gaussian, Inc.),
 the Gaussian(R) 98 system (copyright 1998, Gaussian, Inc.),
 the Gaussian(R) 94 system (copyright 1995, Gaussian, Inc.),
 the Gaussian 92(TM) system (copyright 1992, Gaussian, Inc.),
 the Gaussian 90(TM) system (copyright 1990, Gaussian, Inc.),
 the Gaussian 88(TM) system (copyright 1988, Gaussian, Inc.),
 the Gaussian 86(TM) system (copyright 1986, Carnegie Mellon
 University), and the Gaussian 82(TM) system (copyright 1983,
 Carnegie Mellon University). Gaussian is a federally registered
 trademark of Gaussian, Inc.
  
 This software contains proprietary and confidential information,
 including trade secrets, belonging to Gaussian, Inc.
  
 This software is provided under written license and may be
 used, copied, transmitted, or stored only in accord with that
 written license.
  
 The following legend is applicable only to US Government
 contracts under FAR:
  
                    RESTRICTED RIGHTS LEGEND
  
 Use, reproduction and disclosure by the US Government is
 subject to restrictions as set forth in subparagraphs (a)
 and (c) of the Commercial Computer Software - Restricted
 Rights clause in FAR 52.227-19.
  
 Gaussian, Inc.
 340 Quinnipiac St., Bldg. 40, Wallingford CT 06492
  
  
 ---------------------------------------------------------------
 Warning -- This program may not be used in any manner that
 competes with the business of Gaussian, Inc. or will provide
 assistance to any competitor of Gaussian, Inc.  The licensee
 of this program is prohibited from giving any competitor of
 Gaussian, Inc. access to this program.  By using this program,
 the user acknowledges that Gaussian, Inc. is engaged in the
 business of creating and licensing software in the field of
 computational chemistry and represents and warrants to the
 licensee that it is not a competitor of Gaussian, Inc. and that
 it will not use this program in any manner prohibited above.
 ---------------------------------------------------------------
  

 Cite this work as:
 Gaussian 09, Revision D.01,
 M. J. Frisch, G. W. Trucks, H. B. Schlegel, G. E. Scuseria, 
 M. A. Robb, J. R. Cheeseman, G. Scalmani, V. Barone, B. Mennucci, 
 G. A. Petersson, H. Nakatsuji, M. Caricato, X. Li, H. P. Hratchian, 
 A. F. Izmaylov, J. Bloino, G. Zheng, J. L. Sonnenberg, M. Hada, 
 M. Ehara, K. Toyota, R. Fukuda, J. Hasegawa, M. Ishida, T. Nakajima, 
 Y. Honda, O. Kitao, H. Nakai, T. Vreven, J. A. Montgomery, Jr., 
 J. E. Peralta, F. Ogliaro, M. Bearpark, J. J. Heyd, E. Brothers, 
 K. N. Kudin, V. N. Staroverov, T. Keith, R. Kobayashi, J. Normand, 
 K. Raghavachari, A. Rendell, J. C. Burant, S. S. Iyengar, J. Tomasi, 
 M. Cossi, N. Rega, J. M. Millam, M. Klene, J. E. Knox, J. B. Cross, 
 V. Bakken, C. Adamo, J. Jaramillo, R. Gomperts, R. E. Stratmann, 
 O. Yazyev, A. J. Austin, R. Cammi, C. Pomelli, J. W. Ochterski, 
 R. L. Martin, K. Morokuma, V. G. Zakrzewski, G. A. Voth, 
 P. Salvador, J. J. Dannenberg, S. Dapprich, A. D. Daniels, 
 O. Farkas, J. B. Foresman, J. V. Ortiz, J. Cioslowski, 
 and D. J. Fox, Gaussian, Inc., Wallingford CT, 2013.
 
 ******************************************
 Gaussian 09:  ES64L-G09RevD.01 24-Apr-2013
                26-May-2021 
 ******************************************
 %nprocshared=20
 Will use up to   20 processors via shared memory.
 %mem=32GB
 %chk=nbut.chk
 ----------------------------------
 #n B3LYP/6-31G(d) Opt=ModRedundant
 ----------------------------------
 1/14=-1,18=120,19=15,26=3,38=1/1,3;
 2/9=110,12=2,17=6,18=5,40=1/2;
 3/5=1,6=6,7=1,11=2,16=1,25=1,30=1,71=1,74=-5/1,2,3;
 4//1;
 5/5=2,38=5/2;
 6/7=2,8=2,9=2,10=2,28=1/1;
 7//1,2,3,16;
 1/14=-1,18=20,19=15,26=3/3(2);
 2/9=110/2;
 99//99;
 2/9=110/2;
 3/5=1,6=6,7=1,11=2,16=1,25=1,30=1,71=1,74=-5/1,2,3;
 4/5=5,16=3,69=1/1;
 5/5=2,38=5/2;
 7//1,2,3,16;
 1/14=-1,18=20,19=15,26=3/3(-5);
 2/9=110/2;
 6/7=2,8=2,9=2,10=2,19=2,28=1/1;
 99/9=1/99;
 ----
 nbut
 ----
 Symbolic Z-matrix:
 Charge =  0 Multiplicity = 1
 C                    -5.86956   0.89036   0.02937 
 C                    -4.92916  -0.28733   0.22969 
 H                    -6.87803   0.63187   0.36715 
 H                    -5.92676   1.17147  -1.02706 
 H                    -5.53337   1.76227   0.59954 
 C                    -3.5117    0.04336  -0.23319 
 H                    -5.31088  -1.15116  -0.32697 
 H                    -4.91973  -0.56371   1.29049 
 C                    -2.57131  -1.13436  -0.03295 
 H                    -3.12996   0.90715   0.32352 
 H                    -3.52113   0.3198   -1.29398 
 H                    -2.51415  -1.41556   1.02346 
 H                    -1.56283  -0.87584  -0.37068 
 H                    -2.9075   -2.00621  -0.60321 
 
 The following ModRedundant input section has been read:
 D       1       2       6       9 S   6 30.000                                
 

 GradGradGradGradGradGradGradGradGradGradGradGradGradGradGradGradGradGrad
 Berny optimization.
 Initialization pass.
                           ----------------------------
                           !    Initial Parameters    !
                           ! (Angstroms and Degrees)  !
 --------------------------                            --------------------------
 ! Name  Definition              Value          Derivative Info.                !
 --------------------------------------------------------------------------------
 ! R1    R(1,2)                  1.5203         estimate D2E/DX2                !
 ! R2    R(1,3)                  1.0945         estimate D2E/DX2                !
 ! R3    R(1,4)                  1.0947         estimate D2E/DX2                !
 ! R4    R(1,5)                  1.0947         estimate D2E/DX2                !
 ! R5    R(2,6)                  1.5274         estimate D2E/DX2                !
 ! R6    R(2,7)                  1.0963         estimate D2E/DX2                !
 ! R7    R(2,8)                  1.0963         estimate D2E/DX2                !
 ! R8    R(6,9)                  1.5203         estimate D2E/DX2                !
 ! R9    R(6,10)                 1.0963         estimate D2E/DX2                !
 ! R10   R(6,11)                 1.0963         estimate D2E/DX2                !
 ! R11   R(9,12)                 1.0947         estimate D2E/DX2                !
 ! R12   R(9,13)                 1.0945         estimate D2E/DX2                !
 ! R13   R(9,14)                 1.0947         estimate D2E/DX2                !
 ! A1    A(2,1,3)              110.2624         estimate D2E/DX2                !
 ! A2    A(2,1,4)              111.0017         estimate D2E/DX2                !
 ! A3    A(2,1,5)              111.0014         estimate D2E/DX2                !
 ! A4    A(3,1,4)              108.0793         estimate D2E/DX2                !
 ! A5    A(3,1,5)              108.0795         estimate D2E/DX2                !
 ! A6    A(4,1,5)              108.3102         estimate D2E/DX2                !
 ! A7    A(1,2,6)              111.4935         estimate D2E/DX2                !
 ! A8    A(1,2,7)              109.1537         estimate D2E/DX2                !
 ! A9    A(1,2,8)              109.1542         estimate D2E/DX2                !
 ! A10   A(6,2,7)              109.8688         estimate D2E/DX2                !
 ! A11   A(6,2,8)              109.8684         estimate D2E/DX2                !
 ! A12   A(7,2,8)              107.1992         estimate D2E/DX2                !
 ! A13   A(2,6,9)              111.4937         estimate D2E/DX2                !
 ! A14   A(2,6,10)             109.8685         estimate D2E/DX2                !
 ! A15   A(2,6,11)             109.8689         estimate D2E/DX2                !
 ! A16   A(9,6,10)             109.1535         estimate D2E/DX2                !
 ! A17   A(9,6,11)             109.1538         estimate D2E/DX2                !
 ! A18   A(10,6,11)            107.1994         estimate D2E/DX2                !
 ! A19   A(6,9,12)             111.0011         estimate D2E/DX2                !
 ! A20   A(6,9,13)             110.2621         estimate D2E/DX2                !
 ! A21   A(6,9,14)             111.0008         estimate D2E/DX2                !
 ! A22   A(12,9,13)            108.0799         estimate D2E/DX2                !
 ! A23   A(12,9,14)            108.3106         estimate D2E/DX2                !
 ! A24   A(13,9,14)            108.0802         estimate D2E/DX2                !
 ! D1    D(3,1,2,6)           -179.9987         estimate D2E/DX2                !
 ! D2    D(3,1,2,7)             58.4376         estimate D2E/DX2                !
 ! D3    D(3,1,2,8)            -58.4351         estimate D2E/DX2                !
 ! D4    D(4,1,2,6)             60.2613         estimate D2E/DX2                !
 ! D5    D(4,1,2,7)            -61.3024         estimate D2E/DX2                !
 ! D6    D(4,1,2,8)           -178.1752         estimate D2E/DX2                !
 ! D7    D(5,1,2,6)            -60.2585         estimate D2E/DX2                !
 ! D8    D(5,1,2,7)            178.1778         estimate D2E/DX2                !
 ! D9    D(5,1,2,8)             61.3051         estimate D2E/DX2                !
 ! D10   D(1,2,6,9)           -179.9965         Scan                            !
 ! D11   D(1,2,6,10)            58.8559         estimate D2E/DX2                !
 ! D12   D(1,2,6,11)           -58.8484         estimate D2E/DX2                !
 ! D13   D(7,2,6,9)            -58.8487         estimate D2E/DX2                !
 ! D14   D(7,2,6,10)          -179.9963         estimate D2E/DX2                !
 ! D15   D(7,2,6,11)            62.2994         estimate D2E/DX2                !
 ! D16   D(8,2,6,9)             58.8552         estimate D2E/DX2                !
 ! D17   D(8,2,6,10)           -62.2923         estimate D2E/DX2                !
 ! D18   D(8,2,6,11)          -179.9967         estimate D2E/DX2                !
 ! D19   D(2,6,9,12)           -60.258          estimate D2E/DX2                !
 ! D20   D(2,6,9,13)          -179.9982         estimate D2E/DX2                !
 ! D21   D(2,6,9,14)            60.2615         estimate D2E/DX2                !
 ! D22   D(10,6,9,12)           61.3053         estimate D2E/DX2                !
 ! D23   D(10,6,9,13)          -58.4348         estimate D2E/DX2                !
 ! D24   D(10,6,9,14)         -178.1751         estimate D2E/DX2                !
 ! D25   D(11,6,9,12)          178.178          estimate D2E/DX2                !
 ! D26   D(11,6,9,13)           58.4378         estimate D2E/DX2                !
 ! D27   D(11,6,9,14)          -61.3025         estimate D2E/DX2                !
 --------------------------------------------------------------------------------
 Trust Radius=3.00D-01 FncErr=1.00D-07 GrdErr=1.00D-06
 Number of optimizations in scan=   7
 Number of steps in this run=     74 maximum allowed number of steps=    100.
 GradGradGradGradGradGradGradGradGradGradGradGradGradGradGradGradGradGrad

                          Input orientation:                          
 ---------------------------------------------------------------------
 Center     Atomic      Atomic             Coordinates (Angstroms)
 Number     Number       Type             X           Y           Z
 ---------------------------------------------------------------------
      1          6           0       -5.869560    0.890360    0.029370
      2          6           0       -4.929160   -0.287330    0.229690
      3          1           0       -6.878030    0.631870    0.367150
      4          1           0       -5.926760    1.171470   -1.027060
      5          1           0       -5.533370    1.762270    0.599540
      6          6           0       -3.511700    0.043360   -0.233190
      7          1           0       -5.310880   -1.151160   -0.326970
      8          1           0       -4.919730   -0.563710    1.290490
      9          6           0       -2.571310   -1.134360   -0.032950
     10          1           0       -3.129960    0.907150    0.323520
     11          1           0       -3.521130    0.319800   -1.293980
     12          1           0       -2.514150   -1.415560    1.023460
     13          1           0       -1.562830   -0.875840   -0.370680
     14          1           0       -2.907500   -2.006210   -0.603210
 ---------------------------------------------------------------------
                    Distance matrix (angstroms):
                    1          2          3          4          5
     1  C    0.000000
     2  C    1.520340   0.000000
     3  H    1.094497   2.159148   0.000000
     4  H    1.094687   2.168576   1.771978   0.000000
     5  H    1.094689   2.168575   1.771982   1.774719   0.000000
     6  C    2.519097   1.527353   3.469716   2.781254   2.781230
     7  H    2.146370   1.096259   2.473248   2.502807   3.065289
     8  H    2.146374   1.096253   2.473238   3.065289   2.502828
     9  C    3.870637   2.519106   4.671989   4.190961   4.190979
    10  H    2.755397   2.161645   3.758419   3.117053   2.565891
    11  H    2.755343   2.161649   3.758393   2.565861   3.116929
    12  H    4.190973   2.781231   4.864788   4.747975   4.403862
    13  H    4.671983   3.469721   5.573951   4.864792   4.864786
    14  H    4.190952   2.781255   4.864789   4.403775   4.747972
                    6          7          8          9         10
     6  C    0.000000
     7  H    2.161648   0.000000
     8  H    2.161639   1.764730   0.000000
     9  C    1.520347   2.755354   2.755397   0.000000
    10  H    1.096259   3.068581   2.510326   2.146375   0.000000
    11  H    1.096259   2.510386   3.068576   2.146377   1.764738
    12  H    2.168576   3.116932   2.565886   1.094688   2.502822
    13  H    2.159149   3.758403   3.758416   1.094498   2.473229
    14  H    2.168573   2.565863   3.117046   1.094688   3.065287
                   11         12         13         14
    11  H    0.000000
    12  H    3.065291   0.000000
    13  H    2.473252   1.771986   0.000000
    14  H    2.502804   1.774724   1.771989   0.000000
 Stoichiometry    C4H10
 Framework group  C1[X(C4H10)]
 Deg. of freedom    36
 Full point group                 C1      NOp   1
 Largest Abelian subgroup         C1      NOp   1
 Largest concise Abelian subgroup C1      NOp   1
                         Standard orientation:                         
 ---------------------------------------------------------------------
 Center     Atomic      Atomic             Coordinates (Angstroms)
 Number     Number       Type             X           Y           Z
 ---------------------------------------------------------------------
      1          6           0       -1.931242   -0.125504    0.000020
      2          6           0       -0.556262    0.523237   -0.000024
      3          1           0       -2.712177    0.641350   -0.000007
      4          1           0       -2.069727   -0.751366    0.887408
      5          1           0       -2.069741   -0.751448   -0.887311
      6          6           0        0.556259   -0.523235   -0.000021
      7          1           0       -0.462252    1.166978    0.882327
      8          1           0       -0.462278    1.166933   -0.882404
      9          6           0        1.931247    0.125503    0.000020
     10          1           0        0.462283   -1.166931   -0.882409
     11          1           0        0.462246   -1.166976    0.882329
     12          1           0        2.069740    0.751447   -0.887311
     13          1           0        2.712175   -0.641360   -0.000011
     14          1           0        2.069722    0.751363    0.887414
 ---------------------------------------------------------------------
 Rotational constants (GHZ):     23.1256316      3.7102208      3.4748185
 Standard basis: 6-31G(d) (6D, 7F)
 There are    80 symmetry adapted cartesian basis functions of A   symmetry.
 There are    80 symmetry adapted basis functions of A   symmetry.
    80 basis functions,   152 primitive gaussians,    80 cartesian basis functions
    17 alpha electrons       17 beta electrons
       nuclear repulsion energy       131.1636257785 Hartrees.
 NAtoms=   14 NActive=   14 NUniq=   14 SFac= 1.00D+00 NAtFMM=   60 NAOKFM=F Big=F
 Integral buffers will be    131072 words long.
 Raffenetti 2 integral format.
 Two-electron integral symmetry is turned on.
 One-electron integrals computed using PRISM.
 NBasis=    80 RedAO= T EigKep=  4.46D-03  NBF=    80
 NBsUse=    80 1.00D-06 EigRej= -1.00D+00 NBFU=    80
 ExpMin= 1.61D-01 ExpMax= 3.05D+03 ExpMxC= 4.57D+02 IAcc=1 IRadAn=         1 AccDes= 0.00D+00
 Harris functional with IExCor=  402 and IRadAn=       1 diagonalized for initial guess.
 HarFok:  IExCor=  402 AccDes= 0.00D+00 IRadAn=         1 IDoV= 1 UseB2=F ITyADJ=14
 ICtDFT=  3500011 ScaDFX=  1.000000  1.000000  1.000000  1.000000
 FoFCou: FMM=F IPFlag=           0 FMFlag=      100000 FMFlg1=           0
         NFxFlg=           0 DoJE=T BraDBF=F KetDBF=T FulRan=T
         wScrn=  0.000000 ICntrl=     500 IOpCl=  0 I1Cent=   200000004 NGrid=           0
         NMat0=    1 NMatS0=      1 NMatT0=    0 NMatD0=    1 NMtDS0=    0 NMtDT0=    0
 Petite list used in FoFCou.
 Keep R1 ints in memory in canonical form, NReq=6193004.
 Requested convergence on RMS density matrix=1.00D-08 within 128 cycles.
 Requested convergence on MAX density matrix=1.00D-06.
 Requested convergence on             energy=1.00D-06.
 No special actions if energy rises.
 Integral accuracy reduced to 1.0D-05 until final iterations.
 Initial convergence to 1.0D-05 achieved.  Increase integral accuracy.
 SCF Done:  E(RB3LYP) =  -158.457141853     A.U. after   11 cycles
            NFock= 11  Conv=0.52D-08     -V/T= 2.0100

 **********************************************************************

            Population analysis using the SCF density.

 **********************************************************************

 Orbital symmetries:
       Occupied  (A) (A) (A) (A) (A) (A) (A) (A) (A) (A) (A) (A)
                 (A) (A) (A) (A) (A)
       Virtual   (A) (A) (A) (A) (A) (A) (A) (A) (A) (A) (A) (A)
                 (A) (A) (A) (A) (A) (A) (A) (A) (A) (A) (A) (A)
                 (A) (A) (A) (A) (A) (A) (A) (A) (A) (A) (A) (A)
                 (A) (A) (A) (A) (A) (A) (A) (A) (A) (A) (A) (A)
                 (A) (A) (A) (A) (A) (A) (A) (A) (A) (A) (A) (A)
                 (A) (A) (A)
 The electronic state is 1-A.
 Alpha  occ. eigenvalues --  -10.17341 -10.17319 -10.16730 -10.16729  -0.79139
 Alpha  occ. eigenvalues --   -0.72001  -0.62290  -0.57204  -0.46709  -0.42351
 Alpha  occ. eigenvalues --   -0.41244  -0.40852  -0.36396  -0.34674  -0.32945
 Alpha  occ. eigenvalues --   -0.32186  -0.31325
 Alpha virt. eigenvalues --    0.09462   0.12139   0.13459   0.14525   0.17097
 Alpha virt. eigenvalues --    0.18792   0.18796   0.18963   0.20029   0.20112
 Alpha virt. eigenvalues --    0.25393   0.25801   0.26242   0.50272   0.50382
 Alpha virt. eigenvalues --    0.55320   0.55840   0.55962   0.62421   0.65318
 Alpha virt. eigenvalues --    0.66596   0.69685   0.76653   0.79916   0.85555
 Alpha virt. eigenvalues --    0.86083   0.88913   0.90742   0.91537   0.92896
 Alpha virt. eigenvalues --    0.92935   0.95797   0.96807   0.99387   1.02293
 Alpha virt. eigenvalues --    1.04114   1.37731   1.43910   1.45320   1.45368
 Alpha virt. eigenvalues --    1.63372   1.68119   1.84433   1.90477   1.90578
 Alpha virt. eigenvalues --    1.96887   1.97079   2.02700   2.06466   2.18582
 Alpha virt. eigenvalues --    2.26054   2.26091   2.30034   2.40051   2.40453
 Alpha virt. eigenvalues --    2.41482   2.54184   2.67855   2.76433   4.14163
 Alpha virt. eigenvalues --    4.24560   4.35969   4.51662
          Condensed to atoms (all electrons):
               1          2          3          4          5          6
     1  C    5.064032   0.376219   0.370892   0.378695   0.378695  -0.048433
     2  C    0.376219   4.943252  -0.029945  -0.035422  -0.035423   0.398672
     3  H    0.370892  -0.029945   0.583598  -0.030945  -0.030945   0.004891
     4  H    0.378695  -0.035422  -0.030945   0.579194  -0.032260  -0.005161
     5  H    0.378695  -0.035423  -0.030945  -0.032260   0.579196  -0.005161
     6  C   -0.048433   0.398672   0.004891  -0.005161  -0.005161   4.943257
     7  H   -0.039520   0.378385  -0.002973  -0.004778   0.005533  -0.040403
     8  H   -0.039519   0.378384  -0.002974   0.005533  -0.004778  -0.040401
     9  C    0.004753  -0.048432  -0.000196   0.000056   0.000056   0.376217
    10  H   -0.003281  -0.040401  -0.000027  -0.000430   0.005191   0.378383
    11  H   -0.003281  -0.040403  -0.000027   0.005191  -0.000430   0.378384
    12  H    0.000056  -0.005161   0.000001   0.000008   0.000001  -0.035423
    13  H   -0.000196   0.004891   0.000003   0.000001   0.000001  -0.029945
    14  H    0.000056  -0.005161   0.000001   0.000001   0.000008  -0.035422
               7          8          9         10         11         12
     1  C   -0.039520  -0.039519   0.004753  -0.003281  -0.003281   0.000056
     2  C    0.378385   0.378384  -0.048432  -0.040401  -0.040403  -0.005161
     3  H   -0.002973  -0.002974  -0.000196  -0.000027  -0.000027   0.000001
     4  H   -0.004778   0.005533   0.000056  -0.000430   0.005191   0.000008
     5  H    0.005533  -0.004778   0.000056   0.005191  -0.000430   0.000001
     6  C   -0.040403  -0.040401   0.376217   0.378383   0.378384  -0.035423
     7  H    0.611516  -0.039310  -0.003281   0.005956  -0.005528  -0.000430
     8  H   -0.039310   0.611514  -0.003281  -0.005530   0.005956   0.005191
     9  C   -0.003281  -0.003281   5.064032  -0.039520  -0.039519   0.378695
    10  H    0.005956  -0.005530  -0.039520   0.611516  -0.039310  -0.004778
    11  H   -0.005528   0.005956  -0.039519  -0.039310   0.611515   0.005533
    12  H   -0.000430   0.005191   0.378695  -0.004778   0.005533   0.579195
    13  H   -0.000027  -0.000027   0.370892  -0.002974  -0.002973  -0.030945
    14  H    0.005191  -0.000430   0.378695   0.005533  -0.004778  -0.032260
              13         14
     1  C   -0.000196   0.000056
     2  C    0.004891  -0.005161
     3  H    0.000003   0.000001
     4  H    0.000001   0.000001
     5  H    0.000001   0.000008
     6  C   -0.029945  -0.035422
     7  H   -0.000027   0.005191
     8  H   -0.000027  -0.000430
     9  C    0.370892   0.378695
    10  H   -0.002974   0.005533
    11  H   -0.002973  -0.004778
    12  H   -0.030945  -0.032260
    13  H    0.583597  -0.030944
    14  H   -0.030944   0.579194
 Mulliken charges:
               1
     1  C   -0.439167
     2  C   -0.239455
     3  H    0.138646
     4  H    0.140317
     5  H    0.140316
     6  C   -0.239456
     7  H    0.129672
     8  H    0.129673
     9  C   -0.439167
    10  H    0.129672
    11  H    0.129672
    12  H    0.140316
    13  H    0.138646
    14  H    0.140316
 Sum of Mulliken charges =   0.00000
 Mulliken charges with hydrogens summed into heavy atoms:
               1
     1  C   -0.019889
     2  C    0.019890
     6  C    0.019887
     9  C   -0.019888
 Electronic spatial extent (au):  <R**2>=            418.2430
 Charge=              0.0000 electrons
 Dipole moment (field-independent basis, Debye):
    X=              0.0000    Y=              0.0000    Z=              0.0000  Tot=              0.0000
 Quadrupole moment (field-independent basis, Debye-Ang):
   XX=            -29.1474   YY=            -28.1912   ZZ=            -27.5925
   XY=             -0.3248   XZ=              0.0000   YZ=              0.0000
 Traceless Quadrupole moment (field-independent basis, Debye-Ang):
   XX=             -0.8370   YY=              0.1191   ZZ=              0.7179
   XY=             -0.3248   XZ=              0.0000   YZ=              0.0000
 Octapole moment (field-independent basis, Debye-Ang**2):
  XXX=             -0.0002  YYY=              0.0000  ZZZ=              0.0001  XYY=              0.0000
  XXY=             -0.0001  XXZ=             -0.0001  XZZ=              0.0000  YZZ=              0.0000
  YYZ=             -0.0001  XYZ=              0.0000
 Hexadecapole moment (field-independent basis, Debye-Ang**3):
 XXXX=           -443.8896 YYYY=            -88.2984 ZZZZ=            -56.1493 XXXY=             -6.1067
 XXXZ=             -0.0002 YYYX=             -1.0857 YYYZ=              0.0000 ZZZX=              0.0000
 ZZZY=              0.0000 XXYY=            -85.1105 XXZZ=            -81.5388 YYZZ=            -22.0973
 XXYZ=              0.0000 YYXZ=              0.0000 ZZXY=              1.5907
 N-N= 1.311636257785D+02 E-N=-6.277686616153D+02  KE= 1.568957835295D+02
 Calling FoFJK, ICntrl=      2127 FMM=F ISym2X=0 I1Cent= 0 IOpClX= 0 NMat=1 NMatS=1 NMatT=0.
 ***** Axes restored to original set *****
 -------------------------------------------------------------------
 Center     Atomic                   Forces (Hartrees/Bohr)
 Number     Number              X              Y              Z
 -------------------------------------------------------------------
      1        6          -0.006283914   -0.000519573    0.001710488
      2        6           0.000470093    0.006656460   -0.002534609
      3        1          -0.002363607    0.002379939   -0.000292573
      4        1          -0.000525152    0.001422749   -0.000938330
      5        1          -0.000303404    0.001756542   -0.000017330
      6        6          -0.000467082   -0.006657591    0.002531631
      7        1           0.000684387   -0.002528701    0.000099245
      8        1           0.000949254   -0.002130418    0.001200433
      9        6           0.006280492    0.000523632   -0.001709070
     10        1          -0.000684657    0.002528641   -0.000100092
     11        1          -0.000949663    0.002129889   -0.001196881
     12        1           0.000526117   -0.001423221    0.000936864
     13        1           0.002362966   -0.002381005    0.000292816
     14        1           0.000304170   -0.001757342    0.000017408
 -------------------------------------------------------------------
 Cartesian Forces:  Max     0.006657591 RMS     0.002440330

 GradGradGradGradGradGradGradGradGradGradGradGradGradGradGradGradGradGrad
 Berny optimization.
 FormGI is forming the generalized inverse of G from B-inverse, IUseBI=4.
 Internal  Forces:  Max     0.009694720 RMS     0.002683184
 Search for a local minimum.
 Step number   1 out of a maximum of   74 on scan point     1 out of     7
 All quantities printed in internal units (Hartrees-Bohrs-Radians)
 Mixed Optimization -- RFO/linear search
 Second derivative matrix not updated -- first step.
 ITU=  0
     Eigenvalues ---    0.00497   0.00497   0.01639   0.03726   0.04933
     Eigenvalues ---    0.04933   0.05608   0.05608   0.05703   0.05703
     Eigenvalues ---    0.08172   0.08172   0.10565   0.12071   0.16000
     Eigenvalues ---    0.16000   0.16000   0.16000   0.16000   0.16000
     Eigenvalues ---    0.21905   0.21905   0.29669   0.30333   0.30334
     Eigenvalues ---    0.34099   0.34099   0.34099   0.34100   0.34276
     Eigenvalues ---    0.34276   0.34276   0.34277   0.34298   0.34298
     Eigenvalues --- 1000.000001000.000001000.000001000.000001000.00000
     Eigenvalues --- 1000.000001000.000001000.000001000.000001000.00000
     Eigenvalues --- 1000.000001000.000001000.000001000.000001000.00000
     Eigenvalues --- 1000.000001000.000001000.000001000.000001000.00000
     Eigenvalues --- 1000.000001000.000001000.000001000.000001000.00000
     Eigenvalues --- 1000.000001000.000001000.000001000.00000
 RFO step:  Lambda=-2.26001983D-03 EMin= 4.96800822D-03
 Linear search not attempted -- first point.
 Iteration  1 RMS(Cart)=  0.03310639 RMS(Int)=  0.00024481
 Iteration  2 RMS(Cart)=  0.00024924 RMS(Int)=  0.00016646
 Iteration  3 RMS(Cart)=  0.00000010 RMS(Int)=  0.00016646
 Iteration  1 RMS(Cart)=  0.00000001 RMS(Int)=  0.00000001
 Variable       Old X    -DE/DX   Delta X   Delta X   Delta X     New X
                                 (Linear)    (Quad)   (Total)
    R1        2.87303   0.00969   0.00000   0.03172   0.03172   2.90475
    R2        2.06830   0.00153   0.00000   0.00443   0.00443   2.07273
    R3        2.06866   0.00129   0.00000   0.00375   0.00375   2.07241
    R4        2.06866   0.00129   0.00000   0.00375   0.00375   2.07241
    R5        2.88628   0.00510   0.00000   0.01707   0.01707   2.90335
    R6        2.07163   0.00171   0.00000   0.00497   0.00497   2.07660
    R7        2.07162   0.00171   0.00000   0.00498   0.00498   2.07659
    R8        2.87304   0.00969   0.00000   0.03172   0.03172   2.90475
    R9        2.07163   0.00170   0.00000   0.00497   0.00497   2.07660
   R10        2.07163   0.00170   0.00000   0.00497   0.00497   2.07660
   R11        2.06866   0.00129   0.00000   0.00375   0.00375   2.07241
   R12        2.06830   0.00153   0.00000   0.00443   0.00443   2.07273
   R13        2.06866   0.00129   0.00000   0.00375   0.00375   2.07241
    A1        1.92444   0.00403   0.00000   0.02795   0.02782   1.95227
    A2        1.93734   0.00062   0.00000   0.00224   0.00218   1.93952
    A3        1.93734   0.00062   0.00000   0.00224   0.00218   1.93952
    A4        1.88634  -0.00207   0.00000  -0.00977  -0.00989   1.87645
    A5        1.88634  -0.00207   0.00000  -0.00977  -0.00989   1.87645
    A6        1.89037  -0.00135   0.00000  -0.01422  -0.01421   1.87616
    A7        1.94593   0.00719   0.00000   0.03884   0.03872   1.98464
    A8        1.90509  -0.00112   0.00000   0.00511   0.00522   1.91031
    A9        1.90510  -0.00112   0.00000   0.00511   0.00522   1.91032
   A10        1.91757  -0.00282   0.00000  -0.01615  -0.01657   1.90100
   A11        1.91757  -0.00282   0.00000  -0.01614  -0.01657   1.90100
   A12        1.87098   0.00042   0.00000  -0.01882  -0.01913   1.85185
   A13        1.94593   0.00719   0.00000   0.03883   0.03871   1.98464
   A14        1.91757  -0.00282   0.00000  -0.01614  -0.01657   1.90100
   A15        1.91757  -0.00282   0.00000  -0.01615  -0.01657   1.90100
   A16        1.90509  -0.00112   0.00000   0.00512   0.00523   1.91032
   A17        1.90509  -0.00112   0.00000   0.00511   0.00522   1.91031
   A18        1.87098   0.00042   0.00000  -0.01882  -0.01913   1.85185
   A19        1.93733   0.00062   0.00000   0.00225   0.00219   1.93952
   A20        1.92444   0.00403   0.00000   0.02795   0.02783   1.95226
   A21        1.93733   0.00062   0.00000   0.00225   0.00219   1.93952
   A22        1.88635  -0.00207   0.00000  -0.00978  -0.00989   1.87646
   A23        1.89038  -0.00135   0.00000  -0.01422  -0.01422   1.87616
   A24        1.88635  -0.00207   0.00000  -0.00978  -0.00990   1.87646
    D1       -3.14157   0.00000   0.00000  -0.00001  -0.00001  -3.14158
    D2        1.01993  -0.00038   0.00000  -0.00841  -0.00854   1.01139
    D3       -1.01988   0.00038   0.00000   0.00840   0.00853  -1.01135
    D4        1.05176  -0.00044   0.00000  -0.00749  -0.00753   1.04423
    D5       -1.06993  -0.00082   0.00000  -0.01589  -0.01606  -1.08599
    D6       -3.10974  -0.00006   0.00000   0.00091   0.00101  -3.10873
    D7       -1.05171   0.00044   0.00000   0.00748   0.00751  -1.04420
    D8        3.10979   0.00006   0.00000  -0.00092  -0.00102   3.10877
    D9        1.06998   0.00082   0.00000   0.01588   0.01605   1.08602
   D10       -3.14153   0.00000   0.00000   0.00000   0.00000  -3.14153
   D11        1.02723  -0.00143   0.00000  -0.02114  -0.02095   1.00628
   D12       -1.02710   0.00143   0.00000   0.02112   0.02093  -1.00617
   D13       -1.02710   0.00143   0.00000   0.02113   0.02094  -1.00617
   D14       -3.14153   0.00000   0.00000  -0.00001  -0.00001  -3.14154
   D15        1.08733   0.00285   0.00000   0.04225   0.04187   1.12920
   D16        1.02722  -0.00143   0.00000  -0.02113  -0.02094   1.00628
   D17       -1.08721  -0.00285   0.00000  -0.04227  -0.04188  -1.12909
   D18       -3.14153   0.00000   0.00000   0.00000   0.00000  -3.14154
   D19       -1.05170   0.00044   0.00000   0.00747   0.00750  -1.04420
   D20       -3.14156   0.00000   0.00000  -0.00001  -0.00001  -3.14157
   D21        1.05176  -0.00044   0.00000  -0.00749  -0.00753   1.04423
   D22        1.06998   0.00082   0.00000   0.01588   0.01604   1.08602
   D23       -1.01988   0.00038   0.00000   0.00840   0.00853  -1.01135
   D24       -3.10974  -0.00006   0.00000   0.00091   0.00101  -3.10873
   D25        3.10979   0.00006   0.00000  -0.00093  -0.00103   3.10877
   D26        1.01993  -0.00038   0.00000  -0.00841  -0.00854   1.01139
   D27       -1.06993  -0.00082   0.00000  -0.01589  -0.01605  -1.08598
         Item               Value     Threshold  Converged?
 Maximum Force            0.009695     0.000450     NO 
 RMS     Force            0.002704     0.000300     NO 
 Maximum Displacement     0.082238     0.001800     NO 
 RMS     Displacement     0.032955     0.001200     NO 
 Predicted change in Energy=-1.144584D-03
 GradGradGradGradGradGradGradGradGradGradGradGradGradGradGradGradGradGrad

                          Input orientation:                          
 ---------------------------------------------------------------------
 Center     Atomic      Atomic             Coordinates (Angstroms)
 Number     Number       Type             X           Y           Z
 ---------------------------------------------------------------------
      1          6           0       -5.906424    0.907015    0.032238
      2          6           0       -4.938656   -0.271362    0.226187
      3          1           0       -6.921549    0.661084    0.367057
      4          1           0       -5.968480    1.197923   -1.023324
      5          1           0       -5.576426    1.786732    0.597826
      6          6           0       -3.502200    0.027394   -0.229687
      7          1           0       -5.312361   -1.146191   -0.323879
      8          1           0       -4.923064   -0.561515    1.285961
      9          6           0       -2.534450   -1.151012   -0.035816
     10          1           0       -3.128475    0.902189    0.320419
     11          1           0       -3.517799    0.317601   -1.289446
     12          1           0       -2.472414   -1.442002    1.019724
     13          1           0       -1.519319   -0.905066   -0.370601
     14          1           0       -2.864454   -2.030680   -0.601478
 ---------------------------------------------------------------------
                    Distance matrix (angstroms):
                    1          2          3          4          5
     1  C    0.000000
     2  C    1.537128   0.000000
     3  H    1.096843   2.195714   0.000000
     4  H    1.096672   2.186461   1.769094   0.000000
     5  H    1.096673   2.186462   1.769094   1.768765   0.000000
     6  C    2.573446   1.536386   3.528400   2.842979   2.842967
     7  H    2.166883   1.098887   2.516569   2.532703   3.085662
     8  H    2.166886   1.098887   2.516560   3.085662   2.532721
     9  C    3.950988   2.573448   4.763678   4.276123   4.276150
    10  H    2.792861   2.159365   3.801015   3.155746   2.617601
    11  H    2.792810   2.159365   3.800986   2.617561   3.155644
    12  H    4.276147   2.842966   4.964247   4.833811   4.498624
    13  H    4.763675   3.528400   5.672835   4.964236   4.964247
    14  H    4.276123   2.842982   4.964239   4.498534   4.833814
                    6          7          8          9         10
     6  C    0.000000
     7  H    2.159364   0.000000
     8  H    2.159365   1.756411   0.000000
     9  C    1.537130   2.792810   2.792861   0.000000
    10  H    1.098887   3.062733   2.509033   2.166888   0.000000
    11  H    1.098887   2.509075   3.062733   2.166884   1.756412
    12  H    2.186462   3.155642   2.617599   1.096672   2.532721
    13  H    2.195714   3.800986   3.801014   1.096842   2.516557
    14  H    2.186462   2.617562   3.155748   1.096672   3.085663
                   11         12         13         14
    11  H    0.000000
    12  H    3.085661   0.000000
    13  H    2.516567   1.769095   0.000000
    14  H    2.532702   1.768766   1.769096   0.000000
 Stoichiometry    C4H10
 Framework group  C1[X(C4H10)]
 Deg. of freedom    36
 Full point group                 C1      NOp   1
 Largest Abelian subgroup         C1      NOp   1
 Largest concise Abelian subgroup C1      NOp   1
                         Standard orientation:                         
 ---------------------------------------------------------------------
 Center     Atomic      Atomic             Coordinates (Angstroms)
 Number     Number       Type             X           Y           Z
 ---------------------------------------------------------------------
      1          6           0       -1.971832   -0.120215    0.000020
      2          6           0       -0.571393    0.513450   -0.000023
      3          1           0       -2.763519    0.638927    0.000003
      4          1           0       -2.120001   -0.751529    0.884428
      5          1           0       -2.120026   -0.751596   -0.884337
      6          6           0        0.571392   -0.513450   -0.000023
      7          1           0       -0.464639    1.165322    0.878168
      8          1           0       -0.464671    1.165287   -0.878243
      9          6           0        1.971834    0.120215    0.000020
     10          1           0        0.464671   -1.165287   -0.878244
     11          1           0        0.464639   -1.165322    0.878168
     12          1           0        2.120024    0.751597   -0.884337
     13          1           0        2.763517   -0.638929    0.000000
     14          1           0        2.120002    0.751528    0.884429
 ---------------------------------------------------------------------
 Rotational constants (GHZ):     23.4988662      3.5640493      3.3517338
 Standard basis: 6-31G(d) (6D, 7F)
 There are    80 symmetry adapted cartesian basis functions of A   symmetry.
 There are    80 symmetry adapted basis functions of A   symmetry.
    80 basis functions,   152 primitive gaussians,    80 cartesian basis functions
    17 alpha electrons       17 beta electrons
       nuclear repulsion energy       129.8394657257 Hartrees.
 NAtoms=   14 NActive=   14 NUniq=   14 SFac= 1.00D+00 NAtFMM=   60 NAOKFM=F Big=F
 Integral buffers will be    131072 words long.
 Raffenetti 2 integral format.
 Two-electron integral symmetry is turned on.
 One-electron integrals computed using PRISM.
 NBasis=    80 RedAO= T EigKep=  4.82D-03  NBF=    80
 NBsUse=    80 1.00D-06 EigRej= -1.00D+00 NBFU=    80
 Initial guess from the checkpoint file:  "nbut.chk"
 B after Tr=     0.000000    0.000000    0.000000
         Rot=    1.000000    0.000000    0.000000    0.000422 Ang=  -0.05 deg.
 ExpMin= 1.61D-01 ExpMax= 3.05D+03 ExpMxC= 4.57D+02 IAcc=1 IRadAn=         1 AccDes= 0.00D+00
 Harris functional with IExCor=  402 and IRadAn=       1 diagonalized for initial guess.
 HarFok:  IExCor=  402 AccDes= 0.00D+00 IRadAn=         1 IDoV= 1 UseB2=F ITyADJ=14
 ICtDFT=  3500011 ScaDFX=  1.000000  1.000000  1.000000  1.000000
 FoFCou: FMM=F IPFlag=           0 FMFlag=      100000 FMFlg1=           0
         NFxFlg=           0 DoJE=T BraDBF=F KetDBF=T FulRan=T
         wScrn=  0.000000 ICntrl=     500 IOpCl=  0 I1Cent=   200000004 NGrid=           0
         NMat0=    1 NMatS0=      1 NMatT0=    0 NMatD0=    1 NMtDS0=    0 NMtDT0=    0
 Petite list used in FoFCou.
 Keep R1 ints in memory in canonical form, NReq=6193004.
 Requested convergence on RMS density matrix=1.00D-08 within 128 cycles.
 Requested convergence on MAX density matrix=1.00D-06.
 Requested convergence on             energy=1.00D-06.
 No special actions if energy rises.
 Integral accuracy reduced to 1.0D-05 until final iterations.
 Initial convergence to 1.0D-05 achieved.  Increase integral accuracy.
 SCF Done:  E(RB3LYP) =  -158.457968527     A.U. after   10 cycles
            NFock= 10  Conv=0.18D-08     -V/T= 2.0107
 Calling FoFJK, ICntrl=      2127 FMM=F ISym2X=0 I1Cent= 0 IOpClX= 0 NMat=1 NMatS=1 NMatT=0.
 ***** Axes restored to original set *****
 -------------------------------------------------------------------
 Center     Atomic                   Forces (Hartrees/Bohr)
 Number     Number              X              Y              Z
 -------------------------------------------------------------------
      1        6           0.001827033   -0.001269180    0.000019637
      2        6          -0.000156422    0.000370894   -0.000097634
      3        1           0.000848640   -0.000736239    0.000062148
      4        1           0.000153755    0.000100258   -0.000282702
      5        1           0.000238633    0.000227760    0.000068646
      6        6           0.000156832   -0.000371962    0.000096835
      7        1          -0.000510128   -0.000316305    0.000042256
      8        1          -0.000430474   -0.000196820    0.000371712
      9        6          -0.001827963    0.001270794   -0.000018746
     10        1           0.000510105    0.000316326   -0.000042318
     11        1           0.000430367    0.000196841   -0.000371722
     12        1          -0.000153499   -0.000100429    0.000282733
     13        1          -0.000848276    0.000736000   -0.000062205
     14        1          -0.000238604   -0.000227939   -0.000068642
 -------------------------------------------------------------------
 Cartesian Forces:  Max     0.001827963 RMS     0.000591284

 GradGradGradGradGradGradGradGradGradGradGradGradGradGradGradGradGradGrad
 Berny optimization.
 Using GEDIIS/GDIIS optimizer.
 FormGI is forming the generalized inverse of G from B-inverse, IUseBI=4.
 Internal  Forces:  Max     0.003210732 RMS     0.000814342
 Search for a local minimum.
 Step number   2 out of a maximum of   74 on scan point     1 out of     7
 All quantities printed in internal units (Hartrees-Bohrs-Radians)
 Mixed Optimization -- En-DIIS/RFO-DIIS
 Update second derivatives using D2CorX and points    1    2
 DE= -8.27D-04 DEPred=-1.14D-03 R= 7.22D-01
 TightC=F SS=  1.41D+00  RLast= 1.29D-01 DXNew= 5.0454D-01 3.8665D-01
 Trust test= 7.22D-01 RLast= 1.29D-01 DXMaxT set to 3.87D-01
 ITU=  1  0
 Use linear search instead of GDIIS.
     Eigenvalues ---    0.00497   0.00497   0.01551   0.03490   0.04830
     Eigenvalues ---    0.04864   0.05502   0.05502   0.05586   0.05603
     Eigenvalues ---    0.08566   0.08613   0.10875   0.12363   0.15935
     Eigenvalues ---    0.16000   0.16000   0.16000   0.16000   0.16541
     Eigenvalues ---    0.21914   0.23341   0.29718   0.30334   0.33418
     Eigenvalues ---    0.34055   0.34099   0.34099   0.34100   0.34229
     Eigenvalues ---    0.34276   0.34276   0.34277   0.34298   0.35831
     Eigenvalues --- 1000.000001000.000001000.000001000.000001000.00000
     Eigenvalues --- 1000.000001000.000001000.000001000.000001000.00000
     Eigenvalues --- 1000.000001000.000001000.000001000.000001000.00000
     Eigenvalues --- 1000.000001000.000001000.000001000.000001000.00000
     Eigenvalues --- 1000.000001000.000001000.000001000.000001000.00000
     Eigenvalues --- 1000.000001000.000001000.000001000.00000
 RFO step:  Lambda=-2.11520899D-05 EMin= 4.96800821D-03
 Quartic linear search produced a step of -0.20730.
 Iteration  1 RMS(Cart)=  0.00708734 RMS(Int)=  0.00003037
 Iteration  2 RMS(Cart)=  0.00001034 RMS(Int)=  0.00002938
 Iteration  3 RMS(Cart)=  0.00000000 RMS(Int)=  0.00002938
 Iteration  1 RMS(Cart)=  0.00000000 RMS(Int)=  0.00000000
 Variable       Old X    -DE/DX   Delta X   Delta X   Delta X     New X
                                 (Linear)    (Quad)   (Total)
    R1        2.90475  -0.00321  -0.00658  -0.00161  -0.00818   2.89657
    R2        2.07273  -0.00060  -0.00092  -0.00043  -0.00135   2.07138
    R3        2.07241   0.00029  -0.00078   0.00147   0.00069   2.07310
    R4        2.07241   0.00029  -0.00078   0.00146   0.00069   2.07310
    R5        2.90335  -0.00142  -0.00354  -0.00014  -0.00367   2.89967
    R6        2.07660   0.00041  -0.00103   0.00201   0.00098   2.07757
    R7        2.07659   0.00041  -0.00103   0.00201   0.00098   2.07757
    R8        2.90475  -0.00321  -0.00657  -0.00161  -0.00818   2.89657
    R9        2.07660   0.00041  -0.00103   0.00200   0.00098   2.07757
   R10        2.07660   0.00041  -0.00103   0.00201   0.00098   2.07757
   R11        2.07241   0.00029  -0.00078   0.00146   0.00069   2.07310
   R12        2.07273  -0.00060  -0.00092  -0.00043  -0.00135   2.07138
   R13        2.07241   0.00029  -0.00078   0.00146   0.00069   2.07310
    A1        1.95227  -0.00135  -0.00577  -0.00127  -0.00701   1.94525
    A2        1.93952   0.00012  -0.00045   0.00128   0.00084   1.94036
    A3        1.93952   0.00012  -0.00045   0.00128   0.00084   1.94037
    A4        1.87645   0.00060   0.00205   0.00041   0.00248   1.87894
    A5        1.87645   0.00060   0.00205   0.00041   0.00248   1.87894
    A6        1.87616  -0.00001   0.00295  -0.00221   0.00073   1.87689
    A7        1.98464  -0.00203  -0.00803   0.00048  -0.00752   1.97712
    A8        1.91031   0.00041  -0.00108   0.00089  -0.00020   1.91011
    A9        1.91032   0.00041  -0.00108   0.00089  -0.00020   1.91012
   A10        1.90100   0.00088   0.00344   0.00090   0.00441   1.90541
   A11        1.90100   0.00088   0.00343   0.00090   0.00441   1.90541
   A12        1.85185  -0.00043   0.00397  -0.00443  -0.00041   1.85144
   A13        1.98464  -0.00203  -0.00802   0.00048  -0.00752   1.97712
   A14        1.90100   0.00088   0.00343   0.00090   0.00441   1.90541
   A15        1.90100   0.00088   0.00344   0.00090   0.00441   1.90541
   A16        1.91032   0.00041  -0.00108   0.00090  -0.00020   1.91012
   A17        1.91031   0.00041  -0.00108   0.00089  -0.00020   1.91011
   A18        1.85185  -0.00043   0.00397  -0.00443  -0.00041   1.85144
   A19        1.93952   0.00012  -0.00045   0.00129   0.00084   1.94036
   A20        1.95226  -0.00135  -0.00577  -0.00127  -0.00701   1.94525
   A21        1.93952   0.00012  -0.00045   0.00129   0.00084   1.94036
   A22        1.87646   0.00060   0.00205   0.00041   0.00248   1.87894
   A23        1.87616  -0.00001   0.00295  -0.00222   0.00073   1.87689
   A24        1.87646   0.00060   0.00205   0.00041   0.00248   1.87894
    D1       -3.14158   0.00000   0.00000  -0.00001   0.00000  -3.14158
    D2        1.01139  -0.00003   0.00177  -0.00216  -0.00036   1.01103
    D3       -1.01135   0.00003  -0.00177   0.00215   0.00036  -1.01100
    D4        1.04423   0.00007   0.00156  -0.00055   0.00102   1.04525
    D5       -1.08599   0.00004   0.00333  -0.00270   0.00066  -1.08533
    D6       -3.10873   0.00010  -0.00021   0.00161   0.00138  -3.10735
    D7       -1.04420  -0.00007  -0.00156   0.00054  -0.00103  -1.04523
    D8        3.10877  -0.00010   0.00021  -0.00162  -0.00139   3.10738
    D9        1.08602  -0.00004  -0.00333   0.00269  -0.00066   1.08536
   D10       -3.14153   0.00000   0.00000   0.00000   0.00000  -3.14153
   D11        1.00628   0.00022   0.00434  -0.00215   0.00216   1.00845
   D12       -1.00617  -0.00022  -0.00434   0.00214  -0.00217  -1.00833
   D13       -1.00617  -0.00022  -0.00434   0.00214  -0.00217  -1.00833
   D14       -3.14154   0.00000   0.00000   0.00000   0.00000  -3.14154
   D15        1.12920  -0.00043  -0.00868   0.00428  -0.00433   1.12487
   D16        1.00628   0.00022   0.00434  -0.00214   0.00216   1.00845
   D17       -1.12909   0.00043   0.00868  -0.00429   0.00433  -1.12476
   D18       -3.14154   0.00000   0.00000   0.00000   0.00000  -3.14154
   D19       -1.04420  -0.00007  -0.00156   0.00054  -0.00103  -1.04523
   D20       -3.14157   0.00000   0.00000  -0.00001  -0.00001  -3.14158
   D21        1.04423   0.00007   0.00156  -0.00055   0.00102   1.04525
   D22        1.08602  -0.00004  -0.00333   0.00269  -0.00066   1.08536
   D23       -1.01135   0.00003  -0.00177   0.00215   0.00036  -1.01099
   D24       -3.10873   0.00010  -0.00021   0.00161   0.00138  -3.10735
   D25        3.10877  -0.00010   0.00021  -0.00162  -0.00139   3.10738
   D26        1.01139  -0.00003   0.00177  -0.00216  -0.00037   1.01103
   D27       -1.08598   0.00004   0.00333  -0.00270   0.00066  -1.08533
         Item               Value     Threshold  Converged?
 Maximum Force            0.003211     0.000450     NO 
 RMS     Force            0.000821     0.000300     NO 
 Maximum Displacement     0.019111     0.001800     NO 
 RMS     Displacement     0.007095     0.001200     NO 
 Predicted change in Energy=-6.830647D-05
 GradGradGradGradGradGradGradGradGradGradGradGradGradGradGradGradGradGrad

                          Input orientation:                          
 ---------------------------------------------------------------------
 Center     Atomic      Atomic             Coordinates (Angstroms)
 Number     Number       Type             X           Y           Z
 ---------------------------------------------------------------------
      1          6           0       -5.898296    0.903367    0.031597
      2          6           0       -4.936802   -0.274297    0.226805
      3          1           0       -6.911437    0.653671    0.367299
      4          1           0       -5.959844    1.193819   -1.024498
      5          1           0       -5.567561    1.782978    0.597626
      6          6           0       -3.504054    0.030330   -0.230304
      7          1           0       -5.312970   -1.148837   -0.323073
      8          1           0       -4.923552   -0.563979    1.287275
      9          6           0       -2.542579   -1.147364   -0.035175
     10          1           0       -3.127864    0.904836    0.319611
     11          1           0       -3.517312    0.320063   -1.290760
     12          1           0       -2.481042   -1.437894    1.020900
     13          1           0       -1.529432   -0.897657   -0.370851
     14          1           0       -2.873324   -2.026927   -0.601271
 ---------------------------------------------------------------------
                    Distance matrix (angstroms):
                    1          2          3          4          5
     1  C    0.000000
     2  C    1.532798   0.000000
     3  H    1.096129   2.186332   0.000000
     4  H    1.097036   2.183516   1.770420   0.000000
     5  H    1.097036   2.183517   1.770420   1.769825   0.000000
     6  C    2.561870   1.534442   3.515102   2.831140   2.831131
     7  H    2.163316   1.099404   2.506141   2.529522   3.083511
     8  H    2.163320   1.099403   2.506135   3.083512   2.529539
     9  C    3.933293   2.561871   4.742640   4.258826   4.258856
    10  H    2.785363   2.161301   3.792200   3.148055   2.607786
    11  H    2.785311   2.161300   3.792168   2.607740   3.147959
    12  H    4.258855   2.831130   4.942695   4.817845   4.481046
    13  H    4.742639   3.515102   5.649554   4.942679   4.942695
    14  H    4.258826   2.831141   4.942680   4.480952   4.817846
                    6          7          8          9         10
     6  C    0.000000
     7  H    2.161300   0.000000
     8  H    2.161301   1.756965   0.000000
     9  C    1.532799   2.785311   2.785362   0.000000
    10  H    1.099403   3.066807   2.513619   2.163321   0.000000
    11  H    1.099403   2.513657   3.066807   2.163317   1.756965
    12  H    2.183517   3.147957   2.607784   1.097036   2.529539
    13  H    2.186332   3.792168   3.792199   1.096129   2.506134
    14  H    2.183516   2.607740   3.148055   1.097036   3.083512
                   11         12         13         14
    11  H    0.000000
    12  H    3.083511   0.000000
    13  H    2.506141   1.770420   0.000000
    14  H    2.529521   1.769826   1.770421   0.000000
 Stoichiometry    C4H10
 Framework group  C1[X(C4H10)]
 Deg. of freedom    36
 Full point group                 C1      NOp   1
 Largest Abelian subgroup         C1      NOp   1
 Largest concise Abelian subgroup C1      NOp   1
                         Standard orientation:                         
 ---------------------------------------------------------------------
 Center     Atomic      Atomic             Coordinates (Angstroms)
 Number     Number       Type             X           Y           Z
 ---------------------------------------------------------------------
      1          6           0       -1.962909   -0.121178    0.000020
      2          6           0       -0.568474    0.515233   -0.000023
      3          1           0       -2.751218    0.640445    0.000007
      4          1           0       -2.110303   -0.752566    0.884956
      5          1           0       -2.110331   -0.752626   -0.884869
      6          6           0        0.568473   -0.515234   -0.000023
      7          1           0       -0.464127    1.167992    0.878446
      8          1           0       -0.464159    1.167958   -0.878519
      9          6           0        1.962910    0.121178    0.000020
     10          1           0        0.464160   -1.167958   -0.878520
     11          1           0        0.464127   -1.167991    0.878446
     12          1           0        2.110330    0.752627   -0.884869
     13          1           0        2.751217   -0.640446    0.000005
     14          1           0        2.110303    0.752565    0.884957
 ---------------------------------------------------------------------
 Rotational constants (GHZ):     23.4000906      3.5950037      3.3773051
 Standard basis: 6-31G(d) (6D, 7F)
 There are    80 symmetry adapted cartesian basis functions of A   symmetry.
 There are    80 symmetry adapted basis functions of A   symmetry.
    80 basis functions,   152 primitive gaussians,    80 cartesian basis functions
    17 alpha electrons       17 beta electrons
       nuclear repulsion energy       130.1008694865 Hartrees.
 NAtoms=   14 NActive=   14 NUniq=   14 SFac= 1.00D+00 NAtFMM=   60 NAOKFM=F Big=F
 Integral buffers will be    131072 words long.
 Raffenetti 2 integral format.
 Two-electron integral symmetry is turned on.
 One-electron integrals computed using PRISM.
 NBasis=    80 RedAO= T EigKep=  4.75D-03  NBF=    80
 NBsUse=    80 1.00D-06 EigRej= -1.00D+00 NBFU=    80
 Initial guess from the checkpoint file:  "nbut.chk"
 B after Tr=     0.000000    0.000000    0.000000
         Rot=    1.000000    0.000000    0.000000   -0.000062 Ang=  -0.01 deg.
 Keep R1 ints in memory in canonical form, NReq=6193004.
 Requested convergence on RMS density matrix=1.00D-08 within 128 cycles.
 Requested convergence on MAX density matrix=1.00D-06.
 Requested convergence on             energy=1.00D-06.
 No special actions if energy rises.
 SCF Done:  E(RB3LYP) =  -158.458040783     A.U. after    8 cycles
            NFock=  8  Conv=0.11D-08     -V/T= 2.0106
 Calling FoFJK, ICntrl=      2127 FMM=F ISym2X=0 I1Cent= 0 IOpClX= 0 NMat=1 NMatS=1 NMatT=0.
 ***** Axes restored to original set *****
 -------------------------------------------------------------------
 Center     Atomic                   Forces (Hartrees/Bohr)
 Number     Number              X              Y              Z
 -------------------------------------------------------------------
      1        6           0.000141576   -0.000396671    0.000110368
      2        6           0.000016387    0.000701694   -0.000259378
      3        1           0.000026150    0.000020820   -0.000013912
      4        1           0.000028056    0.000063013   -0.000007883
      5        1           0.000019158    0.000049702   -0.000044450
      6        6          -0.000016322   -0.000702355    0.000258518
      7        1           0.000005092   -0.000120448    0.000060589
      8        1          -0.000002259   -0.000131475    0.000030258
      9        6          -0.000141842    0.000397544   -0.000109479
     10        1          -0.000005135    0.000120477   -0.000060590
     11        1           0.000002220    0.000131538   -0.000030275
     12        1          -0.000027915   -0.000063072    0.000007915
     13        1          -0.000026020   -0.000020948    0.000013852
     14        1          -0.000019143   -0.000049818    0.000044469
 -------------------------------------------------------------------
 Cartesian Forces:  Max     0.000702355 RMS     0.000194862

 GradGradGradGradGradGradGradGradGradGradGradGradGradGradGradGradGradGrad
 Berny optimization.
 Using GEDIIS/GDIIS optimizer.
 FormGI is forming the generalized inverse of G from B-inverse, IUseBI=4.
 Internal  Forces:  Max     0.000352212 RMS     0.000079378
 Search for a local minimum.
 Step number   3 out of a maximum of   74 on scan point     1 out of     7
 All quantities printed in internal units (Hartrees-Bohrs-Radians)
 Mixed Optimization -- En-DIIS/RFO-DIIS
 Swapping is turned off.
 Update second derivatives using D2CorX and points    1    2    3
 DE= -7.23D-05 DEPred=-6.83D-05 R= 1.06D+00
 TightC=F SS=  1.41D+00  RLast= 2.34D-02 DXNew= 6.5026D-01 7.0068D-02
 Trust test= 1.06D+00 RLast= 2.34D-02 DXMaxT set to 3.87D-01
 ITU=  1  1  0
     Eigenvalues ---    0.00497   0.00497   0.01564   0.03525   0.04822
     Eigenvalues ---    0.04871   0.05543   0.05543   0.05581   0.05611
     Eigenvalues ---    0.08498   0.08619   0.10823   0.12314   0.15893
     Eigenvalues ---    0.16000   0.16000   0.16000   0.16000   0.16635
     Eigenvalues ---    0.21903   0.24104   0.29578   0.30334   0.31738
     Eigenvalues ---    0.33557   0.34099   0.34099   0.34100   0.34237
     Eigenvalues ---    0.34276   0.34276   0.34277   0.34298   0.34492
     Eigenvalues --- 1000.000001000.000001000.000001000.000001000.00000
     Eigenvalues --- 1000.000001000.000001000.000001000.000001000.00000
     Eigenvalues --- 1000.000001000.000001000.000001000.000001000.00000
     Eigenvalues --- 1000.000001000.000001000.000001000.000001000.00000
     Eigenvalues --- 1000.000001000.000001000.000001000.000001000.00000
     Eigenvalues --- 1000.000001000.000001000.000001000.00000
 En-DIIS/RFO-DIIS IScMMF=        0 using points:     3    2
 RFO step:  Lambda=-8.84973407D-07.
 DidBck=F Rises=F RFO-DIIS coefs:    1.03252   -0.03252
 Iteration  1 RMS(Cart)=  0.00046032 RMS(Int)=  0.00000032
 Iteration  2 RMS(Cart)=  0.00000027 RMS(Int)=  0.00000027
 Iteration  1 RMS(Cart)=  0.00000000 RMS(Int)=  0.00000000
 Variable       Old X    -DE/DX   Delta X   Delta X   Delta X     New X
                                 (Linear)    (Quad)   (Total)
    R1        2.89657  -0.00035  -0.00027  -0.00097  -0.00124   2.89533
    R2        2.07138  -0.00003  -0.00004  -0.00005  -0.00009   2.07129
    R3        2.07310   0.00002   0.00002   0.00006   0.00008   2.07318
    R4        2.07310   0.00002   0.00002   0.00006   0.00008   2.07318
    R5        2.89967  -0.00027  -0.00012  -0.00085  -0.00097   2.89871
    R6        2.07757   0.00007   0.00003   0.00019   0.00023   2.07780
    R7        2.07757   0.00007   0.00003   0.00019   0.00023   2.07780
    R8        2.89657  -0.00035  -0.00027  -0.00097  -0.00124   2.89533
    R9        2.07757   0.00007   0.00003   0.00019   0.00023   2.07780
   R10        2.07757   0.00007   0.00003   0.00019   0.00023   2.07780
   R11        2.07310   0.00002   0.00002   0.00006   0.00008   2.07318
   R12        2.07138  -0.00003  -0.00004  -0.00005  -0.00009   2.07129
   R13        2.07310   0.00002   0.00002   0.00006   0.00008   2.07318
    A1        1.94525   0.00001  -0.00023   0.00044   0.00021   1.94546
    A2        1.94036   0.00002   0.00003   0.00006   0.00009   1.94045
    A3        1.94037   0.00002   0.00003   0.00006   0.00009   1.94045
    A4        1.87894   0.00000   0.00008   0.00006   0.00015   1.87908
    A5        1.87894   0.00000   0.00008   0.00006   0.00015   1.87908
    A6        1.87689  -0.00006   0.00002  -0.00072  -0.00070   1.87619
    A7        1.97712   0.00005  -0.00024   0.00076   0.00052   1.97764
    A8        1.91011   0.00003  -0.00001   0.00049   0.00048   1.91059
    A9        1.91012   0.00003  -0.00001   0.00049   0.00048   1.91060
   A10        1.90541  -0.00003   0.00014  -0.00029  -0.00014   1.90527
   A11        1.90541  -0.00003   0.00014  -0.00029  -0.00014   1.90527
   A12        1.85144  -0.00005  -0.00001  -0.00131  -0.00132   1.85012
   A13        1.97712   0.00005  -0.00024   0.00076   0.00052   1.97764
   A14        1.90541  -0.00003   0.00014  -0.00029  -0.00014   1.90527
   A15        1.90541  -0.00003   0.00014  -0.00029  -0.00014   1.90527
   A16        1.91012   0.00003  -0.00001   0.00049   0.00048   1.91060
   A17        1.91011   0.00003  -0.00001   0.00049   0.00048   1.91059
   A18        1.85144  -0.00005  -0.00001  -0.00131  -0.00132   1.85012
   A19        1.94036   0.00002   0.00003   0.00006   0.00009   1.94045
   A20        1.94525   0.00001  -0.00023   0.00044   0.00021   1.94546
   A21        1.94036   0.00002   0.00003   0.00006   0.00009   1.94045
   A22        1.87894   0.00000   0.00008   0.00006   0.00014   1.87908
   A23        1.87689  -0.00006   0.00002  -0.00072  -0.00070   1.87619
   A24        1.87894   0.00000   0.00008   0.00006   0.00014   1.87908
    D1       -3.14158   0.00000   0.00000   0.00000   0.00000  -3.14159
    D2        1.01103  -0.00002  -0.00001  -0.00051  -0.00053   1.01050
    D3       -1.01100   0.00002   0.00001   0.00051   0.00052  -1.01048
    D4        1.04525  -0.00002   0.00003  -0.00042  -0.00039   1.04486
    D5       -1.08533  -0.00004   0.00002  -0.00093  -0.00091  -1.08624
    D6       -3.10735   0.00000   0.00004   0.00009   0.00014  -3.10721
    D7       -1.04523   0.00002  -0.00003   0.00041   0.00038  -1.04485
    D8        3.10738   0.00000  -0.00005  -0.00010  -0.00014   3.10724
    D9        1.08536   0.00004  -0.00002   0.00093   0.00090   1.08626
   D10       -3.14153   0.00000   0.00000   0.00000   0.00000  -3.14153
   D11        1.00845  -0.00005   0.00007  -0.00094  -0.00087   1.00758
   D12       -1.00833   0.00005  -0.00007   0.00094   0.00087  -1.00746
   D13       -1.00833   0.00005  -0.00007   0.00094   0.00087  -1.00746
   D14       -3.14154   0.00000   0.00000   0.00000   0.00000  -3.14154
   D15        1.12487   0.00009  -0.00014   0.00188   0.00174   1.12660
   D16        1.00845  -0.00005   0.00007  -0.00094  -0.00087   1.00758
   D17       -1.12476  -0.00009   0.00014  -0.00188  -0.00174  -1.12650
   D18       -3.14154   0.00000   0.00000   0.00000   0.00000  -3.14154
   D19       -1.04523   0.00002  -0.00003   0.00041   0.00038  -1.04485
   D20       -3.14158   0.00000   0.00000   0.00000  -0.00001  -3.14158
   D21        1.04525  -0.00002   0.00003  -0.00042  -0.00039   1.04486
   D22        1.08536   0.00004  -0.00002   0.00092   0.00090   1.08626
   D23       -1.01099   0.00002   0.00001   0.00051   0.00052  -1.01048
   D24       -3.10735   0.00000   0.00004   0.00009   0.00013  -3.10721
   D25        3.10738   0.00000  -0.00005  -0.00010  -0.00014   3.10724
   D26        1.01103  -0.00002  -0.00001  -0.00052  -0.00053   1.01050
   D27       -1.08533  -0.00004   0.00002  -0.00093  -0.00091  -1.08624
         Item               Value     Threshold  Converged?
 Maximum Force            0.000352     0.000450     YES
 RMS     Force            0.000080     0.000300     YES
 Maximum Displacement     0.000999     0.001800     YES
 RMS     Displacement     0.000461     0.001200     YES
 Predicted change in Energy=-1.126546D-06
 Optimization completed.
    -- Stationary point found.
                           ----------------------------
                           !   Optimized Parameters   !
                           ! (Angstroms and Degrees)  !
 --------------------------                            --------------------------
 ! Name  Definition              Value          Derivative Info.                !
 --------------------------------------------------------------------------------
 ! R1    R(1,2)                  1.5328         -DE/DX =   -0.0004              !
 ! R2    R(1,3)                  1.0961         -DE/DX =    0.0                 !
 ! R3    R(1,4)                  1.097          -DE/DX =    0.0                 !
 ! R4    R(1,5)                  1.097          -DE/DX =    0.0                 !
 ! R5    R(2,6)                  1.5344         -DE/DX =   -0.0003              !
 ! R6    R(2,7)                  1.0994         -DE/DX =    0.0001              !
 ! R7    R(2,8)                  1.0994         -DE/DX =    0.0001              !
 ! R8    R(6,9)                  1.5328         -DE/DX =   -0.0004              !
 ! R9    R(6,10)                 1.0994         -DE/DX =    0.0001              !
 ! R10   R(6,11)                 1.0994         -DE/DX =    0.0001              !
 ! R11   R(9,12)                 1.097          -DE/DX =    0.0                 !
 ! R12   R(9,13)                 1.0961         -DE/DX =    0.0                 !
 ! R13   R(9,14)                 1.097          -DE/DX =    0.0                 !
 ! A1    A(2,1,3)              111.4547         -DE/DX =    0.0                 !
 ! A2    A(2,1,4)              111.1747         -DE/DX =    0.0                 !
 ! A3    A(2,1,5)              111.1748         -DE/DX =    0.0                 !
 ! A4    A(3,1,4)              107.6551         -DE/DX =    0.0                 !
 ! A5    A(3,1,5)              107.6551         -DE/DX =    0.0                 !
 ! A6    A(4,1,5)              107.5377         -DE/DX =   -0.0001              !
 ! A7    A(1,2,6)              113.2809         -DE/DX =    0.0                 !
 ! A8    A(1,2,7)              109.4413         -DE/DX =    0.0                 !
 ! A9    A(1,2,8)              109.4416         -DE/DX =    0.0                 !
 ! A10   A(6,2,7)              109.172          -DE/DX =    0.0                 !
 ! A11   A(6,2,8)              109.1721         -DE/DX =    0.0                 !
 ! A12   A(7,2,8)              106.0797         -DE/DX =   -0.0001              !
 ! A13   A(2,6,9)              113.2809         -DE/DX =    0.0                 !
 ! A14   A(2,6,10)             109.1721         -DE/DX =    0.0                 !
 ! A15   A(2,6,11)             109.172          -DE/DX =    0.0                 !
 ! A16   A(9,6,10)             109.4415         -DE/DX =    0.0                 !
 ! A17   A(9,6,11)             109.4412         -DE/DX =    0.0                 !
 ! A18   A(10,6,11)            106.0797         -DE/DX =   -0.0001              !
 ! A19   A(6,9,12)             111.1747         -DE/DX =    0.0                 !
 ! A20   A(6,9,13)             111.4547         -DE/DX =    0.0                 !
 ! A21   A(6,9,14)             111.1746         -DE/DX =    0.0                 !
 ! A22   A(12,9,13)            107.6551         -DE/DX =    0.0                 !
 ! A23   A(12,9,14)            107.5378         -DE/DX =   -0.0001              !
 ! A24   A(13,9,14)            107.6552         -DE/DX =    0.0                 !
 ! D1    D(3,1,2,6)           -179.9993         -DE/DX =    0.0                 !
 ! D2    D(3,1,2,7)             57.9275         -DE/DX =    0.0                 !
 ! D3    D(3,1,2,8)            -57.9258         -DE/DX =    0.0                 !
 ! D4    D(4,1,2,6)             59.8884         -DE/DX =    0.0                 !
 ! D5    D(4,1,2,7)            -62.1847         -DE/DX =    0.0                 !
 ! D6    D(4,1,2,8)           -178.038          -DE/DX =    0.0                 !
 ! D7    D(5,1,2,6)            -59.8871         -DE/DX =    0.0                 !
 ! D8    D(5,1,2,7)            178.0397         -DE/DX =    0.0                 !
 ! D9    D(5,1,2,8)             62.1865         -DE/DX =    0.0                 !
 ! D10   D(1,2,6,9)           -179.9965         -DE/DX =    0.0                 !
 ! D11   D(1,2,6,10)            57.7797         -DE/DX =    0.0                 !
 ! D12   D(1,2,6,11)           -57.7733         -DE/DX =    0.0                 !
 ! D13   D(7,2,6,9)            -57.7732         -DE/DX =    0.0                 !
 ! D14   D(7,2,6,10)          -179.997          -DE/DX =    0.0                 !
 ! D15   D(7,2,6,11)            64.45           -DE/DX =    0.0001              !
 ! D16   D(8,2,6,9)             57.7797         -DE/DX =    0.0                 !
 ! D17   D(8,2,6,10)           -64.4441         -DE/DX =   -0.0001              !
 ! D18   D(8,2,6,11)          -179.997          -DE/DX =    0.0                 !
 ! D19   D(2,6,9,12)           -59.887          -DE/DX =    0.0                 !
 ! D20   D(2,6,9,13)          -179.9992         -DE/DX =    0.0                 !
 ! D21   D(2,6,9,14)            59.8885         -DE/DX =    0.0                 !
 ! D22   D(10,6,9,12)           62.1866         -DE/DX =    0.0                 !
 ! D23   D(10,6,9,13)          -57.9257         -DE/DX =    0.0                 !
 ! D24   D(10,6,9,14)         -178.0379         -DE/DX =    0.0                 !
 ! D25   D(11,6,9,12)          178.0398         -DE/DX =    0.0                 !
 ! D26   D(11,6,9,13)           57.9276         -DE/DX =    0.0                 !
 ! D27   D(11,6,9,14)          -62.1847         -DE/DX =    0.0                 !
 --------------------------------------------------------------------------------
 Iteration  1 RMS(Cart)=  0.02859483 RMS(Int)=  0.05813247
 Iteration  2 RMS(Cart)=  0.00983367 RMS(Int)=  0.05628254
 Iteration  3 RMS(Cart)=  0.00334783 RMS(Int)=  0.05574083
 Iteration  4 RMS(Cart)=  0.00114228 RMS(Int)=  0.05556674
 Iteration  5 RMS(Cart)=  0.00038982 RMS(Int)=  0.05550860
 Iteration  6 RMS(Cart)=  0.00013303 RMS(Int)=  0.05548891
 Iteration  7 RMS(Cart)=  0.00004540 RMS(Int)=  0.05548221
 Iteration  8 RMS(Cart)=  0.00001549 RMS(Int)=  0.05547992
 Iteration  9 RMS(Cart)=  0.00000529 RMS(Int)=  0.05547914
 Iteration 10 RMS(Cart)=  0.00000180 RMS(Int)=  0.05547888
 Iteration 11 RMS(Cart)=  0.00000062 RMS(Int)=  0.05547878
 Iteration  1 RMS(Cart)=  0.02863374 RMS(Int)=  0.04551390
 Iteration  2 RMS(Cart)=  0.02870404 RMS(Int)=  0.04262351
 Iteration  3 RMS(Cart)=  0.02879988 RMS(Int)=  0.04459436
 Iteration  4 RMS(Cart)=  0.02891814 RMS(Int)=  0.05085147
 Iteration  5 RMS(Cart)=  0.02142639 RMS(Int)=  0.05742252
 Iteration  6 RMS(Cart)=  0.01423100 RMS(Int)=  0.06240111
 Iteration  7 RMS(Cart)=  0.00945141 RMS(Int)=  0.06590881
 Iteration  8 RMS(Cart)=  0.00627696 RMS(Int)=  0.06831097
 Iteration  9 RMS(Cart)=  0.00416871 RMS(Int)=  0.06993433
 Iteration 10 RMS(Cart)=  0.00276858 RMS(Int)=  0.07102377
 Iteration 11 RMS(Cart)=  0.00183872 RMS(Int)=  0.07175201
 Iteration 12 RMS(Cart)=  0.00122118 RMS(Int)=  0.07223766
 Iteration 13 RMS(Cart)=  0.00081104 RMS(Int)=  0.07256106
 Iteration 14 RMS(Cart)=  0.00053866 RMS(Int)=  0.07277622
 Iteration 15 RMS(Cart)=  0.00035775 RMS(Int)=  0.07291928
 Iteration 16 RMS(Cart)=  0.00023760 RMS(Int)=  0.07301436
 Iteration 17 RMS(Cart)=  0.00015781 RMS(Int)=  0.07307755
 Iteration 18 RMS(Cart)=  0.00010481 RMS(Int)=  0.07311952
 Iteration 19 RMS(Cart)=  0.00006961 RMS(Int)=  0.07314741
 Iteration 20 RMS(Cart)=  0.00004623 RMS(Int)=  0.07316593
 Iteration 21 RMS(Cart)=  0.00003070 RMS(Int)=  0.07317824
 Iteration 22 RMS(Cart)=  0.00002039 RMS(Int)=  0.07318641
 Iteration 23 RMS(Cart)=  0.00001354 RMS(Int)=  0.07319184
 Iteration 24 RMS(Cart)=  0.00000900 RMS(Int)=  0.07319544
 Iteration 25 RMS(Cart)=  0.00000597 RMS(Int)=  0.07319783
 Iteration 26 RMS(Cart)=  0.00000397 RMS(Int)=  0.07319942
 Iteration 27 RMS(Cart)=  0.00000264 RMS(Int)=  0.07320048
 Iteration 28 RMS(Cart)=  0.00000175 RMS(Int)=  0.07320118
 Iteration 29 RMS(Cart)=  0.00000116 RMS(Int)=  0.07320165
 Iteration 30 RMS(Cart)=  0.00000077 RMS(Int)=  0.07320196
 GradGradGradGradGradGradGradGradGradGradGradGradGradGradGradGradGradGrad

                          Input orientation:                          
 ---------------------------------------------------------------------
 Center     Atomic      Atomic             Coordinates (Angstroms)
 Number     Number       Type             X           Y           Z
 ---------------------------------------------------------------------
      1          6           0       -5.891650    0.840419   -0.074524
      2          6           0       -4.881793   -0.188156    0.455754
      3          1           0       -6.921108    0.559962    0.177733
      4          1           0       -5.830303    0.930122   -1.168401
      5          1           0       -5.705119    1.836458    0.351185
      6          6           0       -3.447923    0.111089    0.000328
      7          1           0       -5.263513   -1.058726   -0.096835
      8          1           0       -4.857569   -0.475709    1.516739
      9          6           0       -2.600979   -1.162135   -0.143063
     10          1           0       -3.081105    0.985872    0.556352
     11          1           0       -3.456690    0.395260   -1.061805
     12          1           0       -2.449241   -1.650190    0.830021
     13          1           0       -1.611561   -0.941807   -0.560893
     14          1           0       -3.087517   -1.890350   -0.807411
 ---------------------------------------------------------------------
                    Distance matrix (angstroms):
                    1          2          3          4          5
     1  C    0.000000
     2  C    1.535895   0.000000
     3  H    1.096392   2.189928   0.000000
     4  H    1.099261   2.188171   1.771708   0.000000
     5  H    1.099143   2.188118   1.771485   1.773769   0.000000
     6  C    2.551338   1.533930   3.506562   2.777134   2.862679
     7  H    2.000452   1.099526   2.333059   2.329167   2.962740
     8  H    2.309466   1.099528   2.669034   3.183166   2.724513
     9  C    3.852718   2.551338   4.661764   3.982133   4.344137
    10  H    2.884150   2.151961   3.882058   3.245915   2.766051
    11  H    2.664942   2.162007   3.683174   2.435462   3.021427
    12  H    4.344136   2.862679   5.030691   4.699285   4.794449
    13  H    4.661764   3.506562   5.567062   4.655208   5.030692
    14  H    3.982133   2.777134   4.655208   3.950728   4.699285
                    6          7          8          9         10
     6  C    0.000000
     7  H    2.162007   0.000000
     8  H    2.151961   1.763042   0.000000
     9  C    1.535895   2.664942   2.884150   0.000000
    10  H    1.099528   3.061035   2.492867   2.309466   0.000000
    11  H    1.099526   2.511942   3.061035   2.000452   1.763042
    12  H    2.188118   3.021427   2.766050   1.099143   2.724513
    13  H    2.189928   3.683174   3.882058   1.096392   2.669034
    14  H    2.188171   2.435462   3.245915   1.099261   3.183165
                   11         12         13         14
    11  H    0.000000
    12  H    2.962740   0.000000
    13  H    2.333059   1.771485   0.000000
    14  H    2.329167   1.773769   1.771709   0.000000
 Stoichiometry    C4H10
 Framework group  C1[X(C4H10)]
 Deg. of freedom    36
 Full point group                 C1      NOp   1
 Largest Abelian subgroup         C1      NOp   1
 Largest concise Abelian subgroup C1      NOp   1
                         Standard orientation:                         
 ---------------------------------------------------------------------
 Center     Atomic      Atomic             Coordinates (Angstroms)
 Number     Number       Type             X           Y           Z
 ---------------------------------------------------------------------
      1          6           0       -1.922353   -0.124165    0.156167
      2          6           0       -0.572700    0.510148   -0.211332
      3          1           0       -2.710746    0.632374    0.246491
      4          1           0       -1.862596   -0.657874    1.115312
      5          1           0       -2.242357   -0.847656   -0.606902
      6          6           0        0.572700   -0.510148   -0.211332
      7          1           0       -0.478180    1.161381    0.669530
      8          1           0       -0.462905    1.157288   -1.093442
      9          6           0        1.922353    0.124165    0.156167
     10          1           0        0.462905   -1.157288   -1.093442
     11          1           0        0.478180   -1.161381    0.669530
     12          1           0        2.242357    0.847657   -0.606901
     13          1           0        2.710746   -0.632374    0.246490
     14          1           0        1.862596    0.657873    1.115313
 ---------------------------------------------------------------------
 Rotational constants (GHZ):     21.5119338      3.6692612      3.4960965
 Standard basis: 6-31G(d) (6D, 7F)
 There are    80 symmetry adapted cartesian basis functions of A   symmetry.
 There are    80 symmetry adapted basis functions of A   symmetry.
    80 basis functions,   152 primitive gaussians,    80 cartesian basis functions
    17 alpha electrons       17 beta electrons
       nuclear repulsion energy       130.4347390904 Hartrees.
 NAtoms=   14 NActive=   14 NUniq=   14 SFac= 1.00D+00 NAtFMM=   60 NAOKFM=F Big=F
 Integral buffers will be    131072 words long.
 Raffenetti 2 integral format.
 Two-electron integral symmetry is turned on.
 One-electron integrals computed using PRISM.
 NBasis=    80 RedAO= T EigKep=  4.49D-03  NBF=    80
 NBsUse=    80 1.00D-06 EigRej= -1.00D+00 NBFU=    80
 Initial guess from the checkpoint file:  "nbut.chk"
 B after Tr=     0.000000    0.000000    0.000000
         Rot=    0.999998    0.000000    0.000000   -0.002147 Ang=   0.25 deg.
 ExpMin= 1.61D-01 ExpMax= 3.05D+03 ExpMxC= 4.57D+02 IAcc=1 IRadAn=         1 AccDes= 0.00D+00
 Harris functional with IExCor=  402 and IRadAn=       1 diagonalized for initial guess.
 HarFok:  IExCor=  402 AccDes= 0.00D+00 IRadAn=         1 IDoV= 1 UseB2=F ITyADJ=14
 ICtDFT=  3500011 ScaDFX=  1.000000  1.000000  1.000000  1.000000
 FoFCou: FMM=F IPFlag=           0 FMFlag=      100000 FMFlg1=           0
         NFxFlg=           0 DoJE=T BraDBF=F KetDBF=T FulRan=T
         wScrn=  0.000000 ICntrl=     500 IOpCl=  0 I1Cent=   200000004 NGrid=           0
         NMat0=    1 NMatS0=      1 NMatT0=    0 NMatD0=    1 NMtDS0=    0 NMtDT0=    0
 Petite list used in FoFCou.
 Keep R1 ints in memory in canonical form, NReq=6193004.
 Requested convergence on RMS density matrix=1.00D-08 within 128 cycles.
 Requested convergence on MAX density matrix=1.00D-06.
 Requested convergence on             energy=1.00D-06.
 No special actions if energy rises.
 Integral accuracy reduced to 1.0D-05 until final iterations.
 Initial convergence to 1.0D-05 achieved.  Increase integral accuracy.
 SCF Done:  E(RB3LYP) =  -158.441795768     A.U. after   12 cycles
            NFock= 12  Conv=0.35D-08     -V/T= 2.0105
 Calling FoFJK, ICntrl=      2127 FMM=F ISym2X=0 I1Cent= 0 IOpClX= 0 NMat=1 NMatS=1 NMatT=0.
 ***** Axes restored to original set *****
 -------------------------------------------------------------------
 Center     Atomic                   Forces (Hartrees/Bohr)
 Number     Number              X              Y              Z
 -------------------------------------------------------------------
      1        6          -0.000183760    0.015129990    0.021168855
      2        6          -0.003620574   -0.011712279   -0.029308292
      3        1           0.000008245    0.000492505    0.000592579
      4        1           0.002591096   -0.002665175    0.003100710
      5        1          -0.002734623    0.001911172   -0.002058372
      6        6          -0.010371632   -0.009300134   -0.028551698
      7        1           0.011488131   -0.012404385    0.006478834
[...]
           R6           1.09940   1.09967   1.09851   1.09869   1.09984
           R7           1.09940   1.09821   1.09747   1.09825   1.09842
           R8           1.53280   1.53238   1.53312   1.53361   1.53309
           R9           1.09940   1.09821   1.09747   1.09825   1.09842
           R10          1.09940   1.09967   1.09851   1.09869   1.09984
           R11          1.09704   1.09747   1.09695   1.09673   1.09764
           R12          1.09613   1.09626   1.09640   1.09625   1.09611
           R13          1.09704   1.09674   1.09723   1.09726   1.09553
           A1         111.45474 111.51745 111.58551 111.49506 110.99974
           A2         111.17466 110.80798 111.02756 111.64895 111.89293
           A3         111.17475 111.49210 111.15550 110.79036 111.17908
           A4         107.65512 107.79797 107.72457 107.46800 107.38852
           A5         107.65508 107.57521 107.70374 107.74596 107.58350
           A6         107.53774 107.45994 107.45610 107.49551 107.59005
           A7         113.28091 113.49901 113.52054 113.54791 114.62988
           A8         109.44125 108.25740 108.83519 110.01429 109.12181
           A9         109.44158 110.17652 109.10667 108.26297 109.11751
           A10        109.17196 108.88365 109.37247 109.47161 108.98610
           A11        109.17206 109.93446 110.04452 109.33171 108.61441
           A12        106.07969 105.77645 105.65554 105.92219 106.02152
           A13        113.28091 113.49901 113.52054 113.54791 114.62988
           A14        109.17208 109.93446 110.04451 109.33171 108.61441
           A15        109.17199 108.88364 109.37247 109.47161 108.98610
           A16        109.44153 110.17652 109.10668 108.26297 109.11750
           A17        109.44122 108.25741 108.83519 110.01429 109.12181
           A18        106.07972 105.77644 105.65554 105.92219 106.02153
           A19        111.17469 111.49210 111.15551 110.79036 111.17908
           A20        111.45466 111.51745 111.58551 111.49505 110.99974
           A21        111.17463 110.80799 111.02756 111.64895 111.89292
           A22        107.65514 107.57521 107.70374 107.74596 107.58350
           A23        107.53779 107.45994 107.45610 107.49552 107.59005
           A24        107.65519 107.79797 107.72457 107.46800 107.38853
           D1        -179.99933-179.23095 179.05982 178.26200-176.40524
           D2          57.92749  59.76766  57.00719  55.18709  61.06378
           D3         -57.92578 -55.46143 -57.82170 -60.13174 -54.36215
           D4          59.88843  60.68205  58.87116  58.03651  63.64463
           D5         -62.18475 -60.31935 -63.18148 -65.03840 -58.88635
           D6        -178.03802-175.54843-178.01036 179.64277-174.31228
           D7         -59.88707 -58.96098 -60.69066 -61.74359 -56.68571
           D8         178.03974-179.96238 177.25670 175.18150-179.21669
           D9          62.18647  64.80854  62.42782  59.86267  65.35738
           D10       -179.99654-149.99679-119.99641 -89.99645 -59.99671
           D11         57.77972  86.10186 117.40141 148.99544 177.68699
           D12        -57.77326 -29.34798   1.75729  33.37583  62.60765
           D13        -57.77324 -29.34799   1.75729  33.37583  62.60765
           D14       -179.99698-153.24934-120.84489 -87.63228 -59.70865
           D15         64.45004  91.30082 123.51100 156.74811-174.78799
           D16         57.77968  86.10186 117.40141 148.99544 177.68699
           D17        -64.44406 -37.79949  -5.20077  27.98733  55.37069
           D18       -179.99704-153.24934-120.84488 -87.63228 -59.70865
           D19        -59.88699 -58.96092 -60.69073 -61.74358 -56.68596
           D20       -179.99923-179.23089 179.05975 178.26201-176.40550
           D21         59.88852  60.68210  58.87109  58.03652  63.64438
           D22         62.18656  64.80860  62.42774  59.86268  65.35713
           D23        -57.92568 -55.46137 -57.82177 -60.13173 -54.36241
           D24       -178.03794-175.54838-178.01043 179.64278-174.31253
           D25        178.03981-179.96232 177.25662 175.18151-179.21694
           D26         57.92757  59.76771  57.00711  55.18710  61.06353
           D27        -62.18468 -60.31929 -63.18155 -65.03839 -58.88660
                           6         7
     Eigenvalues --  -158.45277-158.44897
           R1           1.53347   1.53481
           R2           1.09614   1.09626
           R3           1.09489   1.09582
           R4           1.09760   1.09582
           R5           1.54970   1.56172
           R6           1.09954   1.09739
           R7           1.09730   1.09739
           R8           1.53347   1.53481
           R9           1.09730   1.09739
           R10          1.09954   1.09739
           R11          1.09760   1.09582
           R12          1.09614   1.09626
           R13          1.09489   1.09582
           A1         110.46982 110.14084
           A2         111.64229 112.06273
           A3         111.99477 112.06534
           A4         107.53968 107.37571
           A5         107.37358 107.37372
           A6         107.60632 107.59016
           A7         115.91811 116.80430
           A8         107.46156 108.09447
           A9         109.72225 108.09451
           A10        108.67939 108.95342
           A11        108.93208 108.95569
           A12        105.62572 105.33905
           A13        115.91812 116.80429
           A14        108.93208 108.95568
           A15        108.67939 108.95342
           A16        109.72224 108.09451
           A17        107.46157 108.09447
           A18        105.62572 105.33905
           A19        111.99477 112.06533
           A20        110.46981 110.14085
           A21        111.64230 112.06274
           A22        107.37359 107.37372
           A23        107.60632 107.59016
           A24        107.53967 107.37570
           D1        -178.31892-180.00866
           D2          59.93504  56.76738
           D3         -54.44121 -56.78165
           D4          62.06491  60.52796
           D5         -59.68114 -62.69599
           D6        -174.05738-176.24502
           D7         -58.68069 -60.54610
           D8         179.57326 176.22994
           D9          65.19701  62.68092
           D10        -29.99676   0.00336
           D11       -154.28405-122.77937
           D12         91.09885 122.78419
           D13         91.09883 122.78418
           D14        -33.18846   0.00145
           D15       -147.80556-114.43499
           D16       -154.28407-122.77937
           D17         81.42864 114.43789
           D18        -33.18846   0.00145
           D19        -58.68097 -60.54614
           D20       -178.31919-180.00870
           D21         62.06464  60.52792
           D22         65.19672  62.68087
           D23        -54.44150 -56.78169
           D24       -174.05767-176.24507
           D25        179.57297 176.22990
           D26         59.93475  56.76734
           D27        -59.68142 -62.69604
                          Input orientation:                          
 ---------------------------------------------------------------------
 Center     Atomic      Atomic             Coordinates (Angstroms)
 Number     Number       Type             X           Y           Z
 ---------------------------------------------------------------------
      1          6           0       -5.773919   -0.010262   -0.317472
      2          6           0       -4.802457    0.299944    0.829559
      3          1           0       -6.796371    0.261330   -0.030056
      4          1           0       -5.778639   -1.075073   -0.576274
      5          1           0       -5.529742    0.550462   -1.226748
      6          6           0       -3.295560   -0.029067    0.584629
      7          1           0       -5.144754   -0.239946    1.721530
      8          1           0       -4.898921    1.364120    1.079517
      9          6           0       -2.931376   -0.630817   -0.779523
     10          1           0       -2.949989   -0.719156    1.364766
     11          1           0       -2.704142    0.884931    0.722810
     12          1           0       -3.438272   -1.586070   -0.956628
     13          1           0       -1.852534   -0.817726   -0.833754
     14          1           0       -3.189393    0.039440   -1.607175
 ---------------------------------------------------------------------
                    Distance matrix (angstroms):
                    1          2          3          4          5
     1  C    0.000000
     2  C    1.534811   0.000000
     3  H    1.096256   2.171663   0.000000
     4  H    1.095821   2.195443   1.766382   0.000000
     5  H    1.095818   2.195473   1.766357   1.768455   0.000000
     6  C    2.637500   1.561723   3.566209   2.933856   2.934027
     7  H    2.146190   1.097388   2.459100   2.525698   3.076574
     8  H    2.146188   1.097385   2.459190   3.076558   2.525635
     9  C    2.945952   2.637500   4.036807   2.888872   2.889107
    10  H    3.362594   2.180975   4.207320   3.448996   3.870788
    11  H    3.362601   2.180947   4.207377   3.870629   3.449154
    12  H    2.889107   2.934027   3.943127   2.425512   3.001996
    13  H    4.036807   3.566209   5.123653   3.942947   3.943127
    14  H    2.888872   2.933855   3.942946   3.001515   2.425511
                    6          7          8          9         10
     6  C    0.000000
     7  H    2.180947   0.000000
     8  H    2.180975   1.745177   0.000000
     9  C    1.534811   3.362601   3.362594   0.000000
    10  H    1.097385   2.274625   2.867009   2.146188   0.000000
    11  H    1.097388   2.866946   2.274625   2.146190   1.745177
    12  H    2.195473   3.449154   3.870789   1.095818   2.525635
    13  H    2.171663   4.207377   4.207319   1.096256   2.459190
    14  H    2.195443   3.870629   3.448996   1.095821   3.076558
                   11         12         13         14
    11  H    0.000000
    12  H    3.076574   0.000000
    13  H    2.459099   1.766357   0.000000
    14  H    2.525698   1.768455   1.766382   0.000000
 Stoichiometry    C4H10
 Framework group  C1[X(C4H10)]
 Deg. of freedom    36
 Full point group                 C1      NOp   1
 Largest Abelian subgroup         C1      NOp   1
 Largest concise Abelian subgroup C1      NOp   1
                         Standard orientation:                         
 ---------------------------------------------------------------------
 Center     Atomic      Atomic             Coordinates (Angstroms)
 Number     Number       Type             X           Y           Z
 ---------------------------------------------------------------------
      1          6           0       -1.472976   -0.648528    0.000009
      2          6           0       -0.780861    0.721371   -0.000016
      3          1           0       -2.561827   -0.521322    0.000139
      4          1           0       -1.212634   -1.241209    0.884190
      5          1           0       -1.212877   -1.241171   -0.884265
      6          6           0        0.780861    0.721371    0.000016
      7          1           0       -1.137310    1.283338    0.872565
      8          1           0       -1.137314    1.283307   -0.872612
      9          6           0        1.472976   -0.648528   -0.000009
     10          1           0        1.137314    1.283307    0.872612
     11          1           0        1.137311    1.283338   -0.872565
     12          1           0        1.212877   -1.241170    0.884265
     13          1           0        2.561827   -0.521322   -0.000139
     14          1           0        1.212634   -1.241210   -0.884190
 ---------------------------------------------------------------------
 Rotational constants (GHZ):     11.9789206      5.1940716      3.9779381

 **********************************************************************

            Population analysis using the SCF density.

 **********************************************************************

 Orbital symmetries:
       Occupied  (A) (A) (A) (A) (A) (A) (A) (A) (A) (A) (A) (A)
                 (A) (A) (A) (A) (A)
       Virtual   (A) (A) (A) (A) (A) (A) (A) (A) (A) (A) (A) (A)
                 (A) (A) (A) (A) (A) (A) (A) (A) (A) (A) (A) (A)
                 (A) (A) (A) (A) (A) (A) (A) (A) (A) (A) (A) (A)
                 (A) (A) (A) (A) (A) (A) (A) (A) (A) (A) (A) (A)
                 (A) (A) (A) (A) (A) (A) (A) (A) (A) (A) (A) (A)
                 (A) (A) (A)
 The electronic state is 1-A.
 Alpha  occ. eigenvalues --  -10.17628 -10.17611 -10.16924 -10.16923  -0.78238
 Alpha  occ. eigenvalues --   -0.71352  -0.63912  -0.55580  -0.45919  -0.44252
 Alpha  occ. eigenvalues --   -0.40332  -0.38457  -0.37213  -0.36073  -0.32327
 Alpha  occ. eigenvalues --   -0.31811  -0.30487
 Alpha virt. eigenvalues --    0.08531   0.12822   0.12956   0.15136   0.15360
 Alpha virt. eigenvalues --    0.16699   0.18672   0.20031   0.20165   0.20848
 Alpha virt. eigenvalues --    0.25821   0.25954   0.31524   0.50898   0.51341
 Alpha virt. eigenvalues --    0.53081   0.59132   0.60033   0.60252   0.64700
 Alpha virt. eigenvalues --    0.65984   0.67818   0.73695   0.85417   0.86357
 Alpha virt. eigenvalues --    0.87636   0.87865   0.88129   0.88636   0.91486
 Alpha virt. eigenvalues --    0.91894   0.96730   0.97389   1.00896   1.01301
 Alpha virt. eigenvalues --    1.03185   1.35246   1.36649   1.42929   1.46092
 Alpha virt. eigenvalues --    1.65536   1.76178   1.81879   1.84584   1.92454
 Alpha virt. eigenvalues --    1.95310   1.99960   2.03853   2.08509   2.18974
 Alpha virt. eigenvalues --    2.24369   2.28816   2.31127   2.38012   2.38359
 Alpha virt. eigenvalues --    2.44182   2.53599   2.64669   2.72709   4.10272
 Alpha virt. eigenvalues --    4.27592   4.32664   4.56616
          Condensed to atoms (all electrons):
               1          2          3          4          5          6
     1  C    5.051187   0.383926   0.373349   0.379383   0.379384  -0.042751
     2  C    0.383926   4.958597  -0.029533  -0.034190  -0.034186   0.365095
     3  H    0.373349  -0.029533   0.582253  -0.031970  -0.031974   0.004505
     4  H    0.379383  -0.034190  -0.031970   0.577434  -0.033673  -0.004046
     5  H    0.379384  -0.034186  -0.031974  -0.033673   0.577435  -0.004042
     6  C   -0.042751   0.365095   0.004505  -0.004046  -0.004042   4.958597
     7  H   -0.040780   0.381337  -0.003089  -0.004559   0.005284  -0.036391
     8  H   -0.040781   0.381338  -0.003085   0.005284  -0.004562  -0.036388
     9  C   -0.011024  -0.042751   0.000293   0.001200   0.001198   0.383926
    10  H    0.002711  -0.036388  -0.000126   0.000402  -0.000084   0.381338
    11  H    0.002712  -0.036391  -0.000126  -0.000083   0.000402   0.381337
    12  H    0.001198  -0.004042  -0.000040   0.001379   0.000168  -0.034186
    13  H    0.000293   0.004505  -0.000008  -0.000040  -0.000040  -0.029533
    14  H    0.001200  -0.004046  -0.000040   0.000168   0.001379  -0.034190
               7          8          9         10         11         12
     1  C   -0.040780  -0.040781  -0.011024   0.002711   0.002712   0.001198
     2  C    0.381337   0.381338  -0.042751  -0.036388  -0.036391  -0.004042
     3  H   -0.003089  -0.003085   0.000293  -0.000126  -0.000126  -0.000040
     4  H   -0.004559   0.005284   0.001200   0.000402  -0.000083   0.001379
     5  H    0.005284  -0.004562   0.001198  -0.000084   0.000402   0.000168
     6  C   -0.036391  -0.036388   0.383926   0.381338   0.381337  -0.034186
     7  H    0.608719  -0.039919   0.002712  -0.011393   0.004354   0.000402
     8  H   -0.039919   0.608716   0.002711   0.004354  -0.011393  -0.000084
     9  C    0.002712   0.002711   5.051187  -0.040781  -0.040780   0.379384
    10  H   -0.011393   0.004354  -0.040781   0.608716  -0.039919  -0.004562
    11  H    0.004354  -0.011393  -0.040780  -0.039919   0.608719   0.005284
    12  H    0.000402  -0.000084   0.379384  -0.004562   0.005284   0.577435
    13  H   -0.000126  -0.000126   0.373349  -0.003085  -0.003089  -0.031974
    14  H   -0.000083   0.000402   0.379383   0.005284  -0.004559  -0.033673
              13         14
     1  C    0.000293   0.001200
     2  C    0.004505  -0.004046
     3  H   -0.000008  -0.000040
     4  H   -0.000040   0.000168
     5  H   -0.000040   0.001379
     6  C   -0.029533  -0.034190
     7  H   -0.000126  -0.000083
     8  H   -0.000126   0.000402
     9  C    0.373349   0.379383
    10  H   -0.003085   0.005284
    11  H   -0.003089  -0.004559
    12  H   -0.031974  -0.033673
    13  H    0.582253  -0.031970
    14  H   -0.031970   0.577434
 Mulliken charges:
               1
     1  C   -0.440008
     2  C   -0.253272
     3  H    0.139591
     4  H    0.143312
     5  H    0.143312
     6  C   -0.253272
     7  H    0.133532
     8  H    0.133533
     9  C   -0.440008
    10  H    0.133533
    11  H    0.133532
    12  H    0.143312
    13  H    0.139591
    14  H    0.143312
 Sum of Mulliken charges =   0.00000
 Mulliken charges with hydrogens summed into heavy atoms:
               1
     1  C   -0.013793
     2  C    0.013793
     6  C    0.013793
     9  C   -0.013793
 Electronic spatial extent (au):  <R**2>=            378.1111
 Charge=              0.0000 electrons
 Dipole moment (field-independent basis, Debye):
    X=              0.0000    Y=              0.0716    Z=              0.0000  Tot=              0.0716
 Quadrupole moment (field-independent basis, Debye-Ang):
   XX=            -28.3206   YY=            -28.4924   ZZ=            -27.6660
   XY=              0.0000   XZ=              0.0001   YZ=              0.0000
 Traceless Quadrupole moment (field-independent basis, Debye-Ang):
   XX=             -0.1609   YY=             -0.3327   ZZ=              0.4936
   XY=              0.0000   XZ=              0.0001   YZ=              0.0000
 Octapole moment (field-independent basis, Debye-Ang**2):
  XXX=              0.0000  YYY=              0.3701  ZZZ=              0.0000  XYY=              0.0000
  XXY=              0.9446  XXZ=              0.0000  XZZ=              0.0000  YZZ=              0.0056
  YYZ=              0.0000  XYZ=             -0.0003
 Hexadecapole moment (field-independent basis, Debye-Ang**3):
 XXXX=           -307.2871 YYYY=           -152.2096 ZZZZ=            -55.6719 XXXY=              0.0000
 XXXZ=             -0.0006 YYYX=              0.0000 YYYZ=              0.0000 ZZZX=              0.0008
 ZZZY=              0.0000 XXYY=            -79.9853 XXZZ=            -62.6352 YYZZ=            -31.6075
 XXYZ=              0.0000 YYXZ=              0.0005 ZZXY=              0.0000
 N-N= 1.319129181605D+02 E-N=-6.292040253726D+02  KE= 1.567870813400D+02
 1\1\GINC-CPU-E-328\Scan\RB3LYP\6-31G(d)\C4H10\AM2145\26-May-2021\0\\#n
  B3LYP/6-31G(d) Opt=ModRedundant\\nbut\\0,1\C,-5.7739192531,-0.0102617
 813,-0.3174718442\C,-4.8024571417,0.2999442109,0.8295586065\H,-6.79637
 09885,0.261330399,-0.0300564958\H,-5.7786394525,-1.0750734182,-0.57627
 36293\H,-5.5297420998,0.5504622809,-1.2267484123\C,-3.2955600553,-0.02
 90669809,0.5846294433\H,-5.1447541496,-0.2399456046,1.7215299839\H,-4.
 8989210547,1.3641200411,1.0795167837\C,-2.9313761911,-0.6308173621,-0.
 779522939\H,-2.9499888812,-0.7191556619,1.3647658221\H,-2.7041419041,0
 .8849307798,0.7228099187\H,-3.4382721348,-1.586070265,-0.9566281278\H,
 -1.852533519,-0.8177261465,-0.8337544147\H,-3.1893931746,0.0394395089,
 -1.6071746952\\Version=ES64L-G09RevD.01\State=1-A\HF=-158.4580408,-158
 .4555207,-158.452714,-158.4550083,-158.4566086,-158.452774,-158.448973
 2\RMSD=1.080e-09,3.557e-09,3.802e-09,8.178e-09,5.100e-09,1.817e-09,3.3
 30e-09\PG=C01 [X(C4H10)]\\@


 ON A CLEAR DISK YOU CAN SEEK FOREVER.
 Job cpu time:       0 days  1 hours 54 minutes  7.7 seconds.
 File lengths (MBytes):  RWF=      6 Int=      0 D2E=      0 Chk=      2 Scr=      1
 Normal termination of Gaussian 09 at Wed May 26 15:19:48 2021.
