 Entering Gaussian System, Link 0=g09
 Initial command:
 /usr/local/Cluster-Apps/gaussian/g09/l1.exe "/rds/user/am2145/hpc-work/scratch/42233004/Gau-106591.inp" -scrdir="/rds/user/am2145/hpc-work/scratch/42233004/"
 Entering Link 1 = /usr/local/Cluster-Apps/gaussian/g09/l1.exe PID=    106592.
  
 Copyright (c) 1988,1990,1992,1993,1995,1998,2003,2009,2013,
            Gaussian, Inc.  All Rights Reserved.
  
 This is part of the Gaussian(R) 09 program.  It is based on
 the Gaussian(R) 03 system (copyright 2003, Gaussian, Inc.),
 the Gaussian(R) 98 system (copyright 1998, Gaussian, Inc.),
 the Gaussian(R) 94 system (copyright 1995, Gaussian, Inc.),
 the Gaussian 92(TM) system (copyright 1992, Gaussian, Inc.),
 the Gaussian 90(TM) system (copyright 1990, Gaussian, Inc.),
 the Gaussian 88(TM) system (copyright 1988, Gaussian, Inc.),
 the Gaussian 86(TM) system (copyright 1986, Carnegie Mellon
 University), and the Gaussian 82(TM) system (copyright 1983,
 Carnegie Mellon University). Gaussian is a federally registered
 trademark of Gaussian, Inc.
  
 This software contains proprietary and confidential information,
 including trade secrets, belonging to Gaussian, Inc.
  
 This software is provided under written license and may be
 used, copied, transmitted, or stored only in accord with that
 written license.
  
 The following legend is applicable only to US Government
 contracts under FAR:
  
                    RESTRICTED RIGHTS LEGEND
  
 Use, reproduction and disclosure by the US Government is
 subject to restrictions as set forth in subparagraphs (a)
 and (c) of the Commercial Computer Software - Restricted
 Rights clause in FAR 52.227-19.
  
 Gaussian, Inc.
 340 Quinnipiac St., Bldg. 40, Wallingford CT 06492
  
  
 ---------------------------------------------------------------
 Warning -- This program may not be used in any manner that
 competes with the business of Gaussian, Inc. or will provide
 assistance to any competitor of Gaussian, Inc.  The licensee
 of this program is prohibited from giving any competitor of
 Gaussian, Inc. access to this program.  By using this program,
 the user acknowledges that Gaussian, Inc. is engaged in the
 business of creating and licensing software in the field of
 computational chemistry and represents and warrants to the
 licensee that it is not a competitor of Gaussian, Inc. and that
 it will not use this program in any manner prohibited above.
 ---------------------------------------------------------------
  

 Cite this work as:
 Gaussian 09, Revision D.01,
 M. J. Frisch, G. W. Trucks, H. B. Schlegel, G. E. Scuseria, 
 M. A. Robb, J. R. Cheeseman, G. Scalmani, V. Barone, B. Mennucci, 
 G. A. Petersson, H. Nakatsuji, M. Caricato, X. Li, H. P. Hratchian, 
 A. F. Izmaylov, J. Bloino, G. Zheng, J. L. Sonnenberg, M. Hada, 
 M. Ehara, K. Toyota, R. Fukuda, J. Hasegawa, M. Ishida, T. Nakajima, 
 Y. Honda, O. Kitao, H. Nakai, T. Vreven, J. A. Montgomery, Jr., 
 J. E. Peralta, F. Ogliaro, M. Bearpark, J. J. Heyd, E. Brothers, 
 K. N. Kudin, V. N. Staroverov, T. Keith, R. Kobayashi, J. Normand, 
 K. Raghavachari, A. Rendell, J. C. Burant, S. S. Iyengar, J. Tomasi, 
 M. Cossi, N. Rega, J. M. Millam, M. Klene, J. E. Knox, J. B. Cross, 
 V. Bakken, C. Adamo, J. Jaramillo, R. Gomperts, R. E. Stratmann, 
 O. Yazyev, A. J. Austin, R. Cammi, C. Pomelli, J. W. Ochterski, 
 R. L. Martin, K. Morokuma, V. G. Zakrzewski, G. A. Voth, 
 P. Salvador, J. J. Dannenberg, S. Dapprich, A. D. Daniels, 
 O. Farkas, J. B. Foresman, J. V. Ortiz, J. Cioslowski, 
 and D. J. Fox, Gaussian, Inc., Wallingford CT, 2013.
 
 ******************************************
 Gaussian 09:  ES64L-G09RevD.01 24-Apr-2013
                16-Jun-2021 
 ******************************************
 %nprocshared=20
 Will use up to   20 processors via shared memory.
 %mem=32GB
 %chk=ethane_2_rigid.chk
 ----------------
 # b3lyp/6-31g(d)
 ----------------
 1/38=1/1;
 2/12=2,17=6,18=5,40=1/2;
 3/5=1,6=6,7=1,11=2,16=1,25=1,30=1,74=-5/1,2,3;
 4//1;
 5/5=2,38=5/2;
 6/7=2,8=2,9=2,10=2,28=1/1;
 99/5=1,9=1/99;
 -----------------
 ethane_scan_rigid
 -----------------
 Symbolic Z-matrix:
 Charge =  0 Multiplicity = 1
 C                     0.        0.       -0.86537 
 C                     0.        0.        0.86537 
 H                     1.0185    0.        1.26351 
 H                    -0.50925  -0.88205   1.26351 
 H                    -0.50925   0.88204   1.26351 
 H                     0.50925  -0.88204  -1.26351 
 H                     0.50925   0.88205  -1.26351 
 H                    -1.0185    0.       -1.26351 
 
                          Input orientation:                          
 ---------------------------------------------------------------------
 Center     Atomic      Atomic             Coordinates (Angstroms)
 Number     Number       Type             X           Y           Z
 ---------------------------------------------------------------------
      1          6           0        0.000000    0.000000   -0.865370
      2          6           0        0.000000    0.000000    0.865370
      3          1           0        1.018496    0.000000    1.263512
      4          1           0       -0.509246   -0.882045    1.263512
      5          1           0       -0.509249    0.882044    1.263511
      6          1           0        0.509249   -0.882044   -1.263511
      7          1           0        0.509246    0.882045   -1.263512
      8          1           0       -1.018496    0.000000   -1.263512
 ---------------------------------------------------------------------
                    Distance matrix (angstroms):
                    1          2          3          4          5
     1  C    0.000000
     2  C    1.730740   0.000000
     3  H    2.359973   1.093550   0.000000
     4  H    2.359973   1.093550   1.764086   0.000000
     5  H    2.359973   1.093550   1.764088   1.764089   0.000000
     6  H    1.093550   2.359973   2.724551   2.724551   3.245795
     7  H    1.093550   2.359973   2.724553   3.245796   2.724551
     8  H    1.093550   2.359973   3.245795   2.724553   2.724551
                    6          7          8
     6  H    0.000000
     7  H    1.764089   0.000000
     8  H    1.764088   1.764086   0.000000
 This structure is nearly, but not quite of a higher symmetry.
 Consider Symm=Loose if the higher symmetry is desired.
 Stoichiometry    C2H6
 Framework group  CI[X(C2H6)]
 Deg. of freedom     9
 Full point group                 CI      NOp   2
 Largest Abelian subgroup         CI      NOp   2
 Largest concise Abelian subgroup CI      NOp   2
                         Standard orientation:                         
 ---------------------------------------------------------------------
 Center     Atomic      Atomic             Coordinates (Angstroms)
 Number     Number       Type             X           Y           Z
 ---------------------------------------------------------------------
      1          6           0        0.000000    0.000000   -0.865370
      2          6           0        0.000000    0.000000    0.865370
      3          1           0        1.018496    0.000000    1.263512
      4          1           0       -0.509246   -0.882045    1.263512
      5          1           0       -0.509249    0.882044    1.263511
      6          1           0        0.509249   -0.882044   -1.263511
      7          1           0        0.509246    0.882045   -1.263512
      8          1           0       -1.018496    0.000000   -1.263512
 ---------------------------------------------------------------------
 Rotational constants (GHZ):     80.5678459     16.4282296     16.4282226
 Standard basis: 6-31G(d) (6D, 7F)
 There are    21 symmetry adapted cartesian basis functions of AG  symmetry.
 There are    21 symmetry adapted cartesian basis functions of AU  symmetry.
 There are    21 symmetry adapted basis functions of AG  symmetry.
 There are    21 symmetry adapted basis functions of AU  symmetry.
    42 basis functions,    80 primitive gaussians,    42 cartesian basis functions
     9 alpha electrons        9 beta electrons
       nuclear repulsion energy        39.9543224936 Hartrees.
 NAtoms=    8 NActive=    8 NUniq=    4 SFac= 4.00D+00 NAtFMM=   60 NAOKFM=F Big=F
 Integral buffers will be    131072 words long.
 Raffenetti 2 integral format.
 Two-electron integral symmetry is turned on.
 One-electron integrals computed using PRISM.
 NBasis=    42 RedAO= T EigKep=  8.43D-03  NBF=    21    21
 NBsUse=    42 1.00D-06 EigRej= -1.00D+00 NBFU=    21    21
 ExpMin= 1.61D-01 ExpMax= 3.05D+03 ExpMxC= 4.57D+02 IAcc=1 IRadAn=         1 AccDes= 0.00D+00
 Harris functional with IExCor=  402 and IRadAn=       1 diagonalized for initial guess.
 HarFok:  IExCor=  402 AccDes= 0.00D+00 IRadAn=         1 IDoV= 1 UseB2=F ITyADJ=14
 ICtDFT=  3500011 ScaDFX=  1.000000  1.000000  1.000000  1.000000
 FoFCou: FMM=F IPFlag=           0 FMFlag=      100000 FMFlg1=           0
         NFxFlg=           0 DoJE=T BraDBF=F KetDBF=T FulRan=T
         wScrn=  0.000000 ICntrl=     500 IOpCl=  0 I1Cent=   200000004 NGrid=           0
         NMat0=    1 NMatS0=      1 NMatT0=    0 NMatD0=    1 NMtDS0=    0 NMtDT0=    0
 Petite list used in FoFCou.
 Initial guess orbital symmetries:
       Occupied  (AG) (AU) (AG) (AU) (AU) (AU) (AG) (AG) (AG)
       Virtual   (AU) (AG) (AU) (AU) (AU) (AG) (AG) (AU) (AU) (AG)
                 (AU) (AG) (AG) (AG) (AG) (AG) (AU) (AU) (AU) (AG)
                 (AU) (AU) (AU) (AG) (AG) (AG) (AU) (AU) (AG) (AG)
                 (AU) (AG) (AU)
 The electronic state of the initial guess is 1-AG.
 Keep R1 ints in memory in symmetry-blocked form, NReq=1296204.
 Requested convergence on RMS density matrix=1.00D-08 within 128 cycles.
 Requested convergence on MAX density matrix=1.00D-06.
 Requested convergence on             energy=1.00D-06.
 No special actions if energy rises.
 Integral accuracy reduced to 1.0D-05 until final iterations.
 Initial convergence to 1.0D-05 achieved.  Increase integral accuracy.
 SCF Done:  E(RB3LYP) =  -79.8153197529     A.U. after    9 cycles
            NFock=  9  Conv=0.83D-08     -V/T= 2.0135

 **********************************************************************

            Population analysis using the SCF density.

 **********************************************************************

 Orbital symmetries:
       Occupied  (AG) (AU) (AG) (AU) (AU) (AU) (AG) (AG) (AG)
       Virtual   (AG) (AU) (AU) (AU) (AU) (AG) (AG) (AU) (AU) (AG)
                 (AU) (AG) (AG) (AG) (AG) (AG) (AU) (AU) (AU) (AG)
                 (AU) (AU) (AU) (AG) (AG) (AG) (AU) (AU) (AG) (AG)
                 (AU) (AG) (AU)
 The electronic state is 1-AG.
 Alpha  occ. eigenvalues --  -10.18380 -10.18373  -0.71675  -0.62666  -0.41475
 Alpha  occ. eigenvalues --   -0.41475  -0.35486  -0.35486  -0.33372
 Alpha virt. eigenvalues --    0.10829   0.12478   0.17226   0.17226   0.18760
 Alpha virt. eigenvalues --    0.18818   0.18818   0.51532   0.51533   0.57494
 Alpha virt. eigenvalues --    0.59897   0.65351   0.65351   0.89217   0.89897
 Alpha virt. eigenvalues --    0.89897   0.90911   0.90911   0.97392   1.05958
 Alpha virt. eigenvalues --    1.39025   1.56340   1.56340   1.75594   1.91128
 Alpha virt. eigenvalues --    1.91128   2.24962   2.24963   2.29160   2.29160
 Alpha virt. eigenvalues --    2.47485   4.10142   4.32129
          Condensed to atoms (all electrons):
               1          2          3          4          5          6
     1  C    5.032740   0.347667  -0.023914  -0.023917  -0.023917   0.379577
     2  C    0.347667   5.032740   0.379576   0.379577   0.379577  -0.023917
     3  H   -0.023914   0.379576   0.564415  -0.034207  -0.034206  -0.001561
     4  H   -0.023917   0.379577  -0.034207   0.564414  -0.034207  -0.001561
     5  H   -0.023917   0.379577  -0.034206  -0.034207   0.564414   0.002332
     6  H    0.379577  -0.023917  -0.001561  -0.001561   0.002332   0.564414
     7  H    0.379577  -0.023917  -0.001561   0.002332  -0.001561  -0.034207
     8  H    0.379576  -0.023914   0.002332  -0.001561  -0.001561  -0.034206
               7          8
     1  C    0.379577   0.379576
     2  C   -0.023917  -0.023914
     3  H   -0.001561   0.002332
     4  H    0.002332  -0.001561
     5  H   -0.001561  -0.001561
     6  H   -0.034207  -0.034206
     7  H    0.564414  -0.034207
     8  H   -0.034207   0.564415
 Mulliken charges:
               1
     1  C   -0.447387
     2  C   -0.447387
     3  H    0.149127
     4  H    0.149130
     5  H    0.149130
     6  H    0.149130
     7  H    0.149130
     8  H    0.149127
 Sum of Mulliken charges =   0.00000
 Mulliken charges with hydrogens summed into heavy atoms:
               1
     1  C    0.000000
     2  C    0.000000
 Electronic spatial extent (au):  <R**2>=            121.3954
 Charge=              0.0000 electrons
 Dipole moment (field-independent basis, Debye):
    X=              0.0000    Y=              0.0000    Z=              0.0000  Tot=              0.0000
 Quadrupole moment (field-independent basis, Debye-Ang):
   XX=            -14.8132   YY=            -14.8132   ZZ=            -14.5872
   XY=              0.0000   XZ=              0.0000   YZ=              0.0000
 Traceless Quadrupole moment (field-independent basis, Debye-Ang):
   XX=             -0.0753   YY=             -0.0753   ZZ=              0.1507
   XY=              0.0000   XZ=              0.0000   YZ=              0.0000
 Octapole moment (field-independent basis, Debye-Ang**2):
  XXX=              0.0000  YYY=              0.0000  ZZZ=              0.0000  XYY=              0.0000
  XXY=              0.0000  XXZ=              0.0000  XZZ=              0.0000  YZZ=              0.0000
  YYZ=              0.0000  XYZ=              0.0000
 Hexadecapole moment (field-independent basis, Debye-Ang**3):
 XXXX=            -28.6094 YYYY=            -28.6093 ZZZZ=           -108.0283 XXXY=              0.0000
 XXXZ=              1.3742 YYYX=              0.0000 YYYZ=              0.0000 ZZZX=              0.0000
 ZZZY=              0.0000 XXYY=             -9.5364 XXZZ=            -21.3816 YYZZ=            -21.3816
 XXYZ=              0.0000 YYXZ=             -1.3742 ZZXY=              0.0000
 N-N= 3.995432249364D+01 E-N=-2.635421712806D+02  KE= 7.875252343814D+01
 Symmetry AG   KE= 4.071746580373D+01
 Symmetry AU   KE= 3.803505763441D+01
 1\1\GINC-CPU-E-328\SP\RB3LYP\6-31G(d)\C2H6\AM2145\16-Jun-2021\0\\# b3l
 yp/6-31g(d)\\ethane_scan_rigid\\0,1\C,0,0.,0.,-0.86537\C,0,0.,0.,0.865
 37\H,0,1.018496,0.,1.263512\H,0,-0.509246,-0.882045,1.263512\H,0,-0.50
 9249,0.882044,1.263511\H,0,0.509249,-0.882044,-1.263511\H,0,0.509246,0
 .882045,-1.263512\H,0,-1.018496,0.,-1.263512\\Version=ES64L-G09RevD.01
 \State=1-AG\HF=-79.8153198\RMSD=8.328e-09\Dipole=0.,0.,0.\Quadrupole=-
 0.0560204,-0.0559962,0.1120166,-0.0000044,0.0000116,-0.0000033\PG=CI [
 X(C2H6)]\\@


 Until you make peace with who you are,
 you'll never be content with what you have.
                           -- Doris Mortman
 Job cpu time:       0 days  0 hours  1 minutes 38.6 seconds.
 File lengths (MBytes):  RWF=      5 Int=      0 D2E=      0 Chk=      1 Scr=      1
 Normal termination of Gaussian 09 at Wed Jun 16 17:39:25 2021.
