 Entering Gaussian System, Link 0=g09
 Initial command:
 /usr/local/Cluster-Apps/gaussian/g09/l1.exe "/rds/user/am2145/hpc-work/scratch/42232961/Gau-106144.inp" -scrdir="/rds/user/am2145/hpc-work/scratch/42232961/"
 Entering Link 1 = /usr/local/Cluster-Apps/gaussian/g09/l1.exe PID=    106145.
  
 Copyright (c) 1988,1990,1992,1993,1995,1998,2003,2009,2013,
            Gaussian, Inc.  All Rights Reserved.
  
 This is part of the Gaussian(R) 09 program.  It is based on
 the Gaussian(R) 03 system (copyright 2003, Gaussian, Inc.),
 the Gaussian(R) 98 system (copyright 1998, Gaussian, Inc.),
 the Gaussian(R) 94 system (copyright 1995, Gaussian, Inc.),
 the Gaussian 92(TM) system (copyright 1992, Gaussian, Inc.),
 the Gaussian 90(TM) system (copyright 1990, Gaussian, Inc.),
 the Gaussian 88(TM) system (copyright 1988, Gaussian, Inc.),
 the Gaussian 86(TM) system (copyright 1986, Carnegie Mellon
 University), and the Gaussian 82(TM) system (copyright 1983,
 Carnegie Mellon University). Gaussian is a federally registered
 trademark of Gaussian, Inc.
  
 This software contains proprietary and confidential information,
 including trade secrets, belonging to Gaussian, Inc.
  
 This software is provided under written license and may be
 used, copied, transmitted, or stored only in accord with that
 written license.
  
 The following legend is applicable only to US Government
 contracts under FAR:
  
                    RESTRICTED RIGHTS LEGEND
  
 Use, reproduction and disclosure by the US Government is
 subject to restrictions as set forth in subparagraphs (a)
 and (c) of the Commercial Computer Software - Restricted
 Rights clause in FAR 52.227-19.
  
 Gaussian, Inc.
 340 Quinnipiac St., Bldg. 40, Wallingford CT 06492
  
  
 ---------------------------------------------------------------
 Warning -- This program may not be used in any manner that
 competes with the business of Gaussian, Inc. or will provide
 assistance to any competitor of Gaussian, Inc.  The licensee
 of this program is prohibited from giving any competitor of
 Gaussian, Inc. access to this program.  By using this program,
 the user acknowledges that Gaussian, Inc. is engaged in the
 business of creating and licensing software in the field of
 computational chemistry and represents and warrants to the
 licensee that it is not a competitor of Gaussian, Inc. and that
 it will not use this program in any manner prohibited above.
 ---------------------------------------------------------------
  

 Cite this work as:
 Gaussian 09, Revision D.01,
 M. J. Frisch, G. W. Trucks, H. B. Schlegel, G. E. Scuseria, 
 M. A. Robb, J. R. Cheeseman, G. Scalmani, V. Barone, B. Mennucci, 
 G. A. Petersson, H. Nakatsuji, M. Caricato, X. Li, H. P. Hratchian, 
 A. F. Izmaylov, J. Bloino, G. Zheng, J. L. Sonnenberg, M. Hada, 
 M. Ehara, K. Toyota, R. Fukuda, J. Hasegawa, M. Ishida, T. Nakajima, 
 Y. Honda, O. Kitao, H. Nakai, T. Vreven, J. A. Montgomery, Jr., 
 J. E. Peralta, F. Ogliaro, M. Bearpark, J. J. Heyd, E. Brothers, 
 K. N. Kudin, V. N. Staroverov, T. Keith, R. Kobayashi, J. Normand, 
 K. Raghavachari, A. Rendell, J. C. Burant, S. S. Iyengar, J. Tomasi, 
 M. Cossi, N. Rega, J. M. Millam, M. Klene, J. E. Knox, J. B. Cross, 
 V. Bakken, C. Adamo, J. Jaramillo, R. Gomperts, R. E. Stratmann, 
 O. Yazyev, A. J. Austin, R. Cammi, C. Pomelli, J. W. Ochterski, 
 R. L. Martin, K. Morokuma, V. G. Zakrzewski, G. A. Voth, 
 P. Salvador, J. J. Dannenberg, S. Dapprich, A. D. Daniels, 
 O. Farkas, J. B. Foresman, J. V. Ortiz, J. Cioslowski, 
 and D. J. Fox, Gaussian, Inc., Wallingford CT, 2013.
 
 ******************************************
 Gaussian 09:  ES64L-G09RevD.01 24-Apr-2013
                16-Jun-2021 
 ******************************************
 %nprocshared=20
 Will use up to   20 processors via shared memory.
 %mem=32GB
 %chk=ethane_1_rigid.chk
 ----------------
 # b3lyp/6-31g(d)
 ----------------
 1/38=1/1;
 2/12=2,17=6,18=5,40=1/2;
 3/5=1,6=6,7=1,11=2,16=1,25=1,30=1,74=-5/1,2,3;
 4//1;
 5/5=2,38=5/2;
 6/7=2,8=2,9=2,10=2,28=1/1;
 99/5=1,9=1/99;
 -----------------
 ethane_scan_rigid
 -----------------
 Symbolic Z-matrix:
 Charge =  0 Multiplicity = 1
 C                     0.        0.       -0.81537 
 C                     0.        0.        0.81537 
 H                     1.0185    0.        1.21351 
 H                    -0.50925  -0.88205   1.21351 
 H                    -0.50925   0.88204   1.21351 
 H                     0.50925  -0.88204  -1.21351 
 H                     0.50925   0.88205  -1.21351 
 H                    -1.0185    0.       -1.21351 
 
                          Input orientation:                          
 ---------------------------------------------------------------------
 Center     Atomic      Atomic             Coordinates (Angstroms)
 Number     Number       Type             X           Y           Z
 ---------------------------------------------------------------------
      1          6           0        0.000000    0.000000   -0.815370
      2          6           0        0.000000    0.000000    0.815370
      3          1           0        1.018496    0.000000    1.213512
      4          1           0       -0.509246   -0.882045    1.213512
      5          1           0       -0.509249    0.882044    1.213511
      6          1           0        0.509249   -0.882044   -1.213511
      7          1           0        0.509246    0.882045   -1.213512
      8          1           0       -1.018496    0.000000   -1.213512
 ---------------------------------------------------------------------
                    Distance matrix (angstroms):
                    1          2          3          4          5
     1  C    0.000000
     2  C    1.630740   0.000000
     3  H    2.270175   1.093550   0.000000
     4  H    2.270176   1.093550   1.764086   0.000000
     5  H    2.270175   1.093550   1.764088   1.764089   0.000000
     6  H    1.093550   2.270175   2.632067   2.632066   3.168561
     7  H    1.093550   2.270176   2.632068   3.168562   2.632066
     8  H    1.093550   2.270175   3.168561   2.632068   2.632067
                    6          7          8
     6  H    0.000000
     7  H    1.764089   0.000000
     8  H    1.764088   1.764086   0.000000
 This structure is nearly, but not quite of a higher symmetry.
 Consider Symm=Loose if the higher symmetry is desired.
 Stoichiometry    C2H6
 Framework group  CI[X(C2H6)]
 Deg. of freedom     9
 Full point group                 CI      NOp   2
 Largest Abelian subgroup         CI      NOp   2
 Largest concise Abelian subgroup CI      NOp   2
                         Standard orientation:                         
 ---------------------------------------------------------------------
 Center     Atomic      Atomic             Coordinates (Angstroms)
 Number     Number       Type             X           Y           Z
 ---------------------------------------------------------------------
      1          6           0        0.000000    0.000000   -0.815370
      2          6           0        0.000000    0.000000    0.815370
      3          1           0        1.018496    0.000000    1.213512
      4          1           0       -0.509246   -0.882045    1.213512
      5          1           0       -0.509249    0.882044    1.213511
      6          1           0        0.509249   -0.882044   -1.213511
      7          1           0        0.509246    0.882045   -1.213512
      8          1           0       -1.018496    0.000000   -1.213512
 ---------------------------------------------------------------------
 Rotational constants (GHZ):     80.5678459     18.0511645     18.0511561
 Standard basis: 6-31G(d) (6D, 7F)
 There are    21 symmetry adapted cartesian basis functions of AG  symmetry.
 There are    21 symmetry adapted cartesian basis functions of AU  symmetry.
 There are    21 symmetry adapted basis functions of AG  symmetry.
 There are    21 symmetry adapted basis functions of AU  symmetry.
    42 basis functions,    80 primitive gaussians,    42 cartesian basis functions
     9 alpha electrons        9 beta electrons
       nuclear repulsion energy        41.0014685126 Hartrees.
 NAtoms=    8 NActive=    8 NUniq=    4 SFac= 4.00D+00 NAtFMM=   60 NAOKFM=F Big=F
 Integral buffers will be    131072 words long.
 Raffenetti 2 integral format.
 Two-electron integral symmetry is turned on.
 One-electron integrals computed using PRISM.
 NBasis=    42 RedAO= T EigKep=  7.23D-03  NBF=    21    21
 NBsUse=    42 1.00D-06 EigRej= -1.00D+00 NBFU=    21    21
 ExpMin= 1.61D-01 ExpMax= 3.05D+03 ExpMxC= 4.57D+02 IAcc=1 IRadAn=         1 AccDes= 0.00D+00
 Harris functional with IExCor=  402 and IRadAn=       1 diagonalized for initial guess.
 HarFok:  IExCor=  402 AccDes= 0.00D+00 IRadAn=         1 IDoV= 1 UseB2=F ITyADJ=14
 ICtDFT=  3500011 ScaDFX=  1.000000  1.000000  1.000000  1.000000
 FoFCou: FMM=F IPFlag=           0 FMFlag=      100000 FMFlg1=           0
         NFxFlg=           0 DoJE=T BraDBF=F KetDBF=T FulRan=T
         wScrn=  0.000000 ICntrl=     500 IOpCl=  0 I1Cent=   200000004 NGrid=           0
         NMat0=    1 NMatS0=      1 NMatT0=    0 NMatD0=    1 NMtDS0=    0 NMtDT0=    0
 Petite list used in FoFCou.
 Initial guess orbital symmetries:
       Occupied  (AG) (AU) (AG) (AU) (AU) (AU) (AG) (AG) (AG)
       Virtual   (AU) (AG) (AU) (AU) (AU) (AG) (AG) (AU) (AU) (AG)
                 (AU) (AG) (AG) (AG) (AU) (AU) (AG) (AG) (AU) (AG)
                 (AU) (AU) (AU) (AG) (AG) (AG) (AU) (AU) (AG) (AG)
                 (AU) (AG) (AU)
 The electronic state of the initial guess is 1-AG.
 Keep R1 ints in memory in symmetry-blocked form, NReq=1296204.
 Requested convergence on RMS density matrix=1.00D-08 within 128 cycles.
 Requested convergence on MAX density matrix=1.00D-06.
 Requested convergence on             energy=1.00D-06.
 No special actions if energy rises.
 Integral accuracy reduced to 1.0D-05 until final iterations.
 Initial convergence to 1.0D-05 achieved.  Increase integral accuracy.
 SCF Done:  E(RB3LYP) =  -79.8259953525     A.U. after    9 cycles
            NFock=  9  Conv=0.64D-08     -V/T= 2.0123

 **********************************************************************

            Population analysis using the SCF density.

 **********************************************************************

 Orbital symmetries:
       Occupied  (AG) (AU) (AG) (AU) (AU) (AU) (AG) (AG) (AG)
       Virtual   (AG) (AU) (AU) (AU) (AG) (AG) (AU) (AU) (AU) (AG)
                 (AU) (AG) (AG) (AU) (AU) (AG) (AG) (AG) (AU) (AG)
                 (AU) (AU) (AU) (AG) (AG) (AG) (AU) (AU) (AG) (AG)
                 (AU) (AG) (AU)
 The electronic state is 1-AG.
 Alpha  occ. eigenvalues --  -10.17798 -10.17786  -0.73053  -0.62000  -0.42167
 Alpha  occ. eigenvalues --   -0.42166  -0.34820  -0.34820  -0.34806
 Alpha virt. eigenvalues --    0.10678   0.14505   0.16897   0.16897   0.18939
 Alpha virt. eigenvalues --    0.18939   0.21080   0.52813   0.52814   0.54393
 Alpha virt. eigenvalues --    0.62568   0.64509   0.64509   0.89915   0.89915
 Alpha virt. eigenvalues --    0.90146   0.90981   0.90982   0.97802   1.06181
 Alpha virt. eigenvalues --    1.41654   1.54082   1.54082   1.83345   1.95262
 Alpha virt. eigenvalues --    1.95262   2.25777   2.25777   2.30681   2.30682
 Alpha virt. eigenvalues --    2.53350   4.11592   4.35305
          Condensed to atoms (all electrons):
               1          2          3          4          5          6
     1  C    5.022319   0.361886  -0.028844  -0.028845  -0.028845   0.381228
     2  C    0.361886   5.022319   0.381226   0.381227   0.381228  -0.028845
     3  H   -0.028844   0.381226   0.568434  -0.033230  -0.033230  -0.002394
     4  H   -0.028845   0.381227  -0.033230   0.568431  -0.033230  -0.002394
     5  H   -0.028845   0.381228  -0.033230  -0.033230   0.568430   0.003315
     6  H    0.381228  -0.028845  -0.002394  -0.002394   0.003315   0.568430
     7  H    0.381227  -0.028845  -0.002394   0.003315  -0.002394  -0.033230
     8  H    0.381226  -0.028844   0.003315  -0.002394  -0.002394  -0.033230
               7          8
     1  C    0.381227   0.381226
     2  C   -0.028845  -0.028844
     3  H   -0.002394   0.003315
     4  H    0.003315  -0.002394
     5  H   -0.002394  -0.002394
     6  H   -0.033230  -0.033230
     7  H    0.568431  -0.033230
     8  H   -0.033230   0.568434
 Mulliken charges:
               1
     1  C   -0.441352
     2  C   -0.441352
     3  H    0.147115
     4  H    0.147119
     5  H    0.147118
     6  H    0.147118
     7  H    0.147119
     8  H    0.147115
 Sum of Mulliken charges =   0.00000
 Mulliken charges with hydrogens summed into heavy atoms:
               1
     1  C    0.000000
     2  C    0.000000
 Electronic spatial extent (au):  <R**2>=            115.3079
 Charge=              0.0000 electrons
 Dipole moment (field-independent basis, Debye):
    X=              0.0000    Y=              0.0000    Z=              0.0000  Tot=              0.0000
 Quadrupole moment (field-independent basis, Debye-Ang):
   XX=            -14.7627   YY=            -14.7627   ZZ=            -14.9133
   XY=              0.0000   XZ=              0.0000   YZ=              0.0000
 Traceless Quadrupole moment (field-independent basis, Debye-Ang):
   XX=              0.0502   YY=              0.0502   ZZ=             -0.1004
   XY=              0.0000   XZ=              0.0000   YZ=              0.0000
 Octapole moment (field-independent basis, Debye-Ang**2):
  XXX=              0.0000  YYY=              0.0000  ZZZ=              0.0000  XYY=              0.0000
  XXY=              0.0000  XXZ=              0.0000  XZZ=              0.0000  YZZ=              0.0000
  YYZ=              0.0000  XYZ=              0.0000
 Hexadecapole moment (field-independent basis, Debye-Ang**3):
 XXXX=            -28.5837 YYYY=            -28.5837 ZZZZ=           -100.1255 XXXY=              0.0000
 XXXZ=              1.2857 YYYX=              0.0000 YYYZ=              0.0000 ZZZX=              0.0000
 ZZZY=              0.0000 XXYY=             -9.5279 XXZZ=            -20.2148 YYZZ=            -20.2148
 XXYZ=              0.0000 YYXZ=             -1.2857 ZZXY=              0.0000
 N-N= 4.100146851259D+01 E-N=-2.657220474142D+02  KE= 7.885403528544D+01
 Symmetry AG   KE= 4.084849068065D+01
 Symmetry AU   KE= 3.800554460479D+01
 1\1\GINC-CPU-E-328\SP\RB3LYP\6-31G(d)\C2H6\AM2145\16-Jun-2021\0\\# b3l
 yp/6-31g(d)\\ethane_scan_rigid\\0,1\C,0,0.,0.,-0.81537\C,0,0.,0.,0.815
 37\H,0,1.018496,0.,1.213512\H,0,-0.509246,-0.882045,1.213512\H,0,-0.50
 9249,0.882044,1.213511\H,0,0.509249,-0.882044,-1.213511\H,0,0.509246,0
 .882045,-1.213512\H,0,-1.018496,0.,-1.213512\\Version=ES64L-G09RevD.01
 \State=1-AG\HF=-79.8259954\RMSD=6.416e-09\Dipole=0.,0.,0.\Quadrupole=0
 .0373096,0.0373309,-0.0746406,-0.0000043,-0.0000037,-0.0000033\PG=CI [
 X(C2H6)]\\@


 In the beginning there was nothing, which exploded.
 Job cpu time:       0 days  0 hours  1 minutes 42.5 seconds.
 File lengths (MBytes):  RWF=      5 Int=      0 D2E=      0 Chk=      1 Scr=      1
 Normal termination of Gaussian 09 at Wed Jun 16 17:39:17 2021.
