 Entering Gaussian System, Link 0=g09
 Initial command:
 /usr/local/Cluster-Apps/gaussian/g09/l1.exe "/rds/user/am2145/hpc-work/scratch/26066265/Gau-15180.inp" -scrdir="/rds/user/am2145/hpc-work/scratch/26066265/"
 Entering Link 1 = /usr/local/Cluster-Apps/gaussian/g09/l1.exe PID=     15181.
  
 Copyright (c) 1988,1990,1992,1993,1995,1998,2003,2009,2013,
            Gaussian, Inc.  All Rights Reserved.
  
 This is part of the Gaussian(R) 09 program.  It is based on
 the Gaussian(R) 03 system (copyright 2003, Gaussian, Inc.),
 the Gaussian(R) 98 system (copyright 1998, Gaussian, Inc.),
 the Gaussian(R) 94 system (copyright 1995, Gaussian, Inc.),
 the Gaussian 92(TM) system (copyright 1992, Gaussian, Inc.),
 the Gaussian 90(TM) system (copyright 1990, Gaussian, Inc.),
 the Gaussian 88(TM) system (copyright 1988, Gaussian, Inc.),
 the Gaussian 86(TM) system (copyright 1986, Carnegie Mellon
 University), and the Gaussian 82(TM) system (copyright 1983,
 Carnegie Mellon University). Gaussian is a federally registered
 trademark of Gaussian, Inc.
  
 This software contains proprietary and confidential information,
 including trade secrets, belonging to Gaussian, Inc.
  
 This software is provided under written license and may be
 used, copied, transmitted, or stored only in accord with that
 written license.
  
 The following legend is applicable only to US Government
 contracts under FAR:
  
                    RESTRICTED RIGHTS LEGEND
  
 Use, reproduction and disclosure by the US Government is
 subject to restrictions as set forth in subparagraphs (a)
 and (c) of the Commercial Computer Software - Restricted
 Rights clause in FAR 52.227-19.
  
 Gaussian, Inc.
 340 Quinnipiac St., Bldg. 40, Wallingford CT 06492
  
  
 ---------------------------------------------------------------
 Warning -- This program may not be used in any manner that
 competes with the business of Gaussian, Inc. or will provide
 assistance to any competitor of Gaussian, Inc.  The licensee
 of this program is prohibited from giving any competitor of
 Gaussian, Inc. access to this program.  By using this program,
 the user acknowledges that Gaussian, Inc. is engaged in the
 business of creating and licensing software in the field of
 computational chemistry and represents and warrants to the
 licensee that it is not a competitor of Gaussian, Inc. and that
 it will not use this program in any manner prohibited above.
 ---------------------------------------------------------------
  

 Cite this work as:
 Gaussian 09, Revision D.01,
 M. J. Frisch, G. W. Trucks, H. B. Schlegel, G. E. Scuseria, 
 M. A. Robb, J. R. Cheeseman, G. Scalmani, V. Barone, B. Mennucci, 
 G. A. Petersson, H. Nakatsuji, M. Caricato, X. Li, H. P. Hratchian, 
 A. F. Izmaylov, J. Bloino, G. Zheng, J. L. Sonnenberg, M. Hada, 
 M. Ehara, K. Toyota, R. Fukuda, J. Hasegawa, M. Ishida, T. Nakajima, 
 Y. Honda, O. Kitao, H. Nakai, T. Vreven, J. A. Montgomery, Jr., 
 J. E. Peralta, F. Ogliaro, M. Bearpark, J. J. Heyd, E. Brothers, 
 K. N. Kudin, V. N. Staroverov, T. Keith, R. Kobayashi, J. Normand, 
 K. Raghavachari, A. Rendell, J. C. Burant, S. S. Iyengar, J. Tomasi, 
 M. Cossi, N. Rega, J. M. Millam, M. Klene, J. E. Knox, J. B. Cross, 
 V. Bakken, C. Adamo, J. Jaramillo, R. Gomperts, R. E. Stratmann, 
 O. Yazyev, A. J. Austin, R. Cammi, C. Pomelli, J. W. Ochterski, 
 R. L. Martin, K. Morokuma, V. G. Zakrzewski, G. A. Voth, 
 P. Salvador, J. J. Dannenberg, S. Dapprich, A. D. Daniels, 
 O. Farkas, J. B. Foresman, J. V. Ortiz, J. Cioslowski, 
 and D. J. Fox, Gaussian, Inc., Wallingford CT, 2013.
 
 ******************************************
 Gaussian 09:  ES64L-G09RevD.01 24-Apr-2013
                17-Jul-2020 
 ******************************************
 %NProcShared=20
 Will use up to   20 processors via shared memory.
 %mem=64GB
 %Chk=co2.chk
 --------------------------
 #n CASSCF(2,2)/6-311G(d,p)
 --------------------------
 1/38=1/1;
 2/12=2,17=6,18=5,40=1/2;
 3/5=4,6=6,7=101,16=1,25=1,32=1,116=101/1,2,3;
 4/17=2,18=2/1,5;
 5/5=2,17=1000000,38=5/10;
 6/7=2,8=2,9=2,10=2,28=1/1;
 99/5=1,9=1/99;
 ----------
 co2_backup
 ----------
 Symbolic Z-matrix:
 Charge =  0 Multiplicity = 1
 C                    -3.55536  -0.51345   0. 
 O                    -4.65534  -0.52079   0. 
 O                    -2.45539  -0.50613   0. 
 
                          Input orientation:                          
 ---------------------------------------------------------------------
 Center     Atomic      Atomic             Coordinates (Angstroms)
 Number     Number       Type             X           Y           Z
 ---------------------------------------------------------------------
      1          6           0       -3.555360   -0.513450    0.000000
      2          8           0       -4.655340   -0.520790    0.000000
      3          8           0       -2.455390   -0.506130    0.000000
 ---------------------------------------------------------------------
                    Distance matrix (angstroms):
                    1          2          3
     1  C    0.000000
     2  O    1.100004   0.000000
     3  O    1.099994   2.199999   0.000000
 Stoichiometry    CO2
 Framework group  C*V[C*(OCO)]
 Deg. of freedom     2
 Full point group                 C*V     NOp   4
 Largest Abelian subgroup         C2V     NOp   4
 Largest concise Abelian subgroup C1      NOp   1
                         Standard orientation:                         
 ---------------------------------------------------------------------
 Center     Atomic      Atomic             Coordinates (Angstroms)
 Number     Number       Type             X           Y           Z
 ---------------------------------------------------------------------
      1          6           0        0.000000    0.000000   -0.000004
      2          8           0        0.000000    0.000000    1.100001
      3          8           0        0.000000    0.000000   -1.099998
 ---------------------------------------------------------------------
 Rotational constants (GHZ):      0.0000000     13.0563072     13.0563072
 Standard basis: 6-311G(d,p) (5D, 7F)
 There are    30 symmetry adapted cartesian basis functions of A1  symmetry.
 There are     3 symmetry adapted cartesian basis functions of A2  symmetry.
 There are    12 symmetry adapted cartesian basis functions of B1  symmetry.
 There are    12 symmetry adapted cartesian basis functions of B2  symmetry.
 There are    27 symmetry adapted basis functions of A1  symmetry.
 There are     3 symmetry adapted basis functions of A2  symmetry.
 There are    12 symmetry adapted basis functions of B1  symmetry.
 There are    12 symmetry adapted basis functions of B2  symmetry.
    54 basis functions,    96 primitive gaussians,    57 cartesian basis functions
    11 alpha electrons       11 beta electrons
       nuclear repulsion energy        61.5770166006 Hartrees.
 NAtoms=    3 NActive=    3 NUniq=    3 SFac= 1.00D+00 NAtFMM=   60 NAOKFM=F Big=F
 Integral buffers will be    131072 words long.
 Regular integral format.
 Two-electron integral symmetry is turned off.
 One-electron integrals computed using PRISM.
 The smallest eigenvalue of the overlap matrix is  7.193D-03
 NBasis=    54 RedAO= F EigKep=  0.00D+00  NBF=    27     3    12    12
 NBsUse=    54 1.00D-04 EigRej=  0.00D+00 NBFU=    27     3    12    12
 ExpMin= 1.46D-01 ExpMax= 8.59D+03 ExpMxC= 1.30D+03 IAcc=1 IRadAn=         1 AccDes= 0.00D+00
 Harris functional with IExCor=  205 and IRadAn=       1 diagonalized for initial guess.
 HarFok:  IExCor=  205 AccDes= 0.00D+00 IRadAn=         1 IDoV= 1 UseB2=F ITyADJ=14
 ICtDFT=  3500011 ScaDFX=  1.000000  1.000000  1.000000  1.000000
 FoFCou: FMM=F IPFlag=           0 FMFlag=      100000 FMFlg1=           0
         NFxFlg=           0 DoJE=T BraDBF=F KetDBF=T FulRan=T
         wScrn=  0.000000 ICntrl=     500 IOpCl=  0 I1Cent=   200000004 NGrid=           0
         NMat0=    1 NMatS0=      1 NMatT0=    0 NMatD0=    1 NMtDS0=    0 NMtDT0=    0
 Petite list used in FoFCou.
 Initial guess orbital symmetries:
       Occupied  (SG) (SG) (SG) (SG) (SG) (SG) (SG) (PI) (PI) (PI)
                 (PI)
       Virtual   (PI) (PI) (SG) (SG) (PI) (PI) (SG) (SG) (SG) (PI)
                 (PI) (PI) (PI) (SG) (DLTA) (DLTA) (SG) (PI) (PI)
                 (SG) (PI) (PI) (DLTA) (DLTA) (SG) (DLTA) (DLTA)
                 (SG) (PI) (PI) (SG) (SG) (PI) (PI) (PI) (PI) (PI)
                 (PI) (SG) (SG) (SG) (SG) (SG)
 The electronic state of the initial guess is 1-SG.
          Truncation Level=               99999
          a=  1          b=  0          c=  1
          a=N/2 - s   b=2s   c=n- (a+b)
          no. active orbitals (n)  2
          no. active ELECTRONS (N)=  2
                                                  IRREPS TO BE RETAINED = 1 2 3 4
                                                  GROUP IRREP. MULT. TABLE
                                                      1    2    3    4
                                                      2    1    4    3
                                                      3    4    1    2
                                                      4    3    2    1
                                                  IRREP. LABELS FOR ORBITALS
                                                   3 3
          BOTTOM WEIGHT=  2     TOP WEIGHT=  4
          Configuration         1 Symmetry 1 10
          Configuration         2 Symmetry 1 ab
          Configuration         3 Symmetry 1 01
          NO OF BASIS FUNCTIONS =         3 NO TO BE DELETED =    0
 CI Matrix Elements calculated here
          NO. OF CONFIGURATIONS IN REFERENCE SPACE =    1
                                   SECONDARY SPACE =    3
                                   TERTIARY SPACE =    3
          NO. OF ORBITALS =    2
          NO. OF ELECTRONS =    2
          NO. OF WEIGHTS =    3
          REFERENCE STATE CONFIGURATIONS ARE:     0
          NO. OF CORE ORBITALS =    0
          OPTION:  NON-DIAGONAL HOLE LINE INTERACTIONS INCLUDED
 Len28=          98 LenMCI=          71.
 Enter MCSCF program.
 NO. OF ORBITALS = 54     NO. OF CORE-ORBITALS = 10
 NO. OF VALENCE-ORBITALS =  2      NO. OF VIRTUAL-ORBITALS = 42
 USED ACCURACY IN CHECKING CONVERGENCE =  1.00D-08
  Memory needed for Incore Integrals:                 1629175
  Integrals KEPT IN MEMORY
 IBUJAK length=                   13224
 Integral file not found: evaluate integrals 
 FoFCou: FMM=F IPFlag=           0 FMFlag=           0 FMFlg1=           0
         NFxFlg=           0 DoJE=F BraDBF=F KetDBF=F FulRan=T
         wScrn=  0.000000 ICntrl=     600 IOpCl=  0 I1Cent=           0 NGrid=           0
         NMat0=    1 NMatS0=      1 NMatT0=    0 NMatD0=    1 NMtDS0=    0 NMtDT0=    0
 Symmetry not used in FoFCou.
 Defining IBUGAM
 2ND ORD PT ENERGY     CV   -0.007006   CU   -0.106454   UV   -0.027088
 TOTAL                    -187.735093
 ITN=  1 MaxIt= 64 E=   -187.5945451429 DE=-1.88D+02 Acc= 1.00D-08 Lan=  0
 ITN=  2 MaxIt= 64 E=   -187.6669708892 DE=-7.24D-02 Acc= 1.00D-08 Lan=  0
 ITN=  3 MaxIt= 64 E=   -187.6844078397 DE=-1.74D-02 Acc= 1.00D-08 Lan=  0
 ITN=  4 MaxIt= 64 E=   -187.6900339370 DE=-5.63D-03 Acc= 1.00D-08 Lan=  0
 ITN=  5 MaxIt= 64 E=   -187.6929820600 DE=-2.95D-03 Acc= 1.00D-08 Lan=  0
 ITN=  6 MaxIt= 64 E=   -187.6942724157 DE=-1.29D-03 Acc= 1.00D-08 Lan=  0
 ITN=  7 MaxIt= 64 E=   -187.6949110290 DE=-6.39D-04 Acc= 1.00D-08 Lan=  0
 ITN=  8 MaxIt= 64 E=   -187.6952030332 DE=-2.92D-04 Acc= 1.00D-08 Lan=  0
 ITN=  9 MaxIt= 64 E=   -187.6953436944 DE=-1.41D-04 Acc= 1.00D-08 Lan=  0
 ITN= 10 MaxIt= 64 E=   -187.6954090562 DE=-6.54D-05 Acc= 1.00D-08 Lan=  0
 ITN= 11 MaxIt= 64 E=   -187.6954401789 DE=-3.11D-05 Acc= 1.00D-08 Lan=  0
 ITN= 12 MaxIt= 64 E=   -187.6954547518 DE=-1.46D-05 Acc= 1.00D-08 Lan=  0
 ITN= 13 MaxIt= 64 E=   -187.6954616557 DE=-6.90D-06 Acc= 1.00D-08 Lan=  0
 ITN= 14 MaxIt= 64 E=   -187.6954649022 DE=-3.25D-06 Acc= 1.00D-08 Lan=  0
 ITN= 15 MaxIt= 64 E=   -187.6954664397 DE=-1.54D-06 Acc= 1.00D-08 Lan=  0
 ITN= 16 MaxIt= 64 E=   -187.6954671693 DE=-7.30D-07 Acc= 1.00D-08 Lan=  0
 ITN= 17 MaxIt= 64 E=   -187.6954675227 DE=-3.53D-07 Acc= 1.00D-08 Lan=  0
 ITN= 18 MaxIt= 64 E=   -187.6954677037 DE=-1.81D-07 Acc= 1.00D-08 Lan=  0
 ITN= 19 MaxIt= 64 E=   -187.6954678118 DE=-1.08D-07 Acc= 1.00D-08 Lan=  0
 ITN= 20 MaxIt= 64 E=   -187.6954678988 DE=-8.70D-08 Acc= 1.00D-08 Lan=  0
 ITN= 21 MaxIt= 64 E=   -187.6954679968 DE=-9.80D-08 Acc= 1.00D-08 Lan=  0
 ITN= 22 MaxIt= 64 E=   -187.6954681329 DE=-1.36D-07 Acc= 1.00D-08 Lan=  0
 ITN= 23 MaxIt= 64 E=   -187.6954683391 DE=-2.06D-07 Acc= 1.00D-08 Lan=  0
 ITN= 24 MaxIt= 64 E=   -187.6954686608 DE=-3.22D-07 Acc= 1.00D-08 Lan=  0
 ITN= 25 MaxIt= 64 E=   -187.6954691668 DE=-5.06D-07 Acc= 1.00D-08 Lan=  0
 ITN= 26 MaxIt= 64 E=   -187.6954699652 DE=-7.98D-07 Acc= 1.00D-08 Lan=  0
 ITN= 27 MaxIt= 64 E=   -187.6954712253 DE=-1.26D-06 Acc= 1.00D-08 Lan=  0
 ITN= 28 MaxIt= 64 E=   -187.6954732141 DE=-1.99D-06 Acc= 1.00D-08 Lan=  0
 ITN= 29 MaxIt= 64 E=   -187.6954763517 DE=-3.14D-06 Acc= 1.00D-08 Lan=  0
 ITN= 30 MaxIt= 64 E=   -187.6954812979 DE=-4.95D-06 Acc= 1.00D-08 Lan=  0
 ITN= 31 MaxIt= 64 E=   -187.6954890858 DE=-7.79D-06 Acc= 1.00D-08 Lan=  0
 ITN= 32 MaxIt= 64 E=   -187.6955013238 DE=-1.22D-05 Acc= 1.00D-08 Lan=  0
 ITN= 33 MaxIt= 64 E=   -187.6955204958 DE=-1.92D-05 Acc= 1.00D-08 Lan=  0
 ITN= 34 MaxIt= 64 E=   -187.6955503864 DE=-2.99D-05 Acc= 1.00D-08 Lan=  0
 ITN= 35 MaxIt= 64 E=   -187.6955966380 DE=-4.63D-05 Acc= 1.00D-08 Lan=  0
 ITN= 36 MaxIt= 64 E=   -187.6956673728 DE=-7.07D-05 Acc= 1.00D-08 Lan=  0
 ITN= 37 MaxIt= 64 E=   -187.6957736175 DE=-1.06D-04 Acc= 1.00D-08 Lan=  0
 ITN= 38 MaxIt= 64 E=   -187.6959288892 DE=-1.55D-04 Acc= 1.00D-08 Lan=  0
 ITN= 39 MaxIt= 64 E=   -187.6961467679 DE=-2.18D-04 Acc= 1.00D-08 Lan=  0
 ITN= 40 MaxIt= 64 E=   -187.6964351180 DE=-2.88D-04 Acc= 1.00D-08 Lan=  0
 ITN= 41 MaxIt= 64 E=   -187.6967872283 DE=-3.52D-04 Acc= 1.00D-08 Lan=  0
 ITN= 42 MaxIt= 64 E=   -187.6971747243 DE=-3.87D-04 Acc= 1.00D-08 Lan=  0
 ITN= 43 MaxIt= 64 E=   -187.6975513088 DE=-3.77D-04 Acc= 1.00D-08 Lan=  0
 ITN= 44 MaxIt= 64 E=   -187.6978708471 DE=-3.20D-04 Acc= 1.00D-08 Lan=  0
 ITN= 45 MaxIt= 64 E=   -187.6981078549 DE=-2.37D-04 Acc= 1.00D-08 Lan=  0
 ITN= 46 MaxIt= 64 E=   -187.6982635511 DE=-1.56D-04 Acc= 1.00D-08 Lan=  0
 ITN= 47 MaxIt= 64 E=   -187.6983560439 DE=-9.25D-05 Acc= 1.00D-08 Lan=  0
 ITN= 48 MaxIt= 64 E=   -187.6984068998 DE=-5.09D-05 Acc= 1.00D-08 Lan=  0
 ITN= 49 MaxIt= 64 E=   -187.6984333438 DE=-2.64D-05 Acc= 1.00D-08 Lan=  0
 ITN= 50 MaxIt= 64 E=   -187.6984465796 DE=-1.32D-05 Acc= 1.00D-08 Lan=  0
 ITN= 51 MaxIt= 64 E=   -187.6984530424 DE=-6.46D-06 Acc= 1.00D-08 Lan=  0
 ITN= 52 MaxIt= 64 E=   -187.6984561507 DE=-3.11D-06 Acc= 1.00D-08 Lan=  0
 ITN= 53 MaxIt= 64 E=   -187.6984576327 DE=-1.48D-06 Acc= 1.00D-08 Lan=  0
 ITN= 54 MaxIt= 64 E=   -187.6984583364 DE=-7.04D-07 Acc= 1.00D-08 Lan=  0
 ITN= 55 MaxIt= 64 E=   -187.6984586699 DE=-3.34D-07 Acc= 1.00D-08 Lan=  0
 ITN= 56 MaxIt= 64 E=   -187.6984588280 DE=-1.58D-07 Acc= 1.00D-08 Lan=  0
 ITN= 57 MaxIt= 64 E=   -187.6984589031 DE=-7.50D-08 Acc= 1.00D-08 Lan=  0
 ITN= 58 MaxIt= 64 E=   -187.6984589387 DE=-3.57D-08 Acc= 1.00D-08 Lan=  0
 ITN= 59 MaxIt= 64 E=   -187.6984589557 DE=-1.70D-08 Acc= 1.00D-08 Lan=  0
 ITN= 60 MaxIt= 64 E=   -187.6984589638 DE=-8.09D-09 Acc= 1.00D-08 Lan=  0
 ... Do an extra-iteration for final printing.
 Final one electron symbolic density matrix:
                1             2 
      1  0.197675D+01
      2  0.527311D-05  0.232491D-01
 MCSCF converged.

 **********************************************************************

            Population analysis using the SCF density.

 **********************************************************************

 Orbital symmetries:
       Occupied  (SG) (SG) (SG) (SG) (SG) (SG) (SG) (?A) (?A) (?A)
                 (?A)
       Virtual   (?B) (?B) (SG) (SG) (?B) (?B) (SG) (SG) (SG) (?B)
                 (?B) (?B) (?B) (SG) (DLTA) (DLTA) (SG) (?B) (?B)
                 (SG) (PI) (PI) (DLTA) (DLTA) (SG) (DLTA) (DLTA)
                 (SG) (PI) (PI) (SG) (SG) (PI) (PI) (?B) (?B) (?B)
                 (?B) (SG) (SG) (SG) (SG) (SG)
 Unable to determine electronic state:  an orbital has unidentified symmetry.
 Alpha  occ. eigenvalues --    0.00000   0.00000   0.00000   0.00000   0.00000
 Alpha  occ. eigenvalues --    0.00000   0.00000   0.00000   0.00000   0.00000
 Alpha  occ. eigenvalues --    0.00000
 Alpha virt. eigenvalues --    0.00000   0.00000   0.00000   0.00000   0.00000
 Alpha virt. eigenvalues --    0.00000   0.00000   0.00000   0.00000   0.00000
 Alpha virt. eigenvalues --    0.00000   0.00000   0.00000   0.00000   0.00000
 Alpha virt. eigenvalues --    0.00000   0.00000   0.00000   0.00000   0.00000
 Alpha virt. eigenvalues --    0.00000   0.00000   0.00000   0.00000   0.00000
 Alpha virt. eigenvalues --    0.00000   0.00000   0.00000   0.00000   0.00000
 Alpha virt. eigenvalues --    0.00000   0.00000   0.00000   0.00000   0.00000
 Alpha virt. eigenvalues --    0.00000   0.00000   0.00000   0.00000   0.00000
 Alpha virt. eigenvalues --    0.00000   0.00000   0.00000
          Condensed to atoms (all electrons):
               1          2          3
     1  C    3.943909   0.689522   0.682160
     2  O    0.689522   7.693731  -0.056982
     3  O    0.682160  -0.056982   7.732959
 Mulliken charges:
               1
     1  C    0.684409
     2  O   -0.326271
     3  O   -0.358137
 Sum of Mulliken charges =   0.00000
 Mulliken charges with hydrogens summed into heavy atoms:
               1
     1  C    0.684409
     2  O   -0.326271
     3  O   -0.358137
 Electronic spatial extent (au):  <R**2>=            104.8936
 Charge=              0.0000 electrons
 Dipole moment (field-independent basis, Debye):
    X=              0.0000    Y=              0.0000    Z=              0.1623  Tot=              0.1623
 Quadrupole moment (field-independent basis, Debye-Ang):
   XX=            -14.2595   YY=            -14.2498   ZZ=            -19.5862
   XY=              0.0000   XZ=              0.0000   YZ=              0.0000
 Traceless Quadrupole moment (field-independent basis, Debye-Ang):
   XX=              1.7723   YY=              1.7821   ZZ=             -3.5544
   XY=              0.0000   XZ=              0.0000   YZ=              0.0000
 Octapole moment (field-independent basis, Debye-Ang**2):
  XXX=              0.0000  YYY=              0.0000  ZZZ=              0.3362  XYY=              0.0000
  XXY=              0.0000  XXZ=              0.1012  XZZ=              0.0000  YZZ=              0.0000
  YYZ=              0.0280  XYZ=              0.0000
 Hexadecapole moment (field-independent basis, Debye-Ang**3):
 XXXX=            -10.2310 YYYY=            -10.1800 ZZZZ=            -93.4002 XXXY=              0.0000
 XXXZ=              0.0000 YYYX=              0.0000 YYYZ=              0.0000 ZZZX=              0.0000
 ZZZY=              0.0000 XXYY=             -3.4018 XXZZ=            -16.6561 YYZZ=            -16.7251
 XXYZ=              0.0000 YYXZ=              0.0000 ZZXY=              0.0000
 N-N= 6.157701660058D+01 E-N=-5.669779864377D+02  KE= 1.881931126456D+02
 1\1\GINC-CPU-G-4\SP\CASSCF\6-311G(d,p)\C1O2\AM2145\17-Jul-2020\0\\#n C
 ASSCF(2,2)/6-311G(d,p)\\co2_backup\\0,1\C,0,-3.55536,-0.51345,0.\O,0,-
 4.65534,-0.52079,0.\O,0,-2.45539,-0.50613,0.\\Version=ES64L-G09RevD.01
 \State=1-SG\HF=-187.698459\RMSD=0.000e+00\Dipole=-0.0638414,-0.0004254
 ,0.\Quadrupole=-2.6424177,1.324748,1.3176697,-0.0264375,-0.0000003,0.0
 000483\PG=C*V [C*(O1C1O1)]\\@


 TO ERR IS HUMAN - AND TO BLAME IT ON A COMPUTER IS EVEN MORE SO.
 Job cpu time:       0 days  4 hours 38 minutes 49.8 seconds.
 File lengths (MBytes):  RWF=      5 Int=      0 D2E=      0 Chk=      1 Scr=      1
 Normal termination of Gaussian 09 at Fri Jul 17 17:49:11 2020.
