 Entering Gaussian System, Link 0=g09
 Initial command:
 /usr/local/Cluster-Apps/gaussian/g09/l1.exe "/rds/user/msff2/hpc-work/scratch/21652286/Gau-21549.inp" -scrdir="/rds/user/msff2/hpc-work/scratch/21652286/"
 Entering Link 1 = /usr/local/Cluster-Apps/gaussian/g09/l1.exe PID=     21550.
  
 Copyright (c) 1988,1990,1992,1993,1995,1998,2003,2009,2013,
            Gaussian, Inc.  All Rights Reserved.
  
 This is part of the Gaussian(R) 09 program.  It is based on
 the Gaussian(R) 03 system (copyright 2003, Gaussian, Inc.),
 the Gaussian(R) 98 system (copyright 1998, Gaussian, Inc.),
 the Gaussian(R) 94 system (copyright 1995, Gaussian, Inc.),
 the Gaussian 92(TM) system (copyright 1992, Gaussian, Inc.),
 the Gaussian 90(TM) system (copyright 1990, Gaussian, Inc.),
 the Gaussian 88(TM) system (copyright 1988, Gaussian, Inc.),
 the Gaussian 86(TM) system (copyright 1986, Carnegie Mellon
 University), and the Gaussian 82(TM) system (copyright 1983,
 Carnegie Mellon University). Gaussian is a federally registered
 trademark of Gaussian, Inc.
  
 This software contains proprietary and confidential information,
 including trade secrets, belonging to Gaussian, Inc.
  
 This software is provided under written license and may be
 used, copied, transmitted, or stored only in accord with that
 written license.
  
 The following legend is applicable only to US Government
 contracts under FAR:
  
                    RESTRICTED RIGHTS LEGEND
  
 Use, reproduction and disclosure by the US Government is
 subject to restrictions as set forth in subparagraphs (a)
 and (c) of the Commercial Computer Software - Restricted
 Rights clause in FAR 52.227-19.
  
 Gaussian, Inc.
 340 Quinnipiac St., Bldg. 40, Wallingford CT 06492
  
  
 ---------------------------------------------------------------
 Warning -- This program may not be used in any manner that
 competes with the business of Gaussian, Inc. or will provide
 assistance to any competitor of Gaussian, Inc.  The licensee
 of this program is prohibited from giving any competitor of
 Gaussian, Inc. access to this program.  By using this program,
 the user acknowledges that Gaussian, Inc. is engaged in the
 business of creating and licensing software in the field of
 computational chemistry and represents and warrants to the
 licensee that it is not a competitor of Gaussian, Inc. and that
 it will not use this program in any manner prohibited above.
 ---------------------------------------------------------------
  

 Cite this work as:
 Gaussian 09, Revision D.01,
 M. J. Frisch, G. W. Trucks, H. B. Schlegel, G. E. Scuseria, 
 M. A. Robb, J. R. Cheeseman, G. Scalmani, V. Barone, B. Mennucci, 
 G. A. Petersson, H. Nakatsuji, M. Caricato, X. Li, H. P. Hratchian, 
 A. F. Izmaylov, J. Bloino, G. Zheng, J. L. Sonnenberg, M. Hada, 
 M. Ehara, K. Toyota, R. Fukuda, J. Hasegawa, M. Ishida, T. Nakajima, 
 Y. Honda, O. Kitao, H. Nakai, T. Vreven, J. A. Montgomery, Jr., 
 J. E. Peralta, F. Ogliaro, M. Bearpark, J. J. Heyd, E. Brothers, 
 K. N. Kudin, V. N. Staroverov, T. Keith, R. Kobayashi, J. Normand, 
 K. Raghavachari, A. Rendell, J. C. Burant, S. S. Iyengar, J. Tomasi, 
 M. Cossi, N. Rega, J. M. Millam, M. Klene, J. E. Knox, J. B. Cross, 
 V. Bakken, C. Adamo, J. Jaramillo, R. Gomperts, R. E. Stratmann, 
 O. Yazyev, A. J. Austin, R. Cammi, C. Pomelli, J. W. Ochterski, 
 R. L. Martin, K. Morokuma, V. G. Zakrzewski, G. A. Voth, 
 P. Salvador, J. J. Dannenberg, S. Dapprich, A. D. Daniels, 
 O. Farkas, J. B. Foresman, J. V. Ortiz, J. Cioslowski, 
 and D. J. Fox, Gaussian, Inc., Wallingford CT, 2013.
 
 ******************************************
 Gaussian 09:  ES64L-G09RevD.01 24-Apr-2013
                 6-Apr-2020 
 ******************************************
 %nprocshared=16
 Will use up to   16 processors via shared memory.
 %mem=60GB
 %Chk=CEB-312-03-WLO_192.168.1.96_113420049902577.chk
 --------------------------
 #p B3LYP/6-31G(d) Opt Freq
 --------------------------
 1/14=-1,18=20,19=15,26=3,38=1/1,3;
 2/9=110,12=2,17=6,18=5,40=1/2;
 3/5=1,6=6,7=1,11=2,16=1,25=1,30=1,71=1,74=-5/1,2,3;
 4//1;
 5/5=2,38=5/2;
 6/7=2,8=2,9=2,10=2,28=1/1;
 7//1,2,3,16;
 1/14=-1,18=20,19=15,26=3/3(2);
 2/9=110/2;
 99//99;
 2/9=110/2;
 3/5=1,6=6,7=1,11=2,16=1,25=1,30=1,71=1,74=-5/1,2,3;
 4/5=5,16=3,69=1/1;
 5/5=2,38=5/2;
 7//1,2,3,16;
 1/14=-1,18=20,19=15,26=3/3(-5);
 2/9=110/2;
 6/7=2,8=2,9=2,10=2,19=2,28=1/1;
 99/9=1/99;
 Leave Link    1 at Mon Apr  6 18:17:48 2020, MaxMem=  8053063680 cpu:         0.8
 (Enter /usr/local/Cluster-Apps/gaussian/g09/l101.exe)
 -------------------------------------------
 CEB-312-03-WLO_192.168.1.96_113420049902577
 -------------------------------------------
 Symbolic Z-matrix:
 Charge =  0 Multiplicity = 1
 O                    -2.9847   -0.3616    0.5918 
 C                    -3.9338   -0.7328   -0.0398 
 S                    -3.8193   -1.3747   -1.7334 
 S                    -5.632    -0.7103    0.5998 
 C                    -5.622    -1.3724   -2.0582 
 C                    -6.3581   -1.702    -0.7583 
 H                    -5.8288   -2.1262   -2.8233 
 H                    -5.9168   -0.3906   -2.4397 
 H                    -7.4181   -1.4438   -0.8362 
 H                    -6.2694   -2.7644   -0.5139 
 
 NAtoms=     10 NQM=       10 NQMF=       0 NMMI=      0 NMMIF=      0
                NMic=       0 NMicF=      0.
                    Isotopes and Nuclear Properties:
 (Nuclear quadrupole moments (NQMom) in fm**2, nuclear magnetic moments (NMagM)
  in nuclear magnetons)

  Atom         1           2           3           4           5           6           7           8           9          10
 IAtWgt=          16          12          32          32          12          12           1           1           1           1
 AtmWgt=  15.9949146  12.0000000  31.9720718  31.9720718  12.0000000  12.0000000   1.0078250   1.0078250   1.0078250   1.0078250
 NucSpn=           0           0           0           0           0           0           1           1           1           1
 AtZEff=   0.0000000   0.0000000   0.0000000   0.0000000   0.0000000   0.0000000   0.0000000   0.0000000   0.0000000   0.0000000
 NQMom=    0.0000000   0.0000000   0.0000000   0.0000000   0.0000000   0.0000000   0.0000000   0.0000000   0.0000000   0.0000000
 NMagM=    0.0000000   0.0000000   0.0000000   0.0000000   0.0000000   0.0000000   2.7928460   2.7928460   2.7928460   2.7928460
 AtZNuc=   8.0000000   6.0000000  16.0000000  16.0000000   6.0000000   6.0000000   1.0000000   1.0000000   1.0000000   1.0000000
 Leave Link  101 at Mon Apr  6 18:17:49 2020, MaxMem=  8053063680 cpu:         5.3
 (Enter /usr/local/Cluster-Apps/gaussian/g09/l103.exe)

 GradGradGradGradGradGradGradGradGradGradGradGradGradGradGradGradGradGrad
 Berny optimization.
 Initialization pass.
                           ----------------------------
                           !    Initial Parameters    !
                           ! (Angstroms and Degrees)  !
 --------------------------                            --------------------------
 ! Name  Definition              Value          Derivative Info.                !
 --------------------------------------------------------------------------------
 ! R1    R(1,2)                  1.199          estimate D2E/DX2                !
 ! R2    R(2,3)                  1.8148         estimate D2E/DX2                !
 ! R3    R(2,4)                  1.8148         estimate D2E/DX2                !
 ! R4    R(3,5)                  1.8317         estimate D2E/DX2                !
 ! R5    R(4,6)                  1.8317         estimate D2E/DX2                !
 ! R6    R(5,6)                  1.5298         estimate D2E/DX2                !
 ! R7    R(5,7)                  1.0938         estimate D2E/DX2                !
 ! R8    R(5,8)                  1.0938         estimate D2E/DX2                !
 ! R9    R(6,9)                  1.0938         estimate D2E/DX2                !
 ! R10   R(6,10)                 1.0938         estimate D2E/DX2                !
 ! A1    A(1,2,3)              123.4479         estimate D2E/DX2                !
 ! A2    A(1,2,4)              123.4527         estimate D2E/DX2                !
 ! A3    A(3,2,4)              113.0994         estimate D2E/DX2                !
 ! A4    A(2,3,5)               95.9086         estimate D2E/DX2                !
 ! A5    A(2,4,6)               95.9071         estimate D2E/DX2                !
 ! A6    A(3,5,6)              108.8209         estimate D2E/DX2                !
 ! A7    A(3,5,7)              108.0135         estimate D2E/DX2                !
 ! A8    A(3,5,8)              109.161          estimate D2E/DX2                !
 ! A9    A(6,5,7)              110.7888         estimate D2E/DX2                !
 ! A10   A(6,5,8)              111.1053         estimate D2E/DX2                !
 ! A11   A(7,5,8)              108.8851         estimate D2E/DX2                !
 ! A12   A(4,6,5)              108.8222         estimate D2E/DX2                !
 ! A13   A(4,6,9)              108.0091         estimate D2E/DX2                !
 ! A14   A(4,6,10)             109.1515         estimate D2E/DX2                !
 ! A15   A(5,6,9)              110.79           estimate D2E/DX2                !
 ! A16   A(5,6,10)             111.1083         estimate D2E/DX2                !
 ! A17   A(9,6,10)             108.8932         estimate D2E/DX2                !
 ! D1    D(1,2,3,5)           -169.2325         estimate D2E/DX2                !
 ! D2    D(4,2,3,5)             10.7665         estimate D2E/DX2                !
 ! D3    D(1,2,4,6)           -169.2226         estimate D2E/DX2                !
 ! D4    D(3,2,4,6)             10.7784         estimate D2E/DX2                !
 ! D5    D(2,3,5,6)            -34.0206         estimate D2E/DX2                !
 ! D6    D(2,3,5,7)           -154.3609         estimate D2E/DX2                !
 ! D7    D(2,3,5,8)             87.3899         estimate D2E/DX2                !
 ! D8    D(2,4,6,5)            -34.0284         estimate D2E/DX2                !
 ! D9    D(2,4,6,9)           -154.3682         estimate D2E/DX2                !
 ! D10   D(2,4,6,10)            87.3807         estimate D2E/DX2                !
 ! D11   D(3,5,6,4)             45.7641         estimate D2E/DX2                !
 ! D12   D(3,5,6,9)            164.3709         estimate D2E/DX2                !
 ! D13   D(3,5,6,10)           -74.4421         estimate D2E/DX2                !
 ! D14   D(7,5,6,4)            164.3749         estimate D2E/DX2                !
 ! D15   D(7,5,6,9)            -77.0182         estimate D2E/DX2                !
 ! D16   D(7,5,6,10)            44.1687         estimate D2E/DX2                !
 ! D17   D(8,5,6,4)            -74.4512         estimate D2E/DX2                !
 ! D18   D(8,5,6,9)             44.1556         estimate D2E/DX2                !
 ! D19   D(8,5,6,10)           165.3425         estimate D2E/DX2                !
 --------------------------------------------------------------------------------
 Trust Radius=3.00D-01 FncErr=1.00D-07 GrdErr=1.00D-06
 Number of steps in this run=     56 maximum allowed number of steps=    100.
 GradGradGradGradGradGradGradGradGradGradGradGradGradGradGradGradGradGrad

 Leave Link  103 at Mon Apr  6 18:17:49 2020, MaxMem=  8053063680 cpu:         0.3
 (Enter /usr/local/Cluster-Apps/gaussian/g09/l202.exe)
                          Input orientation:                          
 ---------------------------------------------------------------------
 Center     Atomic      Atomic             Coordinates (Angstroms)
 Number     Number       Type             X           Y           Z
 ---------------------------------------------------------------------
      1          8           0       -2.984700   -0.361600    0.591800
      2          6           0       -3.933800   -0.732800   -0.039800
      3         16           0       -3.819300   -1.374700   -1.733400
      4         16           0       -5.632000   -0.710300    0.599800
      5          6           0       -5.622000   -1.372400   -2.058200
      6          6           0       -6.358100   -1.702000   -0.758300
      7          1           0       -5.828800   -2.126200   -2.823300
      8          1           0       -5.916800   -0.390600   -2.439700
      9          1           0       -7.418100   -1.443800   -0.836200
     10          1           0       -6.269400   -2.764400   -0.513900
 ---------------------------------------------------------------------
                    Distance matrix (angstroms):
                    1          2          3          4          5
     1  O    0.000000
     2  C    1.198957   0.000000
     3  S    2.670109   1.814780   0.000000
     4  S    2.670178   1.814794   3.028388   0.000000
     5  C    3.872928   2.707960   1.831728   2.739241   0.000000
     6  C    3.872889   2.707918   2.739243   1.831700   1.529778
     7  H    4.781802   3.644237   2.406392   3.709598   1.093782
     8  H    4.217587   3.131918   2.422152   3.069508   1.093792
     9  H    4.781775   3.644190   3.709596   2.406298   2.173559
    10  H    4.217259   3.131644   3.069436   2.421969   2.177534
                    6          7          8          9         10
     6  C    0.000000
     7  H    2.173552   0.000000
     8  H    2.177526   1.779663   0.000000
     9  H    1.093771   2.634409   2.436051   0.000000
    10  H    1.093752   2.436135   3.077005   1.779712   0.000000
 Stoichiometry    C3H4OS2
 Framework group  C1[X(C3H4OS2)]
 Deg. of freedom    24
 Full point group                 C1      NOp   1
 Largest Abelian subgroup         C1      NOp   1
 Largest concise Abelian subgroup C1      NOp   1
                         Standard orientation:                         
 ---------------------------------------------------------------------
 Center     Atomic      Atomic             Coordinates (Angstroms)
 Number     Number       Type             X           Y           Z
 ---------------------------------------------------------------------
      1          8           0       -2.260931   -0.000198    0.000056
      2          6           0       -1.061974   -0.000115    0.000008
      3         16           0       -0.061808    1.511866    0.083729
      4         16           0       -0.061471   -1.511883   -0.083820
      5          6           0        1.535648    0.702843   -0.302076
      6          6           0        1.535740   -0.702535    0.302184
      7          1           0        2.335753    1.311043    0.129530
      8          1           0        1.665975    0.664915   -1.387413
      9          1           0        2.335963   -1.310615   -0.129344
     10          1           0        1.665739   -0.664633    1.387521
 ---------------------------------------------------------------------
 Rotational constants (GHZ):      2.9918321      2.8920585      1.5287279
 Leave Link  202 at Mon Apr  6 18:17:49 2020, MaxMem=  8053063680 cpu:         0.4
 (Enter /usr/local/Cluster-Apps/gaussian/g09/l301.exe)
 Standard basis: 6-31G(d) (6D, 7F)
 Ernie: Thresh=  0.10000D-02 Tol=  0.10000D-05 Strict=F.
 There are   106 symmetry adapted cartesian basis functions of A   symmetry.
 There are   106 symmetry adapted basis functions of A   symmetry.
   106 basis functions,   232 primitive gaussians,   106 cartesian basis functions
    31 alpha electrons       31 beta electrons
       nuclear repulsion energy       355.3484858333 Hartrees.
 IExCor=  402 DFT=T Ex+Corr=B3LYP ExCW=0 ScaHFX=  0.200000
 ScaDFX=  0.800000  0.720000  1.000000  0.810000 ScalE2=  1.000000  1.000000
 IRadAn=      0 IRanWt=     -1 IRanGd=            0 ICorTp=0 IEmpDi=  4
 NAtoms=   10 NActive=   10 NUniq=   10 SFac= 1.00D+00 NAtFMM=   60 NAOKFM=F Big=F
 Integral buffers will be    131072 words long.
 Raffenetti 2 integral format.
 Two-electron integral symmetry is turned on.
 Leave Link  301 at Mon Apr  6 18:17:49 2020, MaxMem=  8053063680 cpu:         0.8
 (Enter /usr/local/Cluster-Apps/gaussian/g09/l302.exe)
 NPDir=0 NMtPBC=     1 NCelOv=     1 NCel=       1 NClECP=     1 NCelD=      1
         NCelK=      1 NCelE2=     1 NClLst=     1 CellRange=     0.0.
 One-electron integrals computed using PRISM.
 NBasis=   106 RedAO= T EigKep=  4.54D-03  NBF=   106
 NBsUse=   106 1.00D-06 EigRej= -1.00D+00 NBFU=   106
 Precomputing XC quadrature grid using
 IXCGrd= 4 IRadAn=           0 IRanWt=          -1 IRanGd=           0 AccXCQ= 0.00D+00.
 Generated NRdTot=       0 NPtTot=           0 NUsed=           0 NTot=          32
 NSgBfM=   106   106   106   106   106 MxSgAt=    10 MxSgA2=    10.
 Leave Link  302 at Mon Apr  6 18:17:50 2020, MaxMem=  8053063680 cpu:         2.1
 (Enter /usr/local/Cluster-Apps/gaussian/g09/l303.exe)
 DipDrv:  MaxL=1.
 Leave Link  303 at Mon Apr  6 18:17:50 2020, MaxMem=  8053063680 cpu:         0.8
 (Enter /usr/local/Cluster-Apps/gaussian/g09/l401.exe)
 ExpMin= 1.17D-01 ExpMax= 2.19D+04 ExpMxC= 3.30D+03 IAcc=1 IRadAn=         1 AccDes= 0.00D+00
 Harris functional with IExCor=  402 and IRadAn=       1 diagonalized for initial guess.
 HarFok:  IExCor=  402 AccDes= 0.00D+00 IRadAn=         1 IDoV= 1 UseB2=F ITyADJ=14
 ICtDFT=  3500011 ScaDFX=  1.000000  1.000000  1.000000  1.000000
 FoFCou: FMM=F IPFlag=           0 FMFlag=      100000 FMFlg1=           0
         NFxFlg=           0 DoJE=T BraDBF=F KetDBF=T FulRan=T
         wScrn=  0.000000 ICntrl=     500 IOpCl=  0 I1Cent=   200000004 NGrid=           0
         NMat0=    1 NMatS0=      1 NMatT0=    0 NMatD0=    1 NMtDS0=    0 NMtDT0=    0
 Petite list used in FoFCou.
 Harris En= -988.257683412327    
 JPrj=0 DoOrth=F DoCkMO=F.
 Leave Link  401 at Mon Apr  6 18:17:50 2020, MaxMem=  8053063680 cpu:         2.7
 (Enter /usr/local/Cluster-Apps/gaussian/g09/l502.exe)
 Closed shell SCF:
 Using DIIS extrapolation, IDIIS=  1040.
 Integral symmetry usage will be decided dynamically.
 Keep R1 ints in memory in canonical form, NReq=17064972.
 IVT=       54750 IEndB=       54750 NGot=  8053063680 MDV=  8036925975
 LenX=  8036925975 LenY=  8036914298
 Requested convergence on RMS density matrix=1.00D-08 within 128 cycles.
 Requested convergence on MAX density matrix=1.00D-06.
 Requested convergence on             energy=1.00D-06.
 No special actions if energy rises.
 FoFCou: FMM=F IPFlag=           0 FMFlag=           0 FMFlg1=           0
         NFxFlg=           0 DoJE=F BraDBF=F KetDBF=F FulRan=T
         wScrn=  0.000000 ICntrl=     600 IOpCl=  0 I1Cent=           0 NGrid=           0
         NMat0=    1 NMatS0=   5671 NMatT0=    0 NMatD0=    1 NMtDS0=    0 NMtDT0=    0
 Symmetry not used in FoFCou.
 Integral accuracy reduced to 1.0D-05 until final iterations.

 Cycle   1  Pass 0  IDiag  1:
 E= -988.166258329770    
 DIIS: error= 3.91D-02 at cycle   1 NSaved=   1.
 NSaved= 1 IEnMin= 1 EnMin= -988.166258329770     IErMin= 1 ErrMin= 3.91D-02
 ErrMax= 3.91D-02  0.00D+00 EMaxC= 1.00D-01 BMatC= 1.96D-01 BMatP= 1.96D-01
 IDIUse=3 WtCom= 6.09D-01 WtEn= 3.91D-01
 Coeff-Com:  0.100D+01
 Coeff-En:   0.100D+01
 Coeff:      0.100D+01
 Gap=     0.305 Goal=   None    Shift=    0.000
 GapD=    0.305 DampG=1.000 DampE=0.500 DampFc=0.5000 IDamp=-1.
 Damping current iteration by 5.00D-01
 RMSDP=1.10D-02 MaxDP=2.68D-01              OVMax= 4.63D-01

 Cycle   2  Pass 0  IDiag  1:
 E= -988.145747441637     Delta-E=        0.020510888133 Rises=F Damp=T
 DIIS: error= 2.65D-02 at cycle   2 NSaved=   2.
 NSaved= 2 IEnMin= 1 EnMin= -988.166258329770     IErMin= 2 ErrMin= 2.65D-02
 ErrMax= 2.65D-02  0.00D+00 EMaxC= 1.00D-01 BMatC= 7.26D-02 BMatP= 1.96D-01
 IDIUse=3 WtCom= 7.35D-01 WtEn= 2.65D-01
 Coeff-Com:  0.357D+00 0.643D+00
 Coeff-En:   0.539D+00 0.461D+00
 Coeff:      0.405D+00 0.595D+00
 Gap=     0.261 Goal=   None    Shift=    0.000
 RMSDP=3.29D-03 MaxDP=6.26D-02 DE= 2.05D-02 OVMax= 2.45D-01

 Cycle   3  Pass 0  IDiag  1:
 E= -988.317421027915     Delta-E=       -0.171673586278 Rises=F Damp=F
 DIIS: error= 1.06D-02 at cycle   3 NSaved=   3.
 NSaved= 3 IEnMin= 3 EnMin= -988.317421027915     IErMin= 3 ErrMin= 1.06D-02
 ErrMax= 1.06D-02  0.00D+00 EMaxC= 1.00D-01 BMatC= 2.05D-02 BMatP= 7.26D-02
 IDIUse=3 WtCom= 8.94D-01 WtEn= 1.06D-01
 Coeff-Com:  0.172D+00 0.346D+00 0.482D+00
 Coeff-En:   0.000D+00 0.000D+00 0.100D+01
 Coeff:      0.153D+00 0.310D+00 0.537D+00
 Gap=     0.231 Goal=   None    Shift=    0.000
 RMSDP=1.73D-03 MaxDP=2.77D-02 DE=-1.72D-01 OVMax= 4.19D-02

 Cycle   4  Pass 0  IDiag  1:
 E= -988.333246695881     Delta-E=       -0.015825667967 Rises=F Damp=F
 DIIS: error= 4.65D-03 at cycle   4 NSaved=   4.
 NSaved= 4 IEnMin= 4 EnMin= -988.333246695881     IErMin= 4 ErrMin= 4.65D-03
 ErrMax= 4.65D-03  0.00D+00 EMaxC= 1.00D-01 BMatC= 3.89D-03 BMatP= 2.05D-02
 IDIUse=3 WtCom= 9.54D-01 WtEn= 4.65D-02
 Coeff-Com:  0.100D-01 0.497D-01 0.305D+00 0.635D+00
 Coeff-En:   0.000D+00 0.000D+00 0.181D+00 0.819D+00
 Coeff:      0.955D-02 0.474D-01 0.299D+00 0.644D+00
 Gap=     0.235 Goal=   None    Shift=    0.000
 RMSDP=7.39D-04 MaxDP=1.25D-02 DE=-1.58D-02 OVMax= 1.83D-02

 Cycle   5  Pass 0  IDiag  1:
 E= -988.337091559564     Delta-E=       -0.003844863682 Rises=F Damp=F
 DIIS: error= 5.90D-04 at cycle   5 NSaved=   5.
 NSaved= 5 IEnMin= 5 EnMin= -988.337091559564     IErMin= 5 ErrMin= 5.90D-04
 ErrMax= 5.90D-04  0.00D+00 EMaxC= 1.00D-01 BMatC= 6.98D-05 BMatP= 3.89D-03
 IDIUse=3 WtCom= 9.94D-01 WtEn= 5.90D-03
 Coeff-Com: -0.477D-03 0.271D-02 0.808D-01 0.232D+00 0.685D+00
 Coeff-En:   0.000D+00 0.000D+00 0.000D+00 0.000D+00 0.100D+01
 Coeff:     -0.474D-03 0.269D-02 0.803D-01 0.230D+00 0.687D+00
 Gap=     0.236 Goal=   None    Shift=    0.000
 RMSDP=1.50D-04 MaxDP=2.19D-03 DE=-3.84D-03 OVMax= 3.39D-03

 Cycle   6  Pass 0  IDiag  1:
 E= -988.337164363801     Delta-E=       -0.000072804237 Rises=F Damp=F
 DIIS: error= 2.14D-04 at cycle   6 NSaved=   6.
 NSaved= 6 IEnMin= 6 EnMin= -988.337164363801     IErMin= 6 ErrMin= 2.14D-04
 ErrMax= 2.14D-04  0.00D+00 EMaxC= 1.00D-01 BMatC= 8.23D-06 BMatP= 6.98D-05
 IDIUse=3 WtCom= 9.98D-01 WtEn= 2.14D-03
 Coeff-Com: -0.109D-03-0.137D-02 0.336D-01 0.102D+00 0.372D+00 0.495D+00
 Coeff-En:   0.000D+00 0.000D+00 0.000D+00 0.000D+00 0.000D+00 0.100D+01
 Coeff:     -0.109D-03-0.137D-02 0.335D-01 0.101D+00 0.371D+00 0.496D+00
 Gap=     0.235 Goal=   None    Shift=    0.000
 RMSDP=4.31D-05 MaxDP=5.53D-04 DE=-7.28D-05 OVMax= 1.17D-03

 Cycle   7  Pass 0  IDiag  1:
 E= -988.337173274996     Delta-E=       -0.000008911195 Rises=F Damp=F
 DIIS: error= 1.05D-04 at cycle   7 NSaved=   7.
 NSaved= 7 IEnMin= 7 EnMin= -988.337173274996     IErMin= 7 ErrMin= 1.05D-04
 ErrMax= 1.05D-04  0.00D+00 EMaxC= 1.00D-01 BMatC= 9.08D-07 BMatP= 8.23D-06
 IDIUse=3 WtCom= 9.99D-01 WtEn= 1.05D-03
 Coeff-Com:  0.319D-03-0.179D-02 0.353D-02 0.103D-01 0.621D-01 0.247D+00
 Coeff-Com:  0.679D+00
 Coeff-En:   0.000D+00 0.000D+00 0.000D+00 0.000D+00 0.000D+00 0.000D+00
 Coeff-En:   0.100D+01
 Coeff:      0.319D-03-0.179D-02 0.352D-02 0.102D-01 0.620D-01 0.247D+00
 Coeff:      0.679D+00
 Gap=     0.235 Goal=   None    Shift=    0.000
 RMSDP=9.83D-06 MaxDP=1.71D-04 DE=-8.91D-06 OVMax= 2.82D-04

 Initial convergence to 1.0D-05 achieved.  Increase integral accuracy.
 Cycle   8  Pass 1  IDiag  1:
 E= -988.337248747551     Delta-E=       -0.000075472556 Rises=F Damp=F
 DIIS: error= 2.60D-05 at cycle   1 NSaved=   1.
 NSaved= 1 IEnMin= 1 EnMin= -988.337248747551     IErMin= 1 ErrMin= 2.60D-05
 ErrMax= 2.60D-05  0.00D+00 EMaxC= 1.00D-01 BMatC= 7.70D-08 BMatP= 7.70D-08
 IDIUse=1 WtCom= 1.00D+00 WtEn= 0.00D+00
 Coeff-Com:  0.100D+01
 Coeff:      0.100D+01
 Gap=     0.235 Goal=   None    Shift=    0.000
 RMSDP=9.83D-06 MaxDP=1.71D-04 DE=-7.55D-05 OVMax= 1.63D-04

 Cycle   9  Pass 1  IDiag  1:
 E= -988.337248722012     Delta-E=        0.000000025539 Rises=F Damp=F
 DIIS: error= 3.75D-05 at cycle   2 NSaved=   2.
 NSaved= 2 IEnMin= 1 EnMin= -988.337248747551     IErMin= 1 ErrMin= 2.60D-05
 ErrMax= 3.75D-05  0.00D+00 EMaxC= 1.00D-01 BMatC= 1.34D-07 BMatP= 7.70D-08
 IDIUse=1 WtCom= 1.00D+00 WtEn= 0.00D+00
 Coeff-Com:  0.586D+00 0.414D+00
 Coeff:      0.586D+00 0.414D+00
 Gap=     0.235 Goal=   None    Shift=    0.000
 RMSDP=3.83D-06 MaxDP=1.22D-04 DE= 2.55D-08 OVMax= 1.41D-04

 Cycle  10  Pass 1  IDiag  1:
 E= -988.337248816537     Delta-E=       -0.000000094525 Rises=F Damp=F
 DIIS: error= 1.39D-05 at cycle   3 NSaved=   3.
 NSaved= 3 IEnMin= 3 EnMin= -988.337248816537     IErMin= 3 ErrMin= 1.39D-05
 ErrMax= 1.39D-05  0.00D+00 EMaxC= 1.00D-01 BMatC= 1.97D-08 BMatP= 7.70D-08
 IDIUse=1 WtCom= 1.00D+00 WtEn= 0.00D+00
 Coeff-Com:  0.303D-01 0.274D+00 0.695D+00
 Coeff:      0.303D-01 0.274D+00 0.695D+00
 Gap=     0.235 Goal=   None    Shift=    0.000
 RMSDP=1.28D-06 MaxDP=3.24D-05 DE=-9.45D-08 OVMax= 4.28D-05

 Cycle  11  Pass 1  IDiag  1:
 E= -988.337248830944     Delta-E=       -0.000000014407 Rises=F Damp=F
 DIIS: error= 2.39D-06 at cycle   4 NSaved=   4.
 NSaved= 4 IEnMin= 4 EnMin= -988.337248830944     IErMin= 4 ErrMin= 2.39D-06
 ErrMax= 2.39D-06  0.00D+00 EMaxC= 1.00D-01 BMatC= 1.16D-09 BMatP= 1.97D-08
 IDIUse=1 WtCom= 1.00D+00 WtEn= 0.00D+00
 Coeff-Com: -0.120D-01 0.130D+00 0.379D+00 0.503D+00
 Coeff:     -0.120D-01 0.130D+00 0.379D+00 0.503D+00
 Gap=     0.235 Goal=   None    Shift=    0.000
 RMSDP=4.57D-07 MaxDP=8.90D-06 DE=-1.44D-08 OVMax= 9.26D-06

 Cycle  12  Pass 1  IDiag  1:
 E= -988.337248832162     Delta-E=       -0.000000001218 Rises=F Damp=F
 DIIS: error= 6.16D-07 at cycle   5 NSaved=   5.
 NSaved= 5 IEnMin= 5 EnMin= -988.337248832162     IErMin= 5 ErrMin= 6.16D-07
 ErrMax= 6.16D-07  0.00D+00 EMaxC= 1.00D-01 BMatC= 6.17D-11 BMatP= 1.16D-09
 IDIUse=1 WtCom= 1.00D+00 WtEn= 0.00D+00
 Coeff-Com: -0.785D-02 0.486D-01 0.149D+00 0.258D+00 0.553D+00
 Coeff:     -0.785D-02 0.486D-01 0.149D+00 0.258D+00 0.553D+00
 Gap=     0.235 Goal=   None    Shift=    0.000
 RMSDP=9.45D-08 MaxDP=1.05D-06 DE=-1.22D-09 OVMax= 2.25D-06

 Cycle  13  Pass 1  IDiag  1:
 E= -988.337248832229     Delta-E=       -0.000000000067 Rises=F Damp=F
 DIIS: error= 8.26D-08 at cycle   6 NSaved=   6.
 NSaved= 6 IEnMin= 6 EnMin= -988.337248832229     IErMin= 6 ErrMin= 8.26D-08
 ErrMax= 8.26D-08  0.00D+00 EMaxC= 1.00D-01 BMatC= 1.22D-12 BMatP= 6.17D-11
 IDIUse=1 WtCom= 1.00D+00 WtEn= 0.00D+00
 Coeff-Com: -0.165D-02 0.742D-02 0.227D-01 0.485D-01 0.159D+00 0.764D+00
 Coeff:     -0.165D-02 0.742D-02 0.227D-01 0.485D-01 0.159D+00 0.764D+00
 Gap=     0.235 Goal=   None    Shift=    0.000
 RMSDP=2.45D-08 MaxDP=4.49D-07 DE=-6.71D-11 OVMax= 5.29D-07

 Cycle  14  Pass 1  IDiag  1:
 E= -988.337248832215     Delta-E=        0.000000000014 Rises=F Damp=F
 DIIS: error= 6.76D-08 at cycle   7 NSaved=   7.
 NSaved= 7 IEnMin= 6 EnMin= -988.337248832229     IErMin= 7 ErrMin= 6.76D-08
 ErrMax= 6.76D-08  0.00D+00 EMaxC= 1.00D-01 BMatC= 4.54D-13 BMatP= 1.22D-12
 IDIUse=1 WtCom= 1.00D+00 WtEn= 0.00D+00
 Coeff-Com:  0.366D-04-0.174D-02-0.619D-02-0.350D-02 0.227D-01 0.395D+00
 Coeff-Com:  0.593D+00
 Coeff:      0.366D-04-0.174D-02-0.619D-02-0.350D-02 0.227D-01 0.395D+00
 Coeff:      0.593D+00
 Gap=     0.235 Goal=   None    Shift=    0.000
 RMSDP=9.21D-09 MaxDP=1.14D-07 DE= 1.36D-11 OVMax= 2.44D-07

 SCF Done:  E(RB3LYP) =  -988.337248832     A.U. after   14 cycles
            NFock= 14  Conv=0.92D-08     -V/T= 2.0044
 KE= 9.840044764845D+02 PE=-3.050405848093D+03 EE= 7.227156369427D+02
 Leave Link  502 at Mon Apr  6 18:17:52 2020, MaxMem=  8053063680 cpu:        17.7
 (Enter /usr/local/Cluster-Apps/gaussian/g09/l601.exe)
 Copying SCF densities to generalized density rwf, IOpCl= 0 IROHF=0.

 **********************************************************************

            Population analysis using the SCF density.

 **********************************************************************

 Orbital symmetries:
       Occupied  (A) (A) (A) (A) (A) (A) (A) (A) (A) (A) (A) (A)
                 (A) (A) (A) (A) (A) (A) (A) (A) (A) (A) (A) (A)
                 (A) (A) (A) (A) (A) (A) (A)
       Virtual   (A) (A) (A) (A) (A) (A) (A) (A) (A) (A) (A) (A)
                 (A) (A) (A) (A) (A) (A) (A) (A) (A) (A) (A) (A)
                 (A) (A) (A) (A) (A) (A) (A) (A) (A) (A) (A) (A)
                 (A) (A) (A) (A) (A) (A) (A) (A) (A) (A) (A) (A)
                 (A) (A) (A) (A) (A) (A) (A) (A) (A) (A) (A) (A)
                 (A) (A) (A) (A) (A) (A) (A) (A) (A) (A) (A) (A)
                 (A) (A) (A)
 The electronic state is 1-A.
 Alpha  occ. eigenvalues --  -88.90445 -88.90444 -19.16275 -10.32731 -10.25121
 Alpha  occ. eigenvalues --  -10.25099  -7.96715  -7.96714  -5.93166  -5.93164
 Alpha  occ. eigenvalues --   -5.92838  -5.92834  -5.92218  -5.92218  -1.07035
 Alpha  occ. eigenvalues --   -0.86663  -0.76567  -0.73437  -0.62334  -0.53729
 Alpha  occ. eigenvalues --   -0.50679  -0.47841  -0.44517  -0.43396  -0.41989
 Alpha  occ. eigenvalues --   -0.41928  -0.37009  -0.34173  -0.27650  -0.26740
 Alpha  occ. eigenvalues --   -0.25799
 Alpha virt. eigenvalues --   -0.02278  -0.02161   0.03993   0.04473   0.08235
 Alpha virt. eigenvalues --    0.09881   0.10253   0.14007   0.14043   0.19938
 Alpha virt. eigenvalues --    0.22804   0.31508   0.32946   0.36011   0.36490
 Alpha virt. eigenvalues --    0.37488   0.38430   0.38676   0.39485   0.50081
 Alpha virt. eigenvalues --    0.50873   0.54744   0.56443   0.58078   0.62630
 Alpha virt. eigenvalues --    0.63227   0.71106   0.71591   0.72755   0.80237
 Alpha virt. eigenvalues --    0.82929   0.83850   0.85633   0.86293   0.86942
 Alpha virt. eigenvalues --    0.87388   0.90947   0.93406   0.93977   0.96253
 Alpha virt. eigenvalues --    0.98621   1.01750   1.04693   1.08601   1.12849
 Alpha virt. eigenvalues --    1.13551   1.20124   1.46819   1.51053   1.54397
 Alpha virt. eigenvalues --    1.56400   1.57903   1.68009   1.77711   1.85547
 Alpha virt. eigenvalues --    1.87705   1.94889   1.97500   1.97719   2.09662
 Alpha virt. eigenvalues --    2.19021   2.20140   2.23236   2.29584   2.31988
 Alpha virt. eigenvalues --    2.54835   2.55893   2.65090   2.96991   3.84048
 Alpha virt. eigenvalues --    3.91074   3.94292   4.16712   4.23549   4.34038
          Condensed to atoms (all electrons):
               1          2          3          4          5          6
     1  O    7.995856   0.503629  -0.054712  -0.054705   0.001404   0.001404
     2  C    0.503629   4.920555   0.240429   0.240421  -0.011783  -0.011783
     3  S   -0.054712   0.240429  15.621286  -0.116163   0.254969  -0.052433
     4  S   -0.054705   0.240421  -0.116163  15.621325  -0.052432   0.254970
     5  C    0.001404  -0.011783   0.254969  -0.052432   5.265687   0.320399
     6  C    0.001404  -0.011783  -0.052433   0.254970   0.320399   5.265676
     7  H   -0.000020   0.002278  -0.036197   0.004429   0.360550  -0.024651
     8  H    0.000026  -0.003135  -0.043254   0.006907   0.363654  -0.040014
     9  H   -0.000020   0.002278   0.004428  -0.036203  -0.024650   0.360555
    10  H    0.000026  -0.003137   0.006910  -0.043273  -0.040015   0.363664
               7          8          9         10
     1  O   -0.000020   0.000026  -0.000020   0.000026
     2  C    0.002278  -0.003135   0.002278  -0.003137
     3  S   -0.036197  -0.043254   0.004428   0.006910
     4  S    0.004429   0.006907  -0.036203  -0.043273
     5  C    0.360550   0.363654  -0.024650  -0.040015
     6  C   -0.024651  -0.040014   0.360555   0.363664
     7  H    0.536967  -0.032879  -0.003138  -0.003444
     8  H   -0.032879   0.543987  -0.003443   0.004894
     9  H   -0.003138  -0.003443   0.536950  -0.032866
    10  H   -0.003444   0.004894  -0.032866   0.543967
 Mulliken charges:
               1
     1  O   -0.392889
     2  C    0.120248
     3  S    0.174738
     4  S    0.174725
     5  C   -0.437783
     6  C   -0.437787
     7  H    0.196107
     8  H    0.203257
     9  H    0.196110
    10  H    0.203275
 Sum of Mulliken charges =   0.00000
 Mulliken charges with hydrogens summed into heavy atoms:
               1
     1  O   -0.392889
     2  C    0.120248
     3  S    0.174738
     4  S    0.174725
     5  C   -0.038420
     6  C   -0.038402
 Electronic spatial extent (au):  <R**2>=            757.8343
 Charge=              0.0000 electrons
 Dipole moment (field-independent basis, Debye):
    X=              4.5801    Y=              0.0004    Z=              0.0001  Tot=              4.5801
 Quadrupole moment (field-independent basis, Debye-Ang):
   XX=            -49.2489   YY=            -50.8631   ZZ=            -49.1514
   XY=              0.0001   XZ=              0.0002   YZ=             -0.4011
 Traceless Quadrupole moment (field-independent basis, Debye-Ang):
   XX=              0.5056   YY=             -1.1086   ZZ=              0.6030
   XY=              0.0001   XZ=              0.0002   YZ=             -0.4011
 Octapole moment (field-independent basis, Debye-Ang**2):
  XXX=             18.8696  YYY=              0.0011  ZZZ=              0.0012  XYY=              2.6802
  XXY=              0.0012  XXZ=             -0.0011  XZZ=             -0.6907  YZZ=             -0.0003
  YYZ=             -0.0002  XYZ=             -1.1287
 Hexadecapole moment (field-independent basis, Debye-Ang**3):
 XXXX=           -483.0881 YYYY=           -459.9151 ZZZZ=            -77.1073 XXXY=             -0.0041
 XXXZ=             -0.0015 YYYX=              0.0047 YYYZ=              2.8153 ZZZX=             -0.0002
 ZZZY=             -3.4589 XXYY=           -139.7772 XXZZ=            -85.7049 YYZZ=            -94.9235
 XXYZ=              1.8348 YYXZ=              0.0003 ZZXY=              0.0018
 N-N= 3.553484858333D+02 E-N=-3.050405843714D+03  KE= 9.840044764845D+02
 No NMR shielding tensors so no spin-rotation constants.
 Leave Link  601 at Mon Apr  6 18:17:53 2020, MaxMem=  8053063680 cpu:         3.9
 (Enter /usr/local/Cluster-Apps/gaussian/g09/l701.exe)
 Compute integral first derivatives.
 ... and contract with generalized density number  0.
 Leave Link  701 at Mon Apr  6 18:17:53 2020, MaxMem=  8053063680 cpu:         2.8
 (Enter /usr/local/Cluster-Apps/gaussian/g09/l702.exe)
 L702 exits ... SP integral derivatives will be done elsewhere.
 Leave Link  702 at Mon Apr  6 18:17:53 2020, MaxMem=  8053063680 cpu:         0.2
 (Enter /usr/local/Cluster-Apps/gaussian/g09/l703.exe)
 Compute integral first derivatives, UseDBF=F ICtDFT=           0.
 Integral derivatives from FoFJK, PRISM(SPDF).
 Calling FoFJK, ICntrl=      2127 FMM=F ISym2X=0 I1Cent= 0 IOpClX= 0 NMat=1 NMatS=1 NMatT=0.
 FoFJK:  IHMeth= 1 ICntrl=    2127 DoSepK=F KAlg= 0 I1Cent=   0 FoldK=F
 IRaf=         0 NMat=   1 IRICut=       1 DoRegI=T DoRafI=F ISym2E= 0.
 FoFCou: FMM=F IPFlag=           0 FMFlag=      100000 FMFlg1=         800
         NFxFlg=           0 DoJE=F BraDBF=F KetDBF=F FulRan=T
         wScrn=  0.000000 ICntrl=    2127 IOpCl=  0 I1Cent=           0 NGrid=           0
         NMat0=    1 NMatS0=      1 NMatT0=    0 NMatD0=    1 NMtDS0=    0 NMtDT0=    0
 Symmetry not used in FoFCou.
 Leave Link  703 at Mon Apr  6 18:17:54 2020, MaxMem=  8053063680 cpu:         9.9
 (Enter /usr/local/Cluster-Apps/gaussian/g09/l716.exe)
 Dipole        = 1.80193274D+00 1.55969531D-04 4.58594332D-05
 ***** Axes restored to original set *****
 -------------------------------------------------------------------
 Center     Atomic                   Forces (Hartrees/Bohr)
 Number     Number              X              Y              Z
 -------------------------------------------------------------------
      1        8          -0.000066312   -0.000023056   -0.000037672
      2        6           0.000047296    0.000019178    0.000028663
      3       16           0.000055971    0.000011777   -0.000029209
      4       16           0.000013071    0.000022650    0.000075216
      5        6          -0.000122740    0.000033932    0.000046326
      6        6           0.000034566   -0.000048825   -0.000107963
      7        1           0.000011932   -0.000017943    0.000005680
      8        1           0.000017203   -0.000014245    0.000037977
      9        1          -0.000008700    0.000011780   -0.000002850
     10        1           0.000017712    0.000004752   -0.000016168
 -------------------------------------------------------------------
 Cartesian Forces:  Max     0.000122740 RMS     0.000043626
 Leave Link  716 at Mon Apr  6 18:17:54 2020, MaxMem=  8053063680 cpu:         0.3
 (Enter /usr/local/Cluster-Apps/gaussian/g09/l103.exe)

 GradGradGradGradGradGradGradGradGradGradGradGradGradGradGradGradGradGrad
 Berny optimization.
 FormGI is forming the generalized inverse of G from B-inverse, IUseBI=4.
 Internal  Forces:  Max     0.000087990 RMS     0.000023893
 Search for a local minimum.
 Step number   1 out of a maximum of   56
 All quantities printed in internal units (Hartrees-Bohrs-Radians)
 RMS Force = .23893D-04 SwitMx=.10000D-02 MixMth= 2
 Mixed Optimization -- En-DIIS/RFO-DIIS
 Second derivative matrix not updated -- first step.
 ITU=  0
     Eigenvalues ---    0.00230   0.00344   0.00627   0.04467   0.04817
     Eigenvalues ---    0.05703   0.06217   0.10124   0.11030   0.11102
     Eigenvalues ---    0.12267   0.20881   0.22196   0.23874   0.23938
     Eigenvalues ---    0.24956   0.24971   0.25000   0.28692   0.34378
     Eigenvalues ---    0.34379   0.34380   0.34383   1.05349
 RFO step:  Lambda=-1.05029638D-07 EMin= 2.30000001D-03
 Linear search not attempted -- first point.
 Iteration  1 RMS(Cart)=  0.00022162 RMS(Int)=  0.00000004
 Iteration  2 RMS(Cart)=  0.00000004 RMS(Int)=  0.00000001
 ITry= 1 IFail=0 DXMaxC= 6.29D-04 DCOld= 1.00D+10 DXMaxT= 3.00D-01 DXLimC= 3.00D+00 Rises=F
 Variable       Old X    -DE/DX   Delta X   Delta X   Delta X     New X
                                 (Linear)    (Quad)   (Total)
    R1        2.26570  -0.00008   0.00000  -0.00008  -0.00008   2.26563
    R2        3.42944   0.00001   0.00000   0.00004   0.00004   3.42948
    R3        3.42946   0.00001   0.00000   0.00003   0.00003   3.42949
    R4        3.46146   0.00004   0.00000   0.00015   0.00015   3.46161
    R5        3.46141   0.00006   0.00000   0.00025   0.00025   3.46166
    R6        2.89086  -0.00009   0.00000  -0.00029  -0.00029   2.89057
    R7        2.06695   0.00001   0.00000   0.00003   0.00003   2.06698
    R8        2.06697  -0.00004   0.00000  -0.00011  -0.00011   2.06686
    R9        2.06693   0.00002   0.00000   0.00005   0.00005   2.06697
   R10        2.06689  -0.00001   0.00000  -0.00004  -0.00004   2.06685
    A1        2.15457  -0.00001   0.00000  -0.00003  -0.00003   2.15454
    A2        2.15466  -0.00002   0.00000  -0.00008  -0.00008   2.15457
    A3        1.97396   0.00002   0.00000   0.00012   0.00012   1.97408
    A4        1.67392  -0.00003   0.00000  -0.00010  -0.00010   1.67382
    A5        1.67389  -0.00003   0.00000  -0.00005  -0.00005   1.67384
    A6        1.89928   0.00002   0.00000   0.00012   0.00012   1.89940
    A7        1.88519  -0.00001   0.00000  -0.00014  -0.00014   1.88505
    A8        1.90522  -0.00001   0.00000  -0.00014  -0.00014   1.90508
    A9        1.93363  -0.00001   0.00000  -0.00010  -0.00010   1.93353
   A10        1.93915   0.00000   0.00000   0.00001   0.00001   1.93916
   A11        1.90040   0.00002   0.00000   0.00026   0.00026   1.90066
   A12        1.89931   0.00001   0.00000   0.00013   0.00013   1.89944
   A13        1.88511  -0.00001   0.00000  -0.00008  -0.00008   1.88503
   A14        1.90505   0.00000   0.00000   0.00001   0.00001   1.90506
   A15        1.93365  -0.00001   0.00000  -0.00013  -0.00013   1.93352
   A16        1.93920  -0.00001   0.00000  -0.00006  -0.00006   1.93915
   A17        1.90054   0.00001   0.00000   0.00013   0.00013   1.90068
    D1       -2.95366  -0.00001   0.00000   0.00005   0.00005  -2.95361
    D2        0.18791  -0.00001   0.00000   0.00023   0.00023   0.18814
    D3       -2.95349  -0.00001   0.00000  -0.00024  -0.00024  -2.95373
    D4        0.18812  -0.00001   0.00000  -0.00041  -0.00041   0.18770
    D5       -0.59377   0.00000   0.00000   0.00000   0.00000  -0.59377
    D6       -2.69411   0.00001   0.00000   0.00014   0.00014  -2.69397
    D7        1.52524   0.00000   0.00000  -0.00001  -0.00001   1.52524
    D8       -0.59391   0.00000   0.00000   0.00039   0.00039  -0.59351
    D9       -2.69423   0.00001   0.00000   0.00052   0.00052  -2.69371
   D10        1.52508   0.00000   0.00000   0.00041   0.00041   1.52549
   D11        0.79873   0.00000   0.00000  -0.00024  -0.00024   0.79850
   D12        2.86881   0.00000   0.00000  -0.00034  -0.00034   2.86848
   D13       -1.29926   0.00000   0.00000  -0.00030  -0.00030  -1.29956
   D14        2.86888  -0.00001   0.00000  -0.00040  -0.00040   2.86848
   D15       -1.34422  -0.00001   0.00000  -0.00050  -0.00050  -1.34472
   D16        0.77089  -0.00001   0.00000  -0.00046  -0.00046   0.77043
   D17       -1.29942   0.00001   0.00000  -0.00014  -0.00014  -1.29956
   D18        0.77066   0.00000   0.00000  -0.00024  -0.00024   0.77042
   D19        2.88577   0.00001   0.00000  -0.00020  -0.00020   2.88557
         Item               Value     Threshold  Converged?
 Maximum Force            0.000088     0.000450     YES
 RMS     Force            0.000024     0.000300     YES
 Maximum Displacement     0.000629     0.001800     YES
 RMS     Displacement     0.000222     0.001200     YES
 Predicted change in Energy=-5.251632D-08
 Optimization completed.
    -- Stationary point found.
                           ----------------------------
                           !   Optimized Parameters   !
                           ! (Angstroms and Degrees)  !
 --------------------------                            --------------------------
 ! Name  Definition              Value          Derivative Info.                !
 --------------------------------------------------------------------------------
 ! R1    R(1,2)                  1.199          -DE/DX =   -0.0001              !
 ! R2    R(2,3)                  1.8148         -DE/DX =    0.0                 !
 ! R3    R(2,4)                  1.8148         -DE/DX =    0.0                 !
 ! R4    R(3,5)                  1.8317         -DE/DX =    0.0                 !
 ! R5    R(4,6)                  1.8317         -DE/DX =    0.0001              !
 ! R6    R(5,6)                  1.5298         -DE/DX =   -0.0001              !
 ! R7    R(5,7)                  1.0938         -DE/DX =    0.0                 !
 ! R8    R(5,8)                  1.0938         -DE/DX =    0.0                 !
 ! R9    R(6,9)                  1.0938         -DE/DX =    0.0                 !
 ! R10   R(6,10)                 1.0938         -DE/DX =    0.0                 !
 ! A1    A(1,2,3)              123.4479         -DE/DX =    0.0                 !
 ! A2    A(1,2,4)              123.4527         -DE/DX =    0.0                 !
 ! A3    A(3,2,4)              113.0994         -DE/DX =    0.0                 !
 ! A4    A(2,3,5)               95.9086         -DE/DX =    0.0                 !
 ! A5    A(2,4,6)               95.9071         -DE/DX =    0.0                 !
 ! A6    A(3,5,6)              108.8209         -DE/DX =    0.0                 !
 ! A7    A(3,5,7)              108.0135         -DE/DX =    0.0                 !
 ! A8    A(3,5,8)              109.161          -DE/DX =    0.0                 !
 ! A9    A(6,5,7)              110.7888         -DE/DX =    0.0                 !
 ! A10   A(6,5,8)              111.1053         -DE/DX =    0.0                 !
 ! A11   A(7,5,8)              108.8851         -DE/DX =    0.0                 !
 ! A12   A(4,6,5)              108.8222         -DE/DX =    0.0                 !
 ! A13   A(4,6,9)              108.0091         -DE/DX =    0.0                 !
 ! A14   A(4,6,10)             109.1515         -DE/DX =    0.0                 !
 ! A15   A(5,6,9)              110.79           -DE/DX =    0.0                 !
 ! A16   A(5,6,10)             111.1083         -DE/DX =    0.0                 !
 ! A17   A(9,6,10)             108.8932         -DE/DX =    0.0                 !
 ! D1    D(1,2,3,5)           -169.2325         -DE/DX =    0.0                 !
 ! D2    D(4,2,3,5)             10.7665         -DE/DX =    0.0                 !
 ! D3    D(1,2,4,6)           -169.2226         -DE/DX =    0.0                 !
 ! D4    D(3,2,4,6)             10.7784         -DE/DX =    0.0                 !
 ! D5    D(2,3,5,6)            -34.0206         -DE/DX =    0.0                 !
 ! D6    D(2,3,5,7)           -154.3609         -DE/DX =    0.0                 !
 ! D7    D(2,3,5,8)             87.3899         -DE/DX =    0.0                 !
 ! D8    D(2,4,6,5)            -34.0284         -DE/DX =    0.0                 !
 ! D9    D(2,4,6,9)           -154.3682         -DE/DX =    0.0                 !
 ! D10   D(2,4,6,10)            87.3807         -DE/DX =    0.0                 !
 ! D11   D(3,5,6,4)             45.7641         -DE/DX =    0.0                 !
 ! D12   D(3,5,6,9)            164.3709         -DE/DX =    0.0                 !
 ! D13   D(3,5,6,10)           -74.4421         -DE/DX =    0.0                 !
 ! D14   D(7,5,6,4)            164.3749         -DE/DX =    0.0                 !
 ! D15   D(7,5,6,9)            -77.0182         -DE/DX =    0.0                 !
 ! D16   D(7,5,6,10)            44.1687         -DE/DX =    0.0                 !
 ! D17   D(8,5,6,4)            -74.4512         -DE/DX =    0.0                 !
 ! D18   D(8,5,6,9)             44.1556         -DE/DX =    0.0                 !
 ! D19   D(8,5,6,10)           165.3425         -DE/DX =    0.0                 !
 --------------------------------------------------------------------------------
 Lowest energy point so far.  Saving SCF results.
 GradGradGradGradGradGradGradGradGradGradGradGradGradGradGradGradGradGrad

 Largest change from initial coordinates is atom    9       0.000 Angstoms.
 Leave Link  103 at Mon Apr  6 18:17:55 2020, MaxMem=  8053063680 cpu:         3.6
 (Enter /usr/local/Cluster-Apps/gaussian/g09/l202.exe)
                          Input orientation:                          
 ---------------------------------------------------------------------
 Center     Atomic      Atomic             Coordinates (Angstroms)
 Number     Number       Type             X           Y           Z
 ---------------------------------------------------------------------
      1          8           0       -2.984700   -0.361600    0.591800
      2          6           0       -3.933800   -0.732800   -0.039800
      3         16           0       -3.819300   -1.374700   -1.733400
      4         16           0       -5.632000   -0.710300    0.599800
      5          6           0       -5.622000   -1.372400   -2.058200
      6          6           0       -6.358100   -1.702000   -0.758300
      7          1           0       -5.828800   -2.126200   -2.823300
      8          1           0       -5.916800   -0.390600   -2.439700
      9          1           0       -7.418100   -1.443800   -0.836200
     10          1           0       -6.269400   -2.764400   -0.513900
 ---------------------------------------------------------------------
                    Distance matrix (angstroms):
                    1          2          3          4          5
     1  O    0.000000
     2  C    1.198957   0.000000
     3  S    2.670109   1.814780   0.000000
     4  S    2.670178   1.814794   3.028388   0.000000
     5  C    3.872928   2.707960   1.831728   2.739241   0.000000
     6  C    3.872889   2.707918   2.739243   1.831700   1.529778
     7  H    4.781802   3.644237   2.406392   3.709598   1.093782
     8  H    4.217587   3.131918   2.422152   3.069508   1.093792
     9  H    4.781775   3.644190   3.709596   2.406298   2.173559
    10  H    4.217259   3.131644   3.069436   2.421969   2.177534
                    6          7          8          9         10
     6  C    0.000000
     7  H    2.173552   0.000000
     8  H    2.177526   1.779663   0.000000
     9  H    1.093771   2.634409   2.436051   0.000000
    10  H    1.093752   2.436135   3.077005   1.779712   0.000000
 Stoichiometry    C3H4OS2
 Framework group  C1[X(C3H4OS2)]
 Deg. of freedom    24
 Full point group                 C1      NOp   1
 RotChk:  IX=0 Diff= 7.57D-16
 Largest Abelian subgroup         C1      NOp   1
 Largest concise Abelian subgroup C1      NOp   1
                         Standard orientation:                         
 ---------------------------------------------------------------------
 Center     Atomic      Atomic             Coordinates (Angstroms)
 Number     Number       Type             X           Y           Z
 ---------------------------------------------------------------------
      1          8           0       -2.260931   -0.000198    0.000056
      2          6           0       -1.061974   -0.000115    0.000008
      3         16           0       -0.061808    1.511866    0.083729
      4         16           0       -0.061471   -1.511883   -0.083820
      5          6           0        1.535648    0.702843   -0.302076
      6          6           0        1.535740   -0.702535    0.302184
      7          1           0        2.335753    1.311043    0.129530
      8          1           0        1.665975    0.664915   -1.387413
      9          1           0        2.335963   -1.310615   -0.129344
     10          1           0        1.665739   -0.664633    1.387521
 ---------------------------------------------------------------------
 Rotational constants (GHZ):      2.9918321      2.8920585      1.5287279
 Leave Link  202 at Mon Apr  6 18:17:55 2020, MaxMem=  8053063680 cpu:         0.3
 (Enter /usr/local/Cluster-Apps/gaussian/g09/l9999.exe)
 1\1\GINC-CPU-G-3\FOpt\RB3LYP\6-31G(d)\C3H4O1S2\MSFF2\06-Apr-2020\0\\#p
  B3LYP/6-31G(d) Opt Freq\\CEB-312-03-WLO_192.168.1.96_113420049902577\
 \0,1\O,-2.9847,-0.3616,0.5918\C,-3.9338,-0.7328,-0.0398\S,-3.8193,-1.3
 747,-1.7334\S,-5.632,-0.7103,0.5998\C,-5.622,-1.3724,-2.0582\C,-6.3581
 ,-1.702,-0.7583\H,-5.8288,-2.1262,-2.8233\H,-5.9168,-0.3906,-2.4397\H,
 -7.4181,-1.4438,-0.8362\H,-6.2694,-2.7644,-0.5139\\Version=ES64L-G09Re
 vD.01\State=1-A\HF=-988.3372488\RMSD=9.209e-09\RMSF=4.363e-05\Dipole=-
 1.4263816,-0.5579984,-0.9492286\Quadrupole=-0.0962264,0.3118923,-0.215
 6659,0.2812327,0.5441086,-0.3847733\PG=C01 [X(C3H4O1S2)]\\@


 SCIENCE IS LONG AND LIFE IS SHORT.

                     DON MOSER IN THE FEBRUARY 1979 SMITHSONIAN
 Leave Link 9999 at Mon Apr  6 18:17:55 2020, MaxMem=  8053063680 cpu:         0.4
 Job cpu time:       0 days  0 hours  0 minutes 56.5 seconds.
 File lengths (MBytes):  RWF=      7 Int=      0 D2E=      0 Chk=      2 Scr=      1
 Normal termination of Gaussian 09 at Mon Apr  6 18:17:55 2020.
 (Enter /usr/local/Cluster-Apps/gaussian/g09/l1.exe)
 Link1:  Proceeding to internal job step number  2.
 --------------------------------------------------------------------
 #P Geom=AllCheck Guess=TCheck SCRF=Check GenChk RB3LYP/6-31G(d) Freq
 --------------------------------------------------------------------
 1/10=4,29=7,30=1,38=1,40=1/1,3;
 2/12=2,40=1/2;
 3/5=1,6=6,7=1,11=2,14=-4,16=1,25=1,30=1,70=2,71=2,74=-5,116=1,140=1/1,2,3;
 4/5=101/1;
 5/5=2,98=1/2;
 8/6=4,10=90,11=11/1;
 11/6=1,8=1,9=11,15=111,16=1/1,2,10;
 10/6=1/2;
 6/7=2,8=2,9=2,10=2,18=1,28=1/1;
 7/8=1,10=1,25=1/1,2,3,16;
 1/10=4,30=1/3;
 99//99;
 Leave Link    1 at Mon Apr  6 18:17:55 2020, MaxMem=  8053063680 cpu:         0.4
 (Enter /usr/local/Cluster-Apps/gaussian/g09/l101.exe)
 Structure from the checkpoint file:  "CEB-312-03-WLO_192.168.1.96_113420049902577.chk"
 -------------------------------------------
 CEB-312-03-WLO_192.168.1.96_113420049902577
 -------------------------------------------
 Charge =  0 Multiplicity = 1
 Redundant internal coordinates found in file.
 O,0,-2.9847,-0.3616,0.5918
 C,0,-3.9338,-0.7328,-0.0398
 S,0,-3.8193,-1.3747,-1.7334
 S,0,-5.632,-0.7103,0.5998
 C,0,-5.622,-1.3724,-2.0582
 C,0,-6.3581,-1.702,-0.7583
 H,0,-5.8288,-2.1262,-2.8233
 H,0,-5.9168,-0.3906,-2.4397
 H,0,-7.4181,-1.4438,-0.8362
 H,0,-6.2694,-2.7644,-0.5139
 Recover connectivity data from disk.
 NAtoms=     10 NQM=       10 NQMF=       0 NMMI=      0 NMMIF=      0
                NMic=       0 NMicF=      0.
                    Isotopes and Nuclear Properties:
 (Nuclear quadrupole moments (NQMom) in fm**2, nuclear magnetic moments (NMagM)
  in nuclear magnetons)

  Atom         1           2           3           4           5           6           7           8           9          10
 IAtWgt=          16          12          32          32          12          12           1           1           1           1
 AtmWgt=  15.9949146  12.0000000  31.9720718  31.9720718  12.0000000  12.0000000   1.0078250   1.0078250   1.0078250   1.0078250
 NucSpn=           0           0           0           0           0           0           1           1           1           1
 AtZEff=  -5.6000000  -3.6000000 -13.6000000 -13.6000000  -3.6000000  -3.6000000  -1.0000000  -1.0000000  -1.0000000  -1.0000000
 NQMom=    0.0000000   0.0000000   0.0000000   0.0000000   0.0000000   0.0000000   0.0000000   0.0000000   0.0000000   0.0000000
 NMagM=    0.0000000   0.0000000   0.0000000   0.0000000   0.0000000   0.0000000   2.7928460   2.7928460   2.7928460   2.7928460
 AtZNuc=   8.0000000   6.0000000  16.0000000  16.0000000   6.0000000   6.0000000   1.0000000   1.0000000   1.0000000   1.0000000
 Leave Link  101 at Mon Apr  6 18:17:55 2020, MaxMem=  8053063680 cpu:         4.9
 (Enter /usr/local/Cluster-Apps/gaussian/g09/l103.exe)

 GradGradGradGradGradGradGradGradGradGradGradGradGradGradGradGradGradGrad
 Berny optimization.
 Initialization pass.
                           ----------------------------
                           !    Initial Parameters    !
                           ! (Angstroms and Degrees)  !
 --------------------------                            --------------------------
 ! Name  Definition              Value          Derivative Info.                !
 --------------------------------------------------------------------------------
 ! R1    R(1,2)                  1.199          calculate D2E/DX2 analytically  !
 ! R2    R(2,3)                  1.8148         calculate D2E/DX2 analytically  !
 ! R3    R(2,4)                  1.8148         calculate D2E/DX2 analytically  !
 ! R4    R(3,5)                  1.8317         calculate D2E/DX2 analytically  !
 ! R5    R(4,6)                  1.8317         calculate D2E/DX2 analytically  !
 ! R6    R(5,6)                  1.5298         calculate D2E/DX2 analytically  !
 ! R7    R(5,7)                  1.0938         calculate D2E/DX2 analytically  !
 ! R8    R(5,8)                  1.0938         calculate D2E/DX2 analytically  !
 ! R9    R(6,9)                  1.0938         calculate D2E/DX2 analytically  !
 ! R10   R(6,10)                 1.0938         calculate D2E/DX2 analytically  !
 ! A1    A(1,2,3)              123.4479         calculate D2E/DX2 analytically  !
 ! A2    A(1,2,4)              123.4527         calculate D2E/DX2 analytically  !
 ! A3    A(3,2,4)              113.0994         calculate D2E/DX2 analytically  !
 ! A4    A(2,3,5)               95.9086         calculate D2E/DX2 analytically  !
 ! A5    A(2,4,6)               95.9071         calculate D2E/DX2 analytically  !
 ! A6    A(3,5,6)              108.8209         calculate D2E/DX2 analytically  !
 ! A7    A(3,5,7)              108.0135         calculate D2E/DX2 analytically  !
 ! A8    A(3,5,8)              109.161          calculate D2E/DX2 analytically  !
 ! A9    A(6,5,7)              110.7888         calculate D2E/DX2 analytically  !
 ! A10   A(6,5,8)              111.1053         calculate D2E/DX2 analytically  !
 ! A11   A(7,5,8)              108.8851         calculate D2E/DX2 analytically  !
 ! A12   A(4,6,5)              108.8222         calculate D2E/DX2 analytically  !
 ! A13   A(4,6,9)              108.0091         calculate D2E/DX2 analytically  !
 ! A14   A(4,6,10)             109.1515         calculate D2E/DX2 analytically  !
 ! A15   A(5,6,9)              110.79           calculate D2E/DX2 analytically  !
 ! A16   A(5,6,10)             111.1083         calculate D2E/DX2 analytically  !
 ! A17   A(9,6,10)             108.8932         calculate D2E/DX2 analytically  !
 ! D1    D(1,2,3,5)           -169.2325         calculate D2E/DX2 analytically  !
 ! D2    D(4,2,3,5)             10.7665         calculate D2E/DX2 analytically  !
 ! D3    D(1,2,4,6)           -169.2226         calculate D2E/DX2 analytically  !
 ! D4    D(3,2,4,6)             10.7784         calculate D2E/DX2 analytically  !
 ! D5    D(2,3,5,6)            -34.0206         calculate D2E/DX2 analytically  !
 ! D6    D(2,3,5,7)           -154.3609         calculate D2E/DX2 analytically  !
 ! D7    D(2,3,5,8)             87.3899         calculate D2E/DX2 analytically  !
 ! D8    D(2,4,6,5)            -34.0284         calculate D2E/DX2 analytically  !
 ! D9    D(2,4,6,9)           -154.3682         calculate D2E/DX2 analytically  !
 ! D10   D(2,4,6,10)            87.3807         calculate D2E/DX2 analytically  !
 ! D11   D(3,5,6,4)             45.7641         calculate D2E/DX2 analytically  !
 ! D12   D(3,5,6,9)            164.3709         calculate D2E/DX2 analytically  !
 ! D13   D(3,5,6,10)           -74.4421         calculate D2E/DX2 analytically  !
 ! D14   D(7,5,6,4)            164.3749         calculate D2E/DX2 analytically  !
 ! D15   D(7,5,6,9)            -77.0182         calculate D2E/DX2 analytically  !
 ! D16   D(7,5,6,10)            44.1687         calculate D2E/DX2 analytically  !
 ! D17   D(8,5,6,4)            -74.4512         calculate D2E/DX2 analytically  !
 ! D18   D(8,5,6,9)             44.1556         calculate D2E/DX2 analytically  !
 ! D19   D(8,5,6,10)           165.3425         calculate D2E/DX2 analytically  !
 --------------------------------------------------------------------------------
 Trust Radius=3.00D-01 FncErr=1.00D-07 GrdErr=1.00D-07
 Number of steps in this run=      2 maximum allowed number of steps=      2.
 GradGradGradGradGradGradGradGradGradGradGradGradGradGradGradGradGradGrad

 Leave Link  103 at Mon Apr  6 18:17:55 2020, MaxMem=  8053063680 cpu:         0.1
 (Enter /usr/local/Cluster-Apps/gaussian/g09/l202.exe)
                          Input orientation:                          
 ---------------------------------------------------------------------
 Center     Atomic      Atomic             Coordinates (Angstroms)
 Number     Number       Type             X           Y           Z
 ---------------------------------------------------------------------
      1          8           0       -2.984700   -0.361600    0.591800
      2          6           0       -3.933800   -0.732800   -0.039800
      3         16           0       -3.819300   -1.374700   -1.733400
      4         16           0       -5.632000   -0.710300    0.599800
      5          6           0       -5.622000   -1.372400   -2.058200
      6          6           0       -6.358100   -1.702000   -0.758300
      7          1           0       -5.828800   -2.126200   -2.823300
      8          1           0       -5.916800   -0.390600   -2.439700
      9          1           0       -7.418100   -1.443800   -0.836200
     10          1           0       -6.269400   -2.764400   -0.513900
 ---------------------------------------------------------------------
                    Distance matrix (angstroms):
                    1          2          3          4          5
     1  O    0.000000
     2  C    1.198957   0.000000
     3  S    2.670109   1.814780   0.000000
     4  S    2.670178   1.814794   3.028388   0.000000
     5  C    3.872928   2.707960   1.831728   2.739241   0.000000
     6  C    3.872889   2.707918   2.739243   1.831700   1.529778
     7  H    4.781802   3.644237   2.406392   3.709598   1.093782
     8  H    4.217587   3.131918   2.422152   3.069508   1.093792
     9  H    4.781775   3.644190   3.709596   2.406298   2.173559
    10  H    4.217259   3.131644   3.069436   2.421969   2.177534
                    6          7          8          9         10
     6  C    0.000000
     7  H    2.173552   0.000000
     8  H    2.177526   1.779663   0.000000
     9  H    1.093771   2.634409   2.436051   0.000000
    10  H    1.093752   2.436135   3.077005   1.779712   0.000000
 Stoichiometry    C3H4OS2
 Framework group  C1[X(C3H4OS2)]
 Deg. of freedom    24
 Full point group                 C1      NOp   1
 RotChk:  IX=0 Diff= 3.10D-15
 Largest Abelian subgroup         C1      NOp   1
 Largest concise Abelian subgroup C1      NOp   1
                         Standard orientation:                         
 ---------------------------------------------------------------------
 Center     Atomic      Atomic             Coordinates (Angstroms)
 Number     Number       Type             X           Y           Z
 ---------------------------------------------------------------------
      1          8           0       -2.260931   -0.000198    0.000056
      2          6           0       -1.061974   -0.000115    0.000008
      3         16           0       -0.061808    1.511866    0.083729
      4         16           0       -0.061471   -1.511883   -0.083820
      5          6           0        1.535648    0.702843   -0.302076
      6          6           0        1.535740   -0.702535    0.302184
      7          1           0        2.335753    1.311043    0.129530
      8          1           0        1.665975    0.664915   -1.387413
      9          1           0        2.335963   -1.310615   -0.129344
     10          1           0        1.665739   -0.664633    1.387521
 ---------------------------------------------------------------------
 Rotational constants (GHZ):      2.9918321      2.8920585      1.5287279
 Leave Link  202 at Mon Apr  6 18:17:55 2020, MaxMem=  8053063680 cpu:         0.3
 (Enter /usr/local/Cluster-Apps/gaussian/g09/l301.exe)
 Standard basis: 6-31G(d) (6D, 7F)
 Ernie: Thresh=  0.10000D-02 Tol=  0.10000D-05 Strict=F.
 There are   106 symmetry adapted cartesian basis functions of A   symmetry.
 There are   106 symmetry adapted basis functions of A   symmetry.
   106 basis functions,   232 primitive gaussians,   106 cartesian basis functions
    31 alpha electrons       31 beta electrons
       nuclear repulsion energy       355.3484858333 Hartrees.
 IExCor=  402 DFT=T Ex+Corr=B3LYP ExCW=0 ScaHFX=  0.200000
 ScaDFX=  0.800000  0.720000  1.000000  0.810000 ScalE2=  1.000000  1.000000
 IRadAn=      0 IRanWt=     -1 IRanGd=            0 ICorTp=0 IEmpDi=  4
 NAtoms=   10 NActive=   10 NUniq=   10 SFac= 1.00D+00 NAtFMM=   60 NAOKFM=F Big=F
 Integral buffers will be    131072 words long.
 Raffenetti 2 integral format.
 Two-electron integral symmetry is turned on.
 Leave Link  301 at Mon Apr  6 18:17:56 2020, MaxMem=  8053063680 cpu:         0.6
 (Enter /usr/local/Cluster-Apps/gaussian/g09/l302.exe)
 NPDir=0 NMtPBC=     1 NCelOv=     1 NCel=       1 NClECP=     1 NCelD=      1
         NCelK=      1 NCelE2=     1 NClLst=     1 CellRange=     0.0.
 One-electron integrals computed using PRISM.
 NBasis=   106 RedAO= T EigKep=  4.54D-03  NBF=   106
 NBsUse=   106 1.00D-06 EigRej= -1.00D+00 NBFU=   106
 Precomputing XC quadrature grid using
 IXCGrd= 4 IRadAn=           0 IRanWt=          -1 IRanGd=           0 AccXCQ= 0.00D+00.
 Generated NRdTot=       0 NPtTot=           0 NUsed=           0 NTot=          32
 NSgBfM=   106   106   106   106   106 MxSgAt=    10 MxSgA2=    10.
 Leave Link  302 at Mon Apr  6 18:17:56 2020, MaxMem=  8053063680 cpu:         2.0
 (Enter /usr/local/Cluster-Apps/gaussian/g09/l303.exe)
 DipDrv:  MaxL=1.
 Leave Link  303 at Mon Apr  6 18:17:56 2020, MaxMem=  8053063680 cpu:         0.3
 (Enter /usr/local/Cluster-Apps/gaussian/g09/l401.exe)
 Initial guess from the checkpoint file:  "CEB-312-03-WLO_192.168.1.96_113420049902577.chk"
 B after Tr=     0.000000    0.000000    0.000000
         Rot=    1.000000    0.000000    0.000000    0.000000 Ang=   0.00 deg.
 Guess basis will be translated and rotated to current coordinates.
 JPrj=2 DoOrth=T DoCkMO=T.
 Leave Link  401 at Mon Apr  6 18:17:56 2020, MaxMem=  8053063680 cpu:         1.4
 (Enter /usr/local/Cluster-Apps/gaussian/g09/l502.exe)
 Closed shell SCF:
 Using DIIS extrapolation, IDIIS=  1040.
 Integral symmetry usage will be decided dynamically.
 Keep R1 ints in memory in canonical form, NReq=17064972.
 IVT=       54750 IEndB=       54750 NGot=  8053063680 MDV=  8036925975
 LenX=  8036925975 LenY=  8036914298
 Requested convergence on RMS density matrix=1.00D-08 within 128 cycles.
 Requested convergence on MAX density matrix=1.00D-06.
 Requested convergence on             energy=1.00D-06.
 No special actions if energy rises.
 FoFCou: FMM=F IPFlag=           0 FMFlag=           0 FMFlg1=           0
         NFxFlg=           0 DoJE=F BraDBF=F KetDBF=F FulRan=T
         wScrn=  0.000000 ICntrl=     600 IOpCl=  0 I1Cent=           0 NGrid=           0
         NMat0=    1 NMatS0=   5671 NMatT0=    0 NMatD0=    1 NMtDS0=    0 NMtDT0=    0
 Symmetry not used in FoFCou.

 Cycle   1  Pass 1  IDiag  1:
 E= -988.337248832229    
 DIIS: error= 1.70D-08 at cycle   1 NSaved=   1.
 NSaved= 1 IEnMin= 1 EnMin= -988.337248832229     IErMin= 1 ErrMin= 1.70D-08
 ErrMax= 1.70D-08  0.00D+00 EMaxC= 1.00D-01 BMatC= 7.04D-14 BMatP= 7.04D-14
 IDIUse=1 WtCom= 1.00D+00 WtEn= 0.00D+00
 Coeff-Com:  0.100D+01
 Coeff:      0.100D+01
 Gap=     0.235 Goal=   None    Shift=    0.000
 RMSDP=8.71D-09 MaxDP=8.80D-08              OVMax= 2.29D-07

 SCF Done:  E(RB3LYP) =  -988.337248832     A.U. after    1 cycles
            NFock=  1  Conv=0.87D-08     -V/T= 2.0044
 KE= 9.840044750331D+02 PE=-3.050405842262D+03 EE= 7.227156325637D+02
 Leave Link  502 at Mon Apr  6 18:17:56 2020, MaxMem=  8053063680 cpu:         5.1
 (Enter /usr/local/Cluster-Apps/gaussian/g09/l801.exe)
 DoSCS=F DFT=T ScalE2(SS,OS)=  1.000000  1.000000
 Range of M.O.s used for correlation:     1   106
 NBasis=   106 NAE=    31 NBE=    31 NFC=     0 NFV=     0
 NROrb=    106 NOA=    31 NOB=    31 NVA=    75 NVB=    75
 Leave Link  801 at Mon Apr  6 18:17:56 2020, MaxMem=  8053063680 cpu:         0.2
 (Enter /usr/local/Cluster-Apps/gaussian/g09/l1101.exe)
 Using compressed storage, NAtomX=    10.
 Will process     11 centers per pass.
 Leave Link 1101 at Mon Apr  6 18:17:57 2020, MaxMem=  8053063680 cpu:         1.8
 (Enter /usr/local/Cluster-Apps/gaussian/g09/l1102.exe)
 Symmetrizing basis deriv contribution to polar:
 IMax=3 JMax=2 DiffMx= 0.00D+00
 Leave Link 1102 at Mon Apr  6 18:17:57 2020, MaxMem=  8053063680 cpu:         0.3
 (Enter /usr/local/Cluster-Apps/gaussian/g09/l1110.exe)
 Forming Gx(P) for the SCF density, NAtomX=    10.
 Integral derivatives from FoFJK, PRISM(SPDF).
 Do as many integral derivatives as possible in FoFJK.
 G2DrvN: MDV=    8053063496.
 G2DrvN: will do    11 centers at a time, making    1 passes.
 Calling FoFCou, ICntrl=  3107 FMM=F I1Cent=   0 AccDes= 0.00D+00.
 FoFJK:  IHMeth= 1 ICntrl=    3107 DoSepK=F KAlg= 0 I1Cent=   0 FoldK=F
 IRaf=         0 NMat=   1 IRICut=       1 DoRegI=T DoRafI=F ISym2E= 0.
 FoFCou: FMM=F IPFlag=           0 FMFlag=      100000 FMFlg1=           0
         NFxFlg=           0 DoJE=F BraDBF=F KetDBF=F FulRan=T
         wScrn=  0.000000 ICntrl=    3107 IOpCl=  0 I1Cent=           0 NGrid=           0
         NMat0=    1 NMatS0=      1 NMatT0=    0 NMatD0=    1 NMtDS0=    0 NMtDT0=    0
 Symmetry not used in FoFCou.
 End of G2Drv F.D. properties file   721 does not exist.
 End of G2Drv F.D. properties file   722 does not exist.
 End of G2Drv F.D. properties file   788 does not exist.
 Leave Link 1110 at Mon Apr  6 18:17:59 2020, MaxMem=  8053063680 cpu:        32.1
 (Enter /usr/local/Cluster-Apps/gaussian/g09/l1002.exe)
 Minotr:  Closed shell wavefunction.
          IDoAtm=1111111111
          Direct CPHF calculation.
          Differentiating once with respect to electric field.
                with respect to dipole field.
          Differentiating once with respect to nuclear coordinates.
          Requested convergence is 1.0D-08 RMS, and 1.0D-07 maximum.
          Secondary convergence is 1.0D-12 RMS, and 1.0D-12 maximum.
          NewPWx=T KeepS1=F KeepF1=F KeepIn=T MapXYZ=F SortEE=F KeepMc=T.
          MDV=    8053063470 using IRadAn=       2.
 Generate precomputed XC quadrature information.
 Keep R1 ints in memory in canonical form, NReq=17011916.
 FoFCou: FMM=F IPFlag=           0 FMFlag=           0 FMFlg1=           0
         NFxFlg=           0 DoJE=F BraDBF=F KetDBF=F FulRan=T
         wScrn=  0.000000 ICntrl=     600 IOpCl=  0 I1Cent=           0 NGrid=           0
         NMat0=    1 NMatS0=   5671 NMatT0=    0 NMatD0=    1 NMtDS0=    0 NMtDT0=    0
 Symmetry not used in FoFCou.
          Solving linear equations simultaneously, MaxMat=       0.
          There are    33 degrees of freedom in the 1st order CPHF.  IDoFFX=6 NUNeed=     3.
     30 vectors produced by pass  0 Test12= 7.05D-15 3.03D-09 XBig12= 8.84D+01 4.77D+00.
 AX will form    30 AO Fock derivatives at one time.
     30 vectors produced by pass  1 Test12= 7.05D-15 3.03D-09 XBig12= 2.49D+01 1.54D+00.
     30 vectors produced by pass  2 Test12= 7.05D-15 3.03D-09 XBig12= 6.77D-01 2.81D-01.
     30 vectors produced by pass  3 Test12= 7.05D-15 3.03D-09 XBig12= 5.97D-03 1.60D-02.
     30 vectors produced by pass  4 Test12= 7.05D-15 3.03D-09 XBig12= 1.59D-05 8.24D-04.
     25 vectors produced by pass  5 Test12= 7.05D-15 3.03D-09 XBig12= 1.91D-08 3.06D-05.
      6 vectors produced by pass  6 Test12= 7.05D-15 3.03D-09 XBig12= 1.97D-11 8.22D-07.
      2 vectors produced by pass  7 Test12= 7.05D-15 3.03D-09 XBig12= 1.86D-14 2.22D-08.
 InvSVY:  IOpt=1 It=  1 EMax= 7.99D-15
 Solved reduced A of dimension   183 with    33 vectors.
 FullF1:  Do perturbations    1 to     3.
 Isotropic polarizability for W=    0.000000       64.25 Bohr**3.
 End of Minotr F.D. properties file   721 does not exist.
 End of Minotr F.D. properties file   722 does not exist.
 End of Minotr F.D. properties file   788 does not exist.
 Leave Link 1002 at Mon Apr  6 18:18:03 2020, MaxMem=  8053063680 cpu:        44.5
 (Enter /usr/local/Cluster-Apps/gaussian/g09/l601.exe)
 Copying SCF densities to generalized density rwf, IOpCl= 0 IROHF=0.

 **********************************************************************

            Population analysis using the SCF density.

 **********************************************************************

 Orbital symmetries:
       Occupied  (A) (A) (A) (A) (A) (A) (A) (A) (A) (A) (A) (A)
                 (A) (A) (A) (A) (A) (A) (A) (A) (A) (A) (A) (A)
                 (A) (A) (A) (A) (A) (A) (A)
       Virtual   (A) (A) (A) (A) (A) (A) (A) (A) (A) (A) (A) (A)
                 (A) (A) (A) (A) (A) (A) (A) (A) (A) (A) (A) (A)
                 (A) (A) (A) (A) (A) (A) (A) (A) (A) (A) (A) (A)
                 (A) (A) (A) (A) (A) (A) (A) (A) (A) (A) (A) (A)
                 (A) (A) (A) (A) (A) (A) (A) (A) (A) (A) (A) (A)
                 (A) (A) (A) (A) (A) (A) (A) (A) (A) (A) (A) (A)
                 (A) (A) (A)
 The electronic state is 1-A.
 Alpha  occ. eigenvalues --  -88.90445 -88.90444 -19.16275 -10.32731 -10.25121
 Alpha  occ. eigenvalues --  -10.25099  -7.96715  -7.96714  -5.93166  -5.93164
 Alpha  occ. eigenvalues --   -5.92838  -5.92834  -5.92218  -5.92218  -1.07035
 Alpha  occ. eigenvalues --   -0.86663  -0.76567  -0.73437  -0.62334  -0.53729
 Alpha  occ. eigenvalues --   -0.50679  -0.47841  -0.44517  -0.43396  -0.41989
 Alpha  occ. eigenvalues --   -0.41928  -0.37009  -0.34173  -0.27650  -0.26740
 Alpha  occ. eigenvalues --   -0.25799
 Alpha virt. eigenvalues --   -0.02278  -0.02161   0.03993   0.04473   0.08235
 Alpha virt. eigenvalues --    0.09881   0.10253   0.14007   0.14043   0.19938
 Alpha virt. eigenvalues --    0.22804   0.31508   0.32946   0.36011   0.36490
 Alpha virt. eigenvalues --    0.37488   0.38430   0.38676   0.39485   0.50081
 Alpha virt. eigenvalues --    0.50873   0.54744   0.56443   0.58078   0.62630
 Alpha virt. eigenvalues --    0.63227   0.71106   0.71591   0.72755   0.80237
 Alpha virt. eigenvalues --    0.82929   0.83850   0.85633   0.86293   0.86942
 Alpha virt. eigenvalues --    0.87388   0.90947   0.93406   0.93977   0.96253
 Alpha virt. eigenvalues --    0.98621   1.01750   1.04693   1.08601   1.12849
 Alpha virt. eigenvalues --    1.13551   1.20124   1.46819   1.51053   1.54397
 Alpha virt. eigenvalues --    1.56400   1.57903   1.68009   1.77711   1.85547
 Alpha virt. eigenvalues --    1.87705   1.94889   1.97500   1.97719   2.09662
 Alpha virt. eigenvalues --    2.19021   2.20140   2.23236   2.29584   2.31988
 Alpha virt. eigenvalues --    2.54835   2.55893   2.65090   2.96991   3.84048
 Alpha virt. eigenvalues --    3.91074   3.94292   4.16712   4.23549   4.34038
          Condensed to atoms (all electrons):
               1          2          3          4          5          6
     1  O    7.995857   0.503629  -0.054712  -0.054705   0.001404   0.001404
     2  C    0.503629   4.920556   0.240429   0.240422  -0.011783  -0.011783
     3  S   -0.054712   0.240429  15.621285  -0.116163   0.254969  -0.052433
     4  S   -0.054705   0.240422  -0.116163  15.621324  -0.052432   0.254970
     5  C    0.001404  -0.011783   0.254969  -0.052432   5.265686   0.320399
     6  C    0.001404  -0.011783  -0.052433   0.254970   0.320399   5.265675
     7  H   -0.000020   0.002278  -0.036197   0.004429   0.360550  -0.024651
     8  H    0.000026  -0.003135  -0.043254   0.006907   0.363654  -0.040014
     9  H   -0.000020   0.002278   0.004428  -0.036203  -0.024651   0.360555
    10  H    0.000026  -0.003137   0.006910  -0.043273  -0.040015   0.363664
               7          8          9         10
     1  O   -0.000020   0.000026  -0.000020   0.000026
     2  C    0.002278  -0.003135   0.002278  -0.003137
     3  S   -0.036197  -0.043254   0.004428   0.006910
     4  S    0.004429   0.006907  -0.036203  -0.043273
     5  C    0.360550   0.363654  -0.024651  -0.040015
     6  C   -0.024651  -0.040014   0.360555   0.363664
     7  H    0.536967  -0.032879  -0.003138  -0.003444
     8  H   -0.032879   0.543987  -0.003443   0.004894
     9  H   -0.003138  -0.003443   0.536951  -0.032866
    10  H   -0.003444   0.004894  -0.032866   0.543967
 Mulliken charges:
               1
     1  O   -0.392889
     2  C    0.120248
     3  S    0.174738
     4  S    0.174725
     5  C   -0.437783
     6  C   -0.437787
     7  H    0.196106
     8  H    0.203257
     9  H    0.196110
    10  H    0.203275
 Sum of Mulliken charges =   0.00000
 Mulliken charges with hydrogens summed into heavy atoms:
               1
     1  O   -0.392889
     2  C    0.120248
     3  S    0.174738
     4  S    0.174725
     5  C   -0.038419
     6  C   -0.038402
 APT charges:
               1
     1  O   -0.743565
     2  C    1.116070
     3  S   -0.300884
     4  S   -0.300902
     5  C    0.128580
     6  C    0.128563
     7  H    0.008669
     8  H   -0.022615
     9  H    0.008685
    10  H   -0.022601
 Sum of APT charges =   0.00000
 APT charges with hydrogens summed into heavy atoms:
               1
     1  O   -0.743565
     2  C    1.116070
     3  S   -0.300884
     4  S   -0.300902
     5  C    0.114634
     6  C    0.114647
 Electronic spatial extent (au):  <R**2>=            757.8343
 Charge=              0.0000 electrons
 Dipole moment (field-independent basis, Debye):
    X=              4.5801    Y=              0.0004    Z=              0.0001  Tot=              4.5801
 Quadrupole moment (field-independent basis, Debye-Ang):
   XX=            -49.2489   YY=            -50.8630   ZZ=            -49.1514
   XY=              0.0001   XZ=              0.0002   YZ=             -0.4011
 Traceless Quadrupole moment (field-independent basis, Debye-Ang):
   XX=              0.5056   YY=             -1.1086   ZZ=              0.6030
   XY=              0.0001   XZ=              0.0002   YZ=             -0.4011
 Octapole moment (field-independent basis, Debye-Ang**2):
  XXX=             18.8696  YYY=              0.0011  ZZZ=              0.0012  XYY=              2.6802
  XXY=              0.0012  XXZ=             -0.0011  XZZ=             -0.6907  YZZ=             -0.0003
  YYZ=             -0.0002  XYZ=             -1.1287
 Hexadecapole moment (field-independent basis, Debye-Ang**3):
 XXXX=           -483.0882 YYYY=           -459.9151 ZZZZ=            -77.1073 XXXY=             -0.0041
 XXXZ=             -0.0015 YYYX=              0.0047 YYYZ=              2.8153 ZZZX=             -0.0002
 ZZZY=             -3.4589 XXYY=           -139.7772 XXZZ=            -85.7049 YYZZ=            -94.9235
 XXYZ=              1.8348 YYXZ=              0.0003 ZZXY=              0.0018
 N-N= 3.553484858333D+02 E-N=-3.050405838380D+03  KE= 9.840044750331D+02
  Exact polarizability:  76.284   0.000  74.656  -0.001   1.662  41.812
 Approx polarizability: 135.991   0.000 124.897  -0.003   5.214  65.534
 No NMR shielding tensors so no spin-rotation constants.
 Leave Link  601 at Mon Apr  6 18:18:03 2020, MaxMem=  8053063680 cpu:         4.5
 (Enter /usr/local/Cluster-Apps/gaussian/g09/l701.exe)
 Compute integral second derivatives.
 ... and contract with generalized density number  0.
 Leave Link  701 at Mon Apr  6 18:18:03 2020, MaxMem=  8053063680 cpu:         3.7
 (Enter /usr/local/Cluster-Apps/gaussian/g09/l702.exe)
 L702 exits ... SP integral derivatives will be done elsewhere.
 Leave Link  702 at Mon Apr  6 18:18:03 2020, MaxMem=  8053063680 cpu:         0.2
 (Enter /usr/local/Cluster-Apps/gaussian/g09/l703.exe)
 Compute integral second derivatives, UseDBF=F ICtDFT=           0.
 Integral derivatives from FoFJK, PRISM(SPDF).
 Calling FoFJK, ICntrl=    100127 FMM=F ISym2X=0 I1Cent= 0 IOpClX= 0 NMat=1 NMatS=1 NMatT=0.
 FoFJK:  IHMeth= 1 ICntrl=  100127 DoSepK=F KAlg= 0 I1Cent=   0 FoldK=F
 IRaf=         0 NMat=   1 IRICut=       1 DoRegI=T DoRafI=F ISym2E= 0.
 FoFCou: FMM=F IPFlag=           0 FMFlag=      100000 FMFlg1=         800
         NFxFlg=           0 DoJE=F BraDBF=F KetDBF=F FulRan=T
         wScrn=  0.000000 ICntrl=  100127 IOpCl=  0 I1Cent=           0 NGrid=           0
         NMat0=    1 NMatS0=      1 NMatT0=    0 NMatD0=    1 NMtDS0=    0 NMtDT0=    0
 Symmetry not used in FoFCou.
 Leave Link  703 at Mon Apr  6 18:18:06 2020, MaxMem=  8053063680 cpu:        45.9
 (Enter /usr/local/Cluster-Apps/gaussian/g09/l716.exe)
 Dipole        = 1.80193754D+00 1.55972305D-04 4.58585777D-05
 Polarizability= 7.62835198D+01-8.92528309D-05 7.46564576D+01
                -1.16195167D-03 1.66213242D+00 4.18117314D+01
 Full mass-weighted force constant matrix:
 Low frequencies ---  -11.2797  -10.5991    0.0035    0.0036    0.0052   10.5178
 Low frequencies ---  120.2773  223.2639  371.2208
 Diagonal vibrational polarizability:
        5.8015536       8.8059486       1.1119885
 Harmonic frequencies (cm**-1), IR intensities (KM/Mole), Raman scattering
 activities (A**4/AMU), depolarization ratios for plane and unpolarized
 incident light, reduced masses (AMU), force constants (mDyne/A),
 and normal coordinates:
                      1                      2                      3
                      A                      A                      A
 Frequencies --    120.2720               223.2627               371.2206
 Red. masses --      6.0633                 2.0348                14.2593
 Frc consts  --      0.0517                 0.0598                 1.1577
 IR Inten    --      0.2441                 1.0588                 0.4542
  Atom  AN      X      Y      Z        X      Y      Z        X      Y      Z
     1   8     0.00  -0.01   0.33     0.00   0.00   0.00     0.00   0.70   0.04
     2   6     0.00  -0.01   0.06     0.00   0.00   0.00     0.00   0.00  -0.05
     3  16    -0.02   0.01  -0.19     0.03  -0.01   0.06    -0.16  -0.24   0.00
[...]
     27  0.111229D-02 -0.159216D-02  0.281577D-01 -0.555613D-02  0.234940D-02
     28 -0.132597D-01 -0.253789D-02  0.185011D-02 -0.159252D-01  0.437149D-02
     29 -0.107379D-01 -0.525695D-02  0.167012D-02 -0.437195D-02  0.190944D-02
     30 -0.247861D-01 -0.239820D-02 -0.386574D-02  0.290274D-01 -0.891816D-02
               16            17            18            19            20 
     16  0.542216D+00
     17 -0.546659D-01  0.525189D+00
     18 -0.129400D-01 -0.668656D-01  0.362460D+00
     19  0.423765D-02  0.114001D-01  0.114333D-01  0.596175D-01
     20  0.200484D-02  0.525578D-02  0.683465D-02  0.372962D-01  0.193027D+00
     21 -0.488840D-02 -0.176211D-01 -0.199063D-01  0.373750D-01  0.141377D+00
     22  0.385336D-02 -0.172816D-01  0.666913D-02  0.314901D-02 -0.563730D-02
     23  0.191392D-03 -0.579095D-02  0.130303D-02  0.541832D-02 -0.184748D-01
     24 -0.571221D-02  0.268811D-01 -0.950534D-02  0.654452D-02 -0.206473D-01
     25 -0.303227D+00  0.673017D-01 -0.199327D-01  0.153861D-03  0.188468D-03
     26  0.663504D-01 -0.658381D-01  0.679258D-02  0.235474D-03 -0.106302D-03
     27 -0.222419D-01  0.919536D-02 -0.453347D-01 -0.597806D-03 -0.366418D-03
     28 -0.556594D-01  0.259935D-01 -0.171647D-02  0.588759D-03  0.332503D-03
     29  0.272302D-01 -0.304827D+00  0.667845D-01  0.619425D-04  0.804508D-03
     30 -0.195534D-02  0.592613D-01 -0.567565D-01 -0.412700D-03 -0.448823D-04
               21            22            23            24            25 
     21  0.191310D+00
     22  0.310589D-02  0.732682D-01
     23  0.805264D-02 -0.659178D-01  0.288805D+00
     24  0.953500D-02  0.234536D-01 -0.905763D-01  0.867558D-01
     25  0.150137D-03  0.902131D-03 -0.386739D-03 -0.247881D-03  0.323961D+00
     26 -0.424274D-04 -0.153016D-03  0.391171D-03 -0.384636D-03 -0.700016D-01
     27  0.544263D-03 -0.381146D-03  0.122401D-04  0.113452D-02  0.202008D-01
     28 -0.575860D-03 -0.844322D-03 -0.905169D-03  0.266720D-02 -0.745566D-03
     29  0.316270D-03 -0.517022D-03  0.136889D-02  0.775895D-03  0.920361D-03
     30  0.103488D-02  0.394933D-02  0.101967D-02 -0.442011D-02  0.432542D-03
               26            27            28            29            30 
     26  0.686131D-01
     27 -0.555881D-02  0.513991D-01
     28  0.308973D-01 -0.725435D-02  0.539264D-01
     29 -0.533657D-02  0.202042D-02 -0.260393D-01  0.323050D+00
     30  0.228809D-02  0.297494D-03  0.587349D-02 -0.659109D-01  0.719205D-01
 FormGI is forming the generalized inverse of G from B-inverse, IUseBI=4.
 Leave Link  716 at Mon Apr  6 18:18:07 2020, MaxMem=  8053063680 cpu:         4.0
 (Enter /usr/local/Cluster-Apps/gaussian/g09/l103.exe)

 GradGradGradGradGradGradGradGradGradGradGradGradGradGradGradGradGradGrad
 Berny optimization.
 Red2BG is reusing G-inverse.
 Internal  Forces:  Max     0.000088010 RMS     0.000023866
 Search for a local minimum.
 Step number   1 out of a maximum of    2
 All quantities printed in internal units (Hartrees-Bohrs-Radians)
 Second derivative matrix not updated -- analytic derivatives used.
 ITU=  0
     Eigenvalues ---    0.00505   0.00955   0.04010   0.04274   0.04462
     Eigenvalues ---    0.05471   0.06816   0.08402   0.09151   0.10517
     Eigenvalues ---    0.10654   0.12346   0.15286   0.17887   0.19121
     Eigenvalues ---    0.19398   0.25059   0.25660   0.29213   0.33937
     Eigenvalues ---    0.34114   0.34588   0.34766   0.90135
 Angle between quadratic step and forces=  57.03 degrees.
 Linear search not attempted -- first point.
 Iteration  1 RMS(Cart)=  0.00018538 RMS(Int)=  0.00000003
 Iteration  2 RMS(Cart)=  0.00000003 RMS(Int)=  0.00000001
 ITry= 1 IFail=0 DXMaxC= 5.44D-04 DCOld= 1.00D+10 DXMaxT= 3.00D-01 DXLimC= 3.00D+00 Rises=F
 Variable       Old X    -DE/DX   Delta X   Delta X   Delta X     New X
                                 (Linear)    (Quad)   (Total)
    R1        2.26570  -0.00008   0.00000  -0.00009  -0.00009   2.26561
    R2        3.42944   0.00001   0.00000   0.00009   0.00009   3.42952
    R3        3.42946   0.00001   0.00000   0.00006   0.00006   3.42952
    R4        3.46146   0.00004   0.00000   0.00030   0.00030   3.46177
    R5        3.46141   0.00006   0.00000   0.00036   0.00036   3.46177
    R6        2.89086  -0.00009   0.00000  -0.00036  -0.00036   2.89050
    R7        2.06695   0.00001   0.00000   0.00002   0.00002   2.06697
    R8        2.06697  -0.00004   0.00000  -0.00013  -0.00013   2.06684
    R9        2.06693   0.00002   0.00000   0.00004   0.00004   2.06697
   R10        2.06689  -0.00001   0.00000  -0.00005  -0.00005   2.06684
    A1        2.15457  -0.00001   0.00000  -0.00002  -0.00002   2.15456
    A2        2.15466  -0.00002   0.00000  -0.00010  -0.00010   2.15455
    A3        1.97396   0.00002   0.00000   0.00012   0.00012   1.97407
    A4        1.67392  -0.00003   0.00000  -0.00010  -0.00010   1.67383
    A5        1.67389  -0.00003   0.00000  -0.00007  -0.00007   1.67383
    A6        1.89928   0.00002   0.00000   0.00013   0.00013   1.89941
    A7        1.88519  -0.00001   0.00000  -0.00022  -0.00022   1.88497
    A8        1.90522  -0.00001   0.00000  -0.00024  -0.00024   1.90498
    A9        1.93363  -0.00001   0.00000  -0.00008  -0.00008   1.93355
   A10        1.93915   0.00000   0.00000   0.00009   0.00009   1.93924
   A11        1.90040   0.00002   0.00000   0.00031   0.00031   1.90071
   A12        1.89931   0.00001   0.00000   0.00011   0.00011   1.89941
   A13        1.88511  -0.00001   0.00000  -0.00014  -0.00014   1.88497
   A14        1.90505   0.00000   0.00000  -0.00007  -0.00007   1.90498
   A15        1.93365  -0.00001   0.00000  -0.00010  -0.00010   1.93355
   A16        1.93920  -0.00001   0.00000   0.00003   0.00003   1.93924
   A17        1.90054   0.00001   0.00000   0.00017   0.00017   1.90071
    D1       -2.95366  -0.00001   0.00000   0.00000   0.00000  -2.95367
    D2        0.18791  -0.00001   0.00000   0.00001   0.00001   0.18792
    D3       -2.95349  -0.00001   0.00000  -0.00018  -0.00018  -2.95367
    D4        0.18812  -0.00001   0.00000  -0.00019  -0.00019   0.18792
    D5       -0.59377   0.00000   0.00000   0.00009   0.00009  -0.59368
    D6       -2.69411   0.00001   0.00000   0.00024   0.00024  -2.69386
    D7        1.52524   0.00000   0.00000   0.00013   0.00013   1.52537
    D8       -0.59391   0.00000   0.00000   0.00023   0.00023  -0.59368
    D9       -2.69423   0.00001   0.00000   0.00037   0.00037  -2.69386
   D10        1.52508   0.00000   0.00000   0.00029   0.00029   1.52537
   D11        0.79873   0.00000   0.00000  -0.00020  -0.00020   0.79853
   D12        2.86881   0.00000   0.00000  -0.00037  -0.00037   2.86844
   D13       -1.29926   0.00000   0.00000  -0.00020  -0.00020  -1.29947
   D14        2.86888  -0.00001   0.00000  -0.00044  -0.00044   2.86844
   D15       -1.34422  -0.00001   0.00000  -0.00061  -0.00061  -1.34483
   D16        0.77089  -0.00001   0.00000  -0.00044  -0.00044   0.77045
   D17       -1.29942   0.00001   0.00000  -0.00005  -0.00005  -1.29947
   D18        0.77066   0.00000   0.00000  -0.00021  -0.00021   0.77045
   D19        2.88577   0.00001   0.00000  -0.00005  -0.00005   2.88572
         Item               Value     Threshold  Converged?
 Maximum Force            0.000088     0.000450     YES
 RMS     Force            0.000024     0.000300     YES
 Maximum Displacement     0.000544     0.001800     YES
 RMS     Displacement     0.000185     0.001200     YES
 Predicted change in Energy=-6.515073D-08
 Optimization completed.
    -- Stationary point found.
                           ----------------------------
                           !   Optimized Parameters   !
                           ! (Angstroms and Degrees)  !
 --------------------------                            --------------------------
 ! Name  Definition              Value          Derivative Info.                !
 --------------------------------------------------------------------------------
 ! R1    R(1,2)                  1.199          -DE/DX =   -0.0001              !
 ! R2    R(2,3)                  1.8148         -DE/DX =    0.0                 !
 ! R3    R(2,4)                  1.8148         -DE/DX =    0.0                 !
 ! R4    R(3,5)                  1.8317         -DE/DX =    0.0                 !
 ! R5    R(4,6)                  1.8317         -DE/DX =    0.0001              !
 ! R6    R(5,6)                  1.5298         -DE/DX =   -0.0001              !
 ! R7    R(5,7)                  1.0938         -DE/DX =    0.0                 !
 ! R8    R(5,8)                  1.0938         -DE/DX =    0.0                 !
 ! R9    R(6,9)                  1.0938         -DE/DX =    0.0                 !
 ! R10   R(6,10)                 1.0938         -DE/DX =    0.0                 !
 ! A1    A(1,2,3)              123.4479         -DE/DX =    0.0                 !
 ! A2    A(1,2,4)              123.4527         -DE/DX =    0.0                 !
 ! A3    A(3,2,4)              113.0994         -DE/DX =    0.0                 !
 ! A4    A(2,3,5)               95.9086         -DE/DX =    0.0                 !
 ! A5    A(2,4,6)               95.9071         -DE/DX =    0.0                 !
 ! A6    A(3,5,6)              108.8209         -DE/DX =    0.0                 !
 ! A7    A(3,5,7)              108.0135         -DE/DX =    0.0                 !
 ! A8    A(3,5,8)              109.161          -DE/DX =    0.0                 !
 ! A9    A(6,5,7)              110.7888         -DE/DX =    0.0                 !
 ! A10   A(6,5,8)              111.1053         -DE/DX =    0.0                 !
 ! A11   A(7,5,8)              108.8851         -DE/DX =    0.0                 !
 ! A12   A(4,6,5)              108.8222         -DE/DX =    0.0                 !
 ! A13   A(4,6,9)              108.0091         -DE/DX =    0.0                 !
 ! A14   A(4,6,10)             109.1515         -DE/DX =    0.0                 !
 ! A15   A(5,6,9)              110.79           -DE/DX =    0.0                 !
 ! A16   A(5,6,10)             111.1083         -DE/DX =    0.0                 !
 ! A17   A(9,6,10)             108.8932         -DE/DX =    0.0                 !
 ! D1    D(1,2,3,5)           -169.2325         -DE/DX =    0.0                 !
 ! D2    D(4,2,3,5)             10.7665         -DE/DX =    0.0                 !
 ! D3    D(1,2,4,6)           -169.2226         -DE/DX =    0.0                 !
 ! D4    D(3,2,4,6)             10.7784         -DE/DX =    0.0                 !
 ! D5    D(2,3,5,6)            -34.0206         -DE/DX =    0.0                 !
 ! D6    D(2,3,5,7)           -154.3609         -DE/DX =    0.0                 !
 ! D7    D(2,3,5,8)             87.3899         -DE/DX =    0.0                 !
 ! D8    D(2,4,6,5)            -34.0284         -DE/DX =    0.0                 !
 ! D9    D(2,4,6,9)           -154.3682         -DE/DX =    0.0                 !
 ! D10   D(2,4,6,10)            87.3807         -DE/DX =    0.0                 !
 ! D11   D(3,5,6,4)             45.7641         -DE/DX =    0.0                 !
 ! D12   D(3,5,6,9)            164.3709         -DE/DX =    0.0                 !
 ! D13   D(3,5,6,10)           -74.4421         -DE/DX =    0.0                 !
 ! D14   D(7,5,6,4)            164.3749         -DE/DX =    0.0                 !
 ! D15   D(7,5,6,9)            -77.0182         -DE/DX =    0.0                 !
 ! D16   D(7,5,6,10)            44.1687         -DE/DX =    0.0                 !
 ! D17   D(8,5,6,4)            -74.4512         -DE/DX =    0.0                 !
 ! D18   D(8,5,6,9)             44.1556         -DE/DX =    0.0                 !
 ! D19   D(8,5,6,10)           165.3425         -DE/DX =    0.0                 !
 --------------------------------------------------------------------------------
 GradGradGradGradGradGradGradGradGradGradGradGradGradGradGradGradGradGrad

 Leave Link  103 at Mon Apr  6 18:18:07 2020, MaxMem=  8053063680 cpu:         0.7
 (Enter /usr/local/Cluster-Apps/gaussian/g09/l9999.exe)
 1\1\GINC-CPU-G-3\Freq\RB3LYP\6-31G(d)\C3H4O1S2\MSFF2\06-Apr-2020\0\\#P
  Geom=AllCheck Guess=TCheck SCRF=Check GenChk RB3LYP/6-31G(d) Freq\\CE
 B-312-03-WLO_192.168.1.96_113420049902577\\0,1\O,-2.9847,-0.3616,0.591
 8\C,-3.9338,-0.7328,-0.0398\S,-3.8193,-1.3747,-1.7334\S,-5.632,-0.7103
 ,0.5998\C,-5.622,-1.3724,-2.0582\C,-6.3581,-1.702,-0.7583\H,-5.8288,-2
 .1262,-2.8233\H,-5.9168,-0.3906,-2.4397\H,-7.4181,-1.4438,-0.8362\H,-6
 .2694,-2.7644,-0.5139\\Version=ES64L-G09RevD.01\State=1-A\HF=-988.3372
 488\RMSD=8.706e-09\RMSF=4.358e-05\ZeroPoint=0.0684239\Thermal=0.074261
 8\Dipole=-1.4263854,-0.5579999,-0.9492312\DipoleDeriv=-1.1033972,-0.28
 43301,-0.4087291,-0.2903561,-0.3804767,-0.213798,-0.4051671,-0.2228481
 ,-0.7468222,1.595952,0.2619352,0.0464383,0.2614121,0.3412589,0.4229356
 ,0.0467394,0.4221487,1.4110003,-0.0978174,-0.0042096,0.0691496,-0.0207
 202,-0.1374248,-0.2205486,0.0597311,-0.1859948,-0.667409,-0.6456571,-0
 .0231542,0.2274616,0.016111,-0.0466186,0.0084713,0.2235026,0.0080634,-
 0.2104315,0.2709732,-0.0201997,0.0671268,-0.0262767,0.0820198,-0.06248
 7,0.0894325,-0.0135872,0.0327467,0.0560363,0.0491389,0.1103292,0.08531
 7,0.1856581,0.0846685,0.0702819,0.081009,0.143996,0.0339154,-0.0188797
 ,-0.0204401,-0.0213278,0.0312401,-0.0656278,-0.0389,-0.068145,-0.03914
 93,-0.0718816,0.0389469,-0.0602524,0.0403859,-0.0372645,0.0674489,-0.0
 030182,0.0302784,0.0413013,-0.0897338,-0.002258,-0.0125588,0.0027673,0
 .066111,-0.014305,0.0044064,-0.007935,0.0496772,0.0516103,0.0030102,-0
 .0185252,-0.0473125,-0.1045033,-0.0067579,-0.0470087,-0.0429893,-0.014
 9096\Polar=75.1842418,4.2283521,46.5641533,-0.8329833,11.1130896,71.00
 33137\PG=C01 [X(C3H4O1S2)]\NImag=0\\0.58461705,0.20565291,0.11351761,0
 .33683508,0.14685475,0.29675404,-0.52915668,-0.17643970,-0.29598352,0.
 67555559,-0.17730714,-0.12931735,-0.12487258,0.17168326,0.20735297,-0.
 29547137,-0.12617644,-0.27697663,0.26239843,0.15927994,0.42940905,0.00
 625554,-0.01337167,-0.03036207,-0.05656120,0.00574219,0.01106407,0.245
 15783,-0.01478434,0.00145968,-0.01934385,0.01917291,-0.03365085,-0.016
 36162,-0.01159004,0.05049796,-0.03666443,-0.01935174,-0.03388449,0.053
 64778,-0.01594246,-0.07727715,-0.00339410,0.04781099,0.17844903,-0.056
 28202,-0.01737878,-0.01614527,-0.06190885,0.01969866,0.05495621,-0.012
 91409,0.00624996,0.02059797,0.18674990,-0.01470008,0.00949335,0.002551
 35,0.00017688,-0.03480930,-0.01043894,0.00356672,0.00591896,-0.0101513
 9,0.03231518,0.09381229,-0.01058745,0.00446015,0.02062622,0.01595342,-
 0.02000580,-0.07076340,0.01591122,-0.01020066,-0.02029302,-0.01146394,
 0.08909318,0.19355567,0.00088220,0.00239500,0.00622229,-0.00076506,-0.
 00728907,-0.01974364,-0.12407534,0.00417258,-0.01737019,-0.00230881,0.
 00322091,-0.00376585,0.33939528,0.00070883,0.00210350,-0.00444012,-0.0
 1050451,-0.00591506,-0.00486069,0.01714674,-0.03426192,0.00106031,0.00
 189766,0.00003301,-0.01892372,-0.01611784,0.58628735,0.00163357,-0.004
 39546,-0.00793515,-0.02373538,0.00009176,-0.00146556,0.00262149,0.0001
 3966,-0.04538003,-0.00013772,-0.00781309,-0.02922275,0.02598151,0.0268
 3280,0.50406877,-0.00652512,0.00023343,0.00416284,-0.01583268,-0.01136
 153,-0.01866075,-0.03158577,-0.00658292,0.01373503,-0.04772934,-0.0111
 9720,-0.00389872,-0.08974811,-0.01220273,0.05239949,0.54221604,0.00251
 703,0.00309595,-0.00211466,-0.00449407,-0.00284694,0.00348479,0.002087
 27,0.00075248,-0.00432546,-0.02426494,-0.06816873,-0.04111357,-0.00859
 313,-0.08682105,0.03321792,-0.05466588,0.52518890,0.00839774,-0.001260
 54,-0.00152179,-0.01681213,0.00401328,0.01053162,0.00578876,-0.0043956
 5,-0.00066556,-0.02383776,-0.04032361,-0.08783594,0.04295011,0.0271173
 8,-0.15146588,-0.01294002,-0.06686563,0.36246039,0.00083762,-0.0005484
 9,-0.00375226,-0.00966438,-0.00116496,0.00345775,-0.00743135,-0.015060
 97,-0.02001887,0.00109026,-0.00007003,0.00322184,-0.05257889,-0.037567
 65,-0.03725080,0.00423765,0.01140011,0.01143335,0.05961747,0.00011850,
 0.00008096,0.00033738,0.00120083,0.00042747,0.00102921,-0.00062562,0.0
 0197095,0.00170742,-0.00049411,0.00164346,0.00203901,-0.03438435,-0.18
 462916,-0.13226611,0.00200484,0.00525578,0.00683465,0.03729624,0.19302
 717,-0.00007352,0.00009601,0.00061067,0.00078458,-0.00041870,-0.001950
 24,-0.00105593,-0.00118084,-0.00055313,0.00142944,0.00073920,-0.003455
 41,-0.03625132,-0.13131813,-0.17717021,-0.00488840,-0.01762111,-0.0199
 0628,0.03737497,0.14137709,0.19131046,0.00022715,-0.00127136,-0.001066
 24,-0.00234117,0.00255304,0.00367923,-0.02030791,0.01886446,-0.0125054
 1,0.00107177,-0.00011338,-0.00111038,-0.05897817,0.06947402,-0.0257939
 9,0.00385336,-0.01728161,0.00666913,0.00314901,-0.00563730,0.00310589,
 0.07326815,-0.00025369,-0.00054774,-0.00026027,-0.00015711,0.00123656,
 0.00044236,-0.00095375,0.00568062,-0.00261573,0.00024248,0.00066767,0.
 00080593,0.06272210,-0.27333625,0.08181646,0.00019139,-0.00579095,0.00
 130303,0.00541832,-0.01847483,0.00805264,-0.06591784,0.28880487,0.0000
 8759,-0.00044356,0.00018812,-0.00073071,0.00123363,-0.00050949,-0.0039
 6619,0.00208324,0.00030296,0.00021901,0.00001709,0.00137898,-0.0223149
 2,0.08106094,-0.08486042,-0.00571221,0.02688108,-0.00950534,0.00654452
 ,-0.02064734,0.00953500,0.02345358,-0.09057633,0.08675578,-0.00018594,
 0.00002820,0.00029057,-0.00072384,-0.00031977,-0.00103635,0.00010975,-
 0.00088191,0.00195482,-0.00657185,0.00006069,-0.00172226,-0.01367321,0
 .00309063,-0.00008965,-0.30322659,0.06730170,-0.01993271,0.00015386,0.
 00018847,0.00015014,0.00090213,-0.00038674,-0.00024788,0.32396125,-0.0
 0167053,-0.00023620,0.00099492,-0.00170835,-0.00174857,-0.00499263,-0.
 00119226,0.00120266,0.00133387,-0.01496108,0.00214722,-0.00089757,-0.0
 0779631,0.00091153,0.00046662,0.06635044,-0.06583808,0.00679258,0.0002
 3547,-0.00010630,-0.00004243,-0.00015302,0.00039117,-0.00038464,-0.070
 00162,0.06861313,-0.00278183,-0.00031275,0.00195190,0.00106162,-0.0020
 7571,-0.00871560,0.00417893,0.00152951,-0.00203421,-0.02034203,0.00111
 229,-0.00159216,0.02815774,-0.00555613,0.00234940,-0.02224191,0.009195
 36,-0.04533472,-0.00059781,-0.00036642,0.00054426,-0.00038115,0.000012
 24,0.00113452,0.02020077,-0.00555881,0.05139913,-0.00066981,0.00070047
 ,-0.00020142,0.00139827,-0.00223467,-0.00064359,0.00135255,0.00044027,
 0.00001740,-0.00119696,-0.01325970,-0.00253789,0.00185011,-0.01592516,
 0.00437149,-0.05565943,0.02599352,-0.00171647,0.00058876,0.00033250,-0
 .00057586,-0.00084432,-0.00090517,0.00266720,-0.00074557,0.03089726,-0
 .00725435,0.05392639,-0.00028149,0.00035025,0.00029309,0.00106987,-0.0
 0072894,-0.00140598,-0.00080957,0.00042946,0.00047418,-0.00330503,-0.0
 1073793,-0.00525695,0.00167012,-0.00437195,0.00190944,0.02723016,-0.30
 482735,0.06678450,0.00006194,0.00080451,0.00031627,-0.00051702,0.00136
 889,0.00077589,0.00092036,-0.00533657,0.00202042,-0.02603934,0.3230496
 3,-0.00137539,0.00052957,0.00018710,0.00341591,-0.00130336,-0.00228260
 ,-0.00078619,-0.00008078,0.00133561,-0.00527591,-0.02478609,-0.0023982
 0,-0.00386574,0.02902737,-0.00891816,-0.00195534,0.05926128,-0.0567565
 0,-0.00041270,-0.00004488,0.00103488,0.00394933,0.00101967,-0.00442011
 ,0.00043254,0.00228809,0.00029749,0.00587349,-0.06591088,0.07192049\\0
 .00006600,0.00002293,0.00003746,-0.00004692,-0.00001903,-0.00002841,-0
 .00005595,-0.00001179,0.00002922,-0.00001307,-0.00002263,-0.00007521,0
 .00012273,-0.00003392,-0.00004634,-0.00003457,0.00004881,0.00010797,-0
 .00001195,0.00001791,-0.00000571,-0.00001722,0.00001427,-0.00003798,0.
 00000866,-0.00001177,0.00000284,-0.00001771,-0.00000479,0.00001617\\\@


 THERE'S NOTHING WRONG WITH FOLLOWING A TRAIN OF THOUGHT...
 AS LONG AS IT ULTIMATELY PULLS INTO THE STATION.
 Job cpu time:       0 days  0 hours  2 minutes 39.9 seconds.
 File lengths (MBytes):  RWF=     20 Int=      0 D2E=      0 Chk=      2 Scr=      1
 Normal termination of Gaussian 09 at Mon Apr  6 18:18:07 2020.
