 Entering Gaussian System, Link 0=g09
 Initial command:
 /usr/local/Cluster-Apps/gaussian/g09/l1.exe "/rds/user/am2145/hpc-work/scratch/26056400/Gau-206839.inp" -scrdir="/rds/user/am2145/hpc-work/scratch/26056400/"
 Entering Link 1 = /usr/local/Cluster-Apps/gaussian/g09/l1.exe PID=    206840.
  
 Copyright (c) 1988,1990,1992,1993,1995,1998,2003,2009,2013,
            Gaussian, Inc.  All Rights Reserved.
  
 This is part of the Gaussian(R) 09 program.  It is based on
 the Gaussian(R) 03 system (copyright 2003, Gaussian, Inc.),
 the Gaussian(R) 98 system (copyright 1998, Gaussian, Inc.),
 the Gaussian(R) 94 system (copyright 1995, Gaussian, Inc.),
 the Gaussian 92(TM) system (copyright 1992, Gaussian, Inc.),
 the Gaussian 90(TM) system (copyright 1990, Gaussian, Inc.),
 the Gaussian 88(TM) system (copyright 1988, Gaussian, Inc.),
 the Gaussian 86(TM) system (copyright 1986, Carnegie Mellon
 University), and the Gaussian 82(TM) system (copyright 1983,
 Carnegie Mellon University). Gaussian is a federally registered
 trademark of Gaussian, Inc.
  
 This software contains proprietary and confidential information,
 including trade secrets, belonging to Gaussian, Inc.
  
 This software is provided under written license and may be
 used, copied, transmitted, or stored only in accord with that
 written license.
  
 The following legend is applicable only to US Government
 contracts under FAR:
  
                    RESTRICTED RIGHTS LEGEND
  
 Use, reproduction and disclosure by the US Government is
 subject to restrictions as set forth in subparagraphs (a)
 and (c) of the Commercial Computer Software - Restricted
 Rights clause in FAR 52.227-19.
  
 Gaussian, Inc.
 340 Quinnipiac St., Bldg. 40, Wallingford CT 06492
  
  
 ---------------------------------------------------------------
 Warning -- This program may not be used in any manner that
 competes with the business of Gaussian, Inc. or will provide
 assistance to any competitor of Gaussian, Inc.  The licensee
 of this program is prohibited from giving any competitor of
 Gaussian, Inc. access to this program.  By using this program,
 the user acknowledges that Gaussian, Inc. is engaged in the
 business of creating and licensing software in the field of
 computational chemistry and represents and warrants to the
 licensee that it is not a competitor of Gaussian, Inc. and that
 it will not use this program in any manner prohibited above.
 ---------------------------------------------------------------
  

 Cite this work as:
 Gaussian 09, Revision D.01,
 M. J. Frisch, G. W. Trucks, H. B. Schlegel, G. E. Scuseria, 
 M. A. Robb, J. R. Cheeseman, G. Scalmani, V. Barone, B. Mennucci, 
 G. A. Petersson, H. Nakatsuji, M. Caricato, X. Li, H. P. Hratchian, 
 A. F. Izmaylov, J. Bloino, G. Zheng, J. L. Sonnenberg, M. Hada, 
 M. Ehara, K. Toyota, R. Fukuda, J. Hasegawa, M. Ishida, T. Nakajima, 
 Y. Honda, O. Kitao, H. Nakai, T. Vreven, J. A. Montgomery, Jr., 
 J. E. Peralta, F. Ogliaro, M. Bearpark, J. J. Heyd, E. Brothers, 
 K. N. Kudin, V. N. Staroverov, T. Keith, R. Kobayashi, J. Normand, 
 K. Raghavachari, A. Rendell, J. C. Burant, S. S. Iyengar, J. Tomasi, 
 M. Cossi, N. Rega, J. M. Millam, M. Klene, J. E. Knox, J. B. Cross, 
 V. Bakken, C. Adamo, J. Jaramillo, R. Gomperts, R. E. Stratmann, 
 O. Yazyev, A. J. Austin, R. Cammi, C. Pomelli, J. W. Ochterski, 
 R. L. Martin, K. Morokuma, V. G. Zakrzewski, G. A. Voth, 
 P. Salvador, J. J. Dannenberg, S. Dapprich, A. D. Daniels, 
 O. Farkas, J. B. Foresman, J. V. Ortiz, J. Cioslowski, 
 and D. J. Fox, Gaussian, Inc., Wallingford CT, 2013.
 
 ******************************************
 Gaussian 09:  ES64L-G09RevD.01 24-Apr-2013
                17-Jul-2020 
 ******************************************
 %NProcShared=20
 Will use up to   20 processors via shared memory.
 %mem=64GB
 %Chk=co2.chk
 ------------------
 #p CCSD(T)/cc-pVDZ
 ------------------
 1/38=1/1;
 2/12=2,17=6,18=5,40=1/2;
 3/5=16,11=9,16=1,25=1,30=1/1,2,3;
 4//1;
 5/5=2,38=5/2;
 8/6=4,9=120000,10=1/1,4;
 9/5=7,14=2/13;
 6/7=2,8=2,9=2,10=2/1;
 99/5=1,9=1/99;
 Leave Link    1 at Fri Jul 17 12:05:20 2020, MaxMem=  8589934592 cpu:         3.0
 (Enter /usr/local/Cluster-Apps/gaussian/g09/l101.exe)
 ----------
 co2_backup
 ----------
 Symbolic Z-matrix:
 Charge =  0 Multiplicity = 1
 C                    -3.55536  -0.51345   0. 
 O                    -4.65534  -0.52079   0. 
 O                    -2.45539  -0.50613   0. 
 
 NAtoms=      3 NQM=        3 NQMF=       0 NMMI=      0 NMMIF=      0
                NMic=       0 NMicF=      0.
                    Isotopes and Nuclear Properties:
 (Nuclear quadrupole moments (NQMom) in fm**2, nuclear magnetic moments (NMagM)
  in nuclear magnetons)

  Atom         1           2           3
 IAtWgt=          12          16          16
 AtmWgt=  12.0000000  15.9949146  15.9949146
 NucSpn=           0           0           0
 AtZEff=   0.0000000   0.0000000   0.0000000
 NQMom=    0.0000000   0.0000000   0.0000000
 NMagM=    0.0000000   0.0000000   0.0000000
 AtZNuc=   6.0000000   8.0000000   8.0000000
 Leave Link  101 at Fri Jul 17 12:05:21 2020, MaxMem=  8589934592 cpu:         1.5
 (Enter /usr/local/Cluster-Apps/gaussian/g09/l202.exe)
                          Input orientation:                          
 ---------------------------------------------------------------------
 Center     Atomic      Atomic             Coordinates (Angstroms)
 Number     Number       Type             X           Y           Z
 ---------------------------------------------------------------------
      1          6           0       -3.555360   -0.513450    0.000000
      2          8           0       -4.655340   -0.520790    0.000000
      3          8           0       -2.455390   -0.506130    0.000000
 ---------------------------------------------------------------------
                    Distance matrix (angstroms):
                    1          2          3
     1  C    0.000000
     2  O    1.100004   0.000000
     3  O    1.099994   2.199999   0.000000
 Stoichiometry    CO2
 Framework group  C*V[C*(OCO)]
 Deg. of freedom     2
 Full point group                 C*V     NOp   4
 Largest Abelian subgroup         C2V     NOp   4
 Largest concise Abelian subgroup C1      NOp   1
                         Standard orientation:                         
 ---------------------------------------------------------------------
 Center     Atomic      Atomic             Coordinates (Angstroms)
 Number     Number       Type             X           Y           Z
 ---------------------------------------------------------------------
      1          6           0        0.000000    0.000000   -0.000004
      2          8           0        0.000000    0.000000    1.100001
      3          8           0        0.000000    0.000000   -1.099998
 ---------------------------------------------------------------------
 Rotational constants (GHZ):      0.0000000     13.0563072     13.0563072
 Leave Link  202 at Fri Jul 17 12:05:21 2020, MaxMem=  8589934592 cpu:         0.8
 (Enter /usr/local/Cluster-Apps/gaussian/g09/l301.exe)
 Standard basis: CC-pVDZ (5D, 7F)
 Ernie: Thresh=  0.10000D-02 Tol=  0.10000D-05 Strict=F.
 Ernie:  6 primitive shells out of 66 were deleted.
 There are    24 symmetry adapted cartesian basis functions of A1  symmetry.
 There are     3 symmetry adapted cartesian basis functions of A2  symmetry.
 There are     9 symmetry adapted cartesian basis functions of B1  symmetry.
 There are     9 symmetry adapted cartesian basis functions of B2  symmetry.
 There are    21 symmetry adapted basis functions of A1  symmetry.
 There are     3 symmetry adapted basis functions of A2  symmetry.
 There are     9 symmetry adapted basis functions of B1  symmetry.
 There are     9 symmetry adapted basis functions of B2  symmetry.
    42 basis functions,    99 primitive gaussians,    45 cartesian basis functions
    11 alpha electrons       11 beta electrons
       nuclear repulsion energy        61.5770166006 Hartrees.
 IExCor=    0 DFT=F Ex=HF Corr=None ExCW=0 ScaHFX=  1.000000
 ScaDFX=  1.000000  1.000000  1.000000  1.000000 ScalE2=  1.000000  1.000000
 IRadAn=      0 IRanWt=     -1 IRanGd=            0 ICorTp=0 IEmpDi=  4
 NAtoms=    3 NActive=    3 NUniq=    3 SFac= 1.00D+00 NAtFMM=   60 NAOKFM=F Big=F
 Integral buffers will be    131072 words long.
 Raffenetti 1 integral format.
 Two-electron integral symmetry is turned on.
 Leave Link  301 at Fri Jul 17 12:05:21 2020, MaxMem=  8589934592 cpu:         1.3
 (Enter /usr/local/Cluster-Apps/gaussian/g09/l302.exe)
 NPDir=0 NMtPBC=     1 NCelOv=     1 NCel=       1 NClECP=     1 NCelD=      1
         NCelK=      1 NCelE2=     1 NClLst=     1 CellRange=     0.0.
 One-electron integrals computed using PRISM.
 NBasis=    42 RedAO= T EigKep=  3.30D-02  NBF=    21     3     9     9
 NBsUse=    42 1.00D-06 EigRej= -1.00D+00 NBFU=    21     3     9     9
 Leave Link  302 at Fri Jul 17 12:05:22 2020, MaxMem=  8589934592 cpu:         9.4
 (Enter /usr/local/Cluster-Apps/gaussian/g09/l303.exe)
 DipDrv:  MaxL=1.
 Leave Link  303 at Fri Jul 17 12:05:22 2020, MaxMem=  8589934592 cpu:         3.7
 (Enter /usr/local/Cluster-Apps/gaussian/g09/l401.exe)
 ExpMin= 1.52D-01 ExpMax= 1.17D+04 ExpMxC= 4.01D+02 IAcc=1 IRadAn=         1 AccDes= 0.00D+00
 Harris functional with IExCor=  205 and IRadAn=       1 diagonalized for initial guess.
 HarFok:  IExCor=  205 AccDes= 0.00D+00 IRadAn=         1 IDoV= 1 UseB2=F ITyADJ=14
 ICtDFT=  3500011 ScaDFX=  1.000000  1.000000  1.000000  1.000000
 FoFCou: FMM=F IPFlag=           0 FMFlag=      100000 FMFlg1=           0
         NFxFlg=           0 DoJE=T BraDBF=F KetDBF=T FulRan=T
         wScrn=  0.000000 ICntrl=     500 IOpCl=  0 I1Cent=   200000004 NGrid=           0
         NMat0=    1 NMatS0=      1 NMatT0=    0 NMatD0=    1 NMtDS0=    0 NMtDT0=    0
 Petite list used in FoFCou.
 Harris En= -187.651675037923    
 JPrj=0 DoOrth=F DoCkMO=F.
 Initial guess orbital symmetries:
       Occupied  (SG) (SG) (SG) (SG) (SG) (SG) (SG) (PI) (PI) (PI)
                 (PI)
       Virtual   (PI) (PI) (SG) (SG) (PI) (PI) (SG) (SG) (PI) (PI)
                 (SG) (DLTA) (DLTA) (PI) (PI) (SG) (PI) (PI) (SG)
                 (SG) (DLTA) (DLTA) (DLTA) (DLTA) (PI) (PI) (SG)
                 (SG) (PI) (PI) (SG)
 The electronic state of the initial guess is 1-SG.
 Leave Link  401 at Fri Jul 17 12:05:23 2020, MaxMem=  8589934592 cpu:        17.9
 (Enter /usr/local/Cluster-Apps/gaussian/g09/l502.exe)
 Closed shell SCF:
 Using DIIS extrapolation, IDIIS=  1040.
 Integral symmetry usage will be decided dynamically.
 Keep R1 ints in memory in symmetry-blocked form, NReq=1284436.
 IVT=       25927 IEndB=       25927 NGot=  8589934592 MDV=  8589794450
 LenX=  8589794450 LenY=  8589791984
 Requested convergence on RMS density matrix=1.00D-08 within 128 cycles.
 Requested convergence on MAX density matrix=1.00D-06.
 Requested convergence on             energy=1.00D-06.
 No special actions if energy rises.
 FoFCou: FMM=F IPFlag=           0 FMFlag=           0 FMFlg1=           0
         NFxFlg=           0 DoJE=F BraDBF=F KetDBF=F FulRan=T
         wScrn=  0.000000 ICntrl=     600 IOpCl=  0 I1Cent=           0 NGrid=           0
         NMat0=    1 NMatS0=    903 NMatT0=    0 NMatD0=    1 NMtDS0=    0 NMtDT0=    0
 Petite list used in FoFCou.

 Cycle   1  Pass 1  IDiag  1:
 E= -187.565608577886    
 DIIS: error= 6.38D-02 at cycle   1 NSaved=   1.
 NSaved= 1 IEnMin= 1 EnMin= -187.565608577886     IErMin= 1 ErrMin= 6.38D-02
 ErrMax= 6.38D-02  0.00D+00 EMaxC= 1.00D-01 BMatC= 1.47D-01 BMatP= 1.47D-01
 IDIUse=3 WtCom= 3.62D-01 WtEn= 6.38D-01
 Coeff-Com:  0.100D+01
 Coeff-En:   0.100D+01
 Coeff:      0.100D+01
 Gap=     0.767 Goal=   None    Shift=    0.000
 GapD=    0.767 DampG=2.000 DampE=0.500 DampFc=1.0000 IDamp=-1.
 RMSDP=6.24D-03 MaxDP=7.77D-02              OVMax= 7.61D-02

 Cycle   2  Pass 1  IDiag  1:
 E= -187.626706884812     Delta-E=       -0.061098306926 Rises=F Damp=F
 DIIS: error= 2.42D-02 at cycle   2 NSaved=   2.
 NSaved= 2 IEnMin= 2 EnMin= -187.626706884812     IErMin= 2 ErrMin= 2.42D-02
 ErrMax= 2.42D-02  0.00D+00 EMaxC= 1.00D-01 BMatC= 2.52D-02 BMatP= 1.47D-01
 IDIUse=3 WtCom= 7.58D-01 WtEn= 2.42D-01
 Coeff-Com:  0.250D+00 0.750D+00
 Coeff-En:   0.000D+00 0.100D+01
 Coeff:      0.189D+00 0.811D+00
 Gap=     0.815 Goal=   None    Shift=    0.000
 RMSDP=2.53D-03 MaxDP=2.83D-02 DE=-6.11D-02 OVMax= 4.27D-02

 Cycle   3  Pass 1  IDiag  1:
 E= -187.642078304182     Delta-E=       -0.015371419370 Rises=F Damp=F
 DIIS: error= 7.27D-03 at cycle   3 NSaved=   3.
 NSaved= 3 IEnMin= 3 EnMin= -187.642078304182     IErMin= 3 ErrMin= 7.27D-03
 ErrMax= 7.27D-03  0.00D+00 EMaxC= 1.00D-01 BMatC= 3.00D-03 BMatP= 2.52D-02
 IDIUse=3 WtCom= 9.27D-01 WtEn= 7.27D-02
 Coeff-Com: -0.278D-01 0.220D+00 0.807D+00
 Coeff-En:   0.000D+00 0.000D+00 0.100D+01
 Coeff:     -0.258D-01 0.204D+00 0.821D+00
 Gap=     0.805 Goal=   None    Shift=    0.000
 RMSDP=6.96D-04 MaxDP=9.40D-03 DE=-1.54D-02 OVMax= 8.27D-03

 Cycle   4  Pass 1  IDiag  1:
 E= -187.643913037826     Delta-E=       -0.001834733645 Rises=F Damp=F
 DIIS: error= 9.62D-04 at cycle   4 NSaved=   4.
 NSaved= 4 IEnMin= 4 EnMin= -187.643913037826     IErMin= 4 ErrMin= 9.62D-04
 ErrMax= 9.62D-04  0.00D+00 EMaxC= 1.00D-01 BMatC= 2.05D-05 BMatP= 3.00D-03
 IDIUse=3 WtCom= 9.90D-01 WtEn= 9.62D-03
 Coeff-Com: -0.639D-02 0.390D-02 0.720D-01 0.931D+00
 Coeff-En:   0.000D+00 0.000D+00 0.000D+00 0.100D+01
 Coeff:     -0.633D-02 0.386D-02 0.713D-01 0.931D+00
 Gap=     0.806 Goal=   None    Shift=    0.000
 RMSDP=1.02D-04 MaxDP=1.50D-03 DE=-1.83D-03 OVMax= 2.09D-03

 Cycle   5  Pass 1  IDiag  1:
 E= -187.643940848177     Delta-E=       -0.000027810350 Rises=F Damp=F
 DIIS: error= 3.36D-04 at cycle   5 NSaved=   5.
 NSaved= 5 IEnMin= 5 EnMin= -187.643940848177     IErMin= 5 ErrMin= 3.36D-04
 ErrMax= 3.36D-04  0.00D+00 EMaxC= 1.00D-01 BMatC= 2.81D-06 BMatP= 2.05D-05
 IDIUse=3 WtCom= 9.97D-01 WtEn= 3.36D-03
 Coeff-Com:  0.245D-02-0.124D-01-0.747D-01-0.104D+00 0.119D+01
 Coeff-En:   0.000D+00 0.000D+00 0.000D+00 0.000D+00 0.100D+01
 Coeff:      0.244D-02-0.124D-01-0.745D-01-0.103D+00 0.119D+01
 Gap=     0.806 Goal=   None    Shift=    0.000
 RMSDP=4.75D-05 MaxDP=6.72D-04 DE=-2.78D-05 OVMax= 6.07D-04

 Cycle   6  Pass 1  IDiag  1:
 E= -187.643943825490     Delta-E=       -0.000002977313 Rises=F Damp=F
 DIIS: error= 4.25D-05 at cycle   6 NSaved=   6.
 NSaved= 6 IEnMin= 6 EnMin= -187.643943825490     IErMin= 6 ErrMin= 4.25D-05
 ErrMax= 4.25D-05  0.00D+00 EMaxC= 1.00D-01 BMatC= 3.84D-08 BMatP= 2.81D-06
 IDIUse=1 WtCom= 1.00D+00 WtEn= 0.00D+00
 Coeff-Com: -0.604D-03 0.397D-02 0.220D-01 0.188D-01-0.403D+00 0.136D+01
 Coeff:     -0.604D-03 0.397D-02 0.220D-01 0.188D-01-0.403D+00 0.136D+01
 Gap=     0.806 Goal=   None    Shift=    0.000
 RMSDP=7.17D-06 MaxDP=8.94D-05 DE=-2.98D-06 OVMax= 1.24D-04

 Cycle   7  Pass 1  IDiag  1:
 E= -187.643943895381     Delta-E=       -0.000000069891 Rises=F Damp=F
 DIIS: error= 5.36D-06 at cycle   7 NSaved=   7.
 NSaved= 7 IEnMin= 7 EnMin= -187.643943895381     IErMin= 7 ErrMin= 5.36D-06
 ErrMax= 5.36D-06  0.00D+00 EMaxC= 1.00D-01 BMatC= 5.21D-10 BMatP= 3.84D-08
 IDIUse=1 WtCom= 1.00D+00 WtEn= 0.00D+00
 Coeff-Com:  0.107D-03-0.728D-03-0.413D-02-0.343D-02 0.800D-01-0.340D+00
 Coeff-Com:  0.127D+01
 Coeff:      0.107D-03-0.728D-03-0.413D-02-0.343D-02 0.800D-01-0.340D+00
 Coeff:      0.127D+01
 Gap=     0.806 Goal=   None    Shift=    0.000
 RMSDP=8.03D-07 MaxDP=1.05D-05 DE=-6.99D-08 OVMax= 1.37D-05

 Cycle   8  Pass 1  IDiag  1:
 E= -187.643943896240     Delta-E=       -0.000000000859 Rises=F Damp=F
 DIIS: error= 6.19D-07 at cycle   8 NSaved=   8.
 NSaved= 8 IEnMin= 8 EnMin= -187.643943896240     IErMin= 8 ErrMin= 6.19D-07
 ErrMax= 6.19D-07  0.00D+00 EMaxC= 1.00D-01 BMatC= 5.87D-12 BMatP= 5.21D-10
 IDIUse=1 WtCom= 1.00D+00 WtEn= 0.00D+00
 Coeff-Com: -0.146D-04 0.982D-04 0.553D-03 0.417D-03-0.111D-01 0.522D-01
 Coeff-Com: -0.271D+00 0.123D+01
 Coeff:     -0.146D-04 0.982D-04 0.553D-03 0.417D-03-0.111D-01 0.522D-01
 Coeff:     -0.271D+00 0.123D+01
 Gap=     0.806 Goal=   None    Shift=    0.000
 RMSDP=8.91D-08 MaxDP=1.08D-06 DE=-8.59D-10 OVMax= 1.18D-06

 Cycle   9  Pass 1  IDiag  1:
 E= -187.643943896250     Delta-E=       -0.000000000009 Rises=F Damp=F
 DIIS: error= 8.73D-08 at cycle   9 NSaved=   9.
 NSaved= 9 IEnMin= 9 EnMin= -187.643943896250     IErMin= 9 ErrMin= 8.73D-08
 ErrMax= 8.73D-08  0.00D+00 EMaxC= 1.00D-01 BMatC= 3.38D-13 BMatP= 5.87D-12
 IDIUse=1 WtCom= 1.00D+00 WtEn= 0.00D+00
 Coeff-Com: -0.545D-05 0.371D-04 0.208D-03 0.163D-03-0.415D-02 0.193D-01
 Coeff-Com: -0.958D-01 0.377D+00 0.703D+00
 Coeff:     -0.545D-05 0.371D-04 0.208D-03 0.163D-03-0.415D-02 0.193D-01
 Coeff:     -0.958D-01 0.377D+00 0.703D+00
 Gap=     0.806 Goal=   None    Shift=    0.000
 RMSDP=9.85D-09 MaxDP=1.16D-07 DE=-9.09D-12 OVMax= 1.72D-07

 SCF Done:  E(RHF) =  -187.643943896     A.U. after    9 cycles
            NFock=  9  Conv=0.98D-08     -V/T= 1.9978
 KE= 1.880579513451D+02 PE=-5.667741813502D+02 EE= 1.294952695083D+02
 Leave Link  502 at Fri Jul 17 12:05:27 2020, MaxMem=  8589934592 cpu:        56.9
 (Enter /usr/local/Cluster-Apps/gaussian/g09/l801.exe)
 Windowed orbitals will be sorted by symmetry type.
 ExpMin= 1.52D-01 ExpMax= 1.17D+04 ExpMxC= 4.01D+02 IAcc=3 IRadAn=         5 AccDes= 0.00D+00
 HarFok:  IExCor=  205 AccDes= 0.00D+00 IRadAn=         5 IDoV=-2 UseB2=F ITyADJ=14
 ICtDFT= 12500011 ScaDFX=  1.000000  1.000000  1.000000  1.000000
 Largest valence mixing into a core orbital is  9.19D-05
 Largest core mixing into a valence orbital is  3.98D-05
 Range of M.O.s used for correlation:     4    42
 NBasis=    42 NAE=    11 NBE=    11 NFC=     3 NFV=     0
 NROrb=     39 NOA=     8 NOB=     8 NVA=    31 NVB=    31
 Leave Link  801 at Fri Jul 17 12:05:28 2020, MaxMem=  8589934592 cpu:        13.2
 (Enter /usr/local/Cluster-Apps/gaussian/g09/l804.exe)
 Closed-shell transformation, MDV=  8589934592 ITran=4 ISComp=2.
 Semi-Direct transformation.
 ModeAB=           2 MOrb=             8 LenV=    8589733067
 LASXX=        51462 LTotXX=       51462 LenRXX=       51462
 LTotAB=       56604 MaxLAS=      322920 LenRXY=      322920
 NonZer=      342264 LenScr=     1026048 LnRSAI=           0
 LnScr1=           0 LExtra=           0 Total=      1400430
 MaxDsk=          -1 SrtSym=           F ITran=            4
 DoSDTr:  NPSUse= 20
 JobTyp=0 Pass  1:  I=   1 to   8.
 (rs|ai) integrals will be sorted in core.
 Complete sort for first half transformation.
 First half transformation complete.
 Complete sort for second half transformation.
 Second half transformation complete.
 Spin components of T(2) and E(2):
     alpha-alpha T2 =       0.1825728713D-01 E2=     -0.6483405676D-01
     alpha-beta  T2 =       0.9150761623D-01 E2=     -0.3327537642D+00
     beta-beta   T2 =       0.1825728713D-01 E2=     -0.6483405676D-01
 ANorm=    0.1062083891D+01
 E2 =    -0.4624218778D+00 EUMP2 =    -0.18810636577401D+03
 Leave Link  804 at Fri Jul 17 12:05:33 2020, MaxMem=  8589934592 cpu:        76.2
 (Enter /usr/local/Cluster-Apps/gaussian/g09/l913.exe)
 CIDS:  MDV=  8589934592.
 Frozen-core window:  NFC=   3 NFV=   0.
 IFCWin=0 IBDFC=1 NFBD=     0     0 NFCmp=     0     0 NFFFC=     0     0
 Using DD3R+UMP44R for 1st iteration, S=T.
 Using DD4RQ for 2nd and later iterations.
 Keep R2 and R3 ints in memory in symmetry-blocked form, NReq=1232766.
 FoFCou: FMM=F IPFlag=           0 FMFlag=           0 FMFlg1=           0
         NFxFlg=           0 DoJE=F BraDBF=F KetDBF=F FulRan=T
         wScrn=  0.000000 ICntrl=     600 IOpCl=  0 I1Cent=           0 NGrid=           0
         NMat0=    1 NMatS0=    903 NMatT0=    0 NMatD0=    1 NMtDS0=    0 NMtDT0=    0
 Petite list used in FoFCou.
 CCSD(T)
 =======
 Iterations=  50 Convergence= 0.100D-06
 Iteration Nr.   1
 **********************
 DD1Dir will call FoFMem   1 times, MxPair=        72
 NAB=    36 NAA=     0 NBB=     0.
 MP4(R+Q)=  0.71132882D-02
 Maximum subspace dimension=  5
 Norm of the A-vectors is  5.4703892D-01 conv= 1.00D-05.
 RLE energy=       -0.4484321683
 E3=        0.68526699D-02        EUMP3=      -0.18809951310D+03
 E4(DQ)=   -0.24152748D-02        UMP4(DQ)=   -0.18810192838D+03
 E4(SDQ)=  -0.96645495D-02        UMP4(SDQ)=  -0.18810917765D+03
 VARIATIONAL ENERGIES WITH THE FIRST-ORDER WAVEFUNCTION:
 DE(Corr)= -0.44799618     E(Corr)=     -188.09194007    
 NORM(A)=   0.10590271D+01
 Iteration Nr.   2
 **********************
 DD1Dir will call FoFMem   1 times, MxPair=        72
 NAB=    36 NAA=     0 NBB=     0.
 Norm of the A-vectors is  2.0706178D-01 conv= 1.00D-05.
 RLE energy=       -0.4624224808
 DE(Corr)= -0.46250848     E(CORR)=     -188.10645238     Delta=-1.45D-02
 NORM(A)=   0.10642876D+01
 Iteration Nr.   3
 **********************
 DD1Dir will call FoFMem   1 times, MxPair=        72
 NAB=    36 NAA=     0 NBB=     0.
 Norm of the A-vectors is  4.9203959D-02 conv= 1.00D-05.
 RLE energy=       -0.4633641954
 DE(Corr)= -0.46192814     E(CORR)=     -188.10587204     Delta= 5.80D-04
 NORM(A)=   0.10658178D+01
 Iteration Nr.   4
 **********************
 DD1Dir will call FoFMem   1 times, MxPair=        72
 NAB=    36 NAA=     0 NBB=     0.
 Norm of the A-vectors is  1.2894690D-02 conv= 1.00D-05.
 RLE energy=       -0.4634315820
 DE(Corr)= -0.46336204     E(CORR)=     -188.10730594     Delta=-1.43D-03
 NORM(A)=   0.10661401D+01
 Iteration Nr.   5
 **********************
 DD1Dir will call FoFMem   1 times, MxPair=        72
 NAB=    36 NAA=     0 NBB=     0.
 Norm of the A-vectors is  2.8991038D-03 conv= 1.00D-05.
 RLE energy=       -0.4634513473
 DE(Corr)= -0.46344241     E(CORR)=     -188.10738631     Delta=-8.04D-05
 NORM(A)=   0.10661911D+01
 Iteration Nr.   6
 **********************
 DD1Dir will call FoFMem   1 times, MxPair=        72
 NAB=    36 NAA=     0 NBB=     0.
 Norm of the A-vectors is  8.6506856D-04 conv= 1.00D-05.
 RLE energy=       -0.4634426681
 DE(Corr)= -0.46344656     E(CORR)=     -188.10739046     Delta=-4.15D-06
 NORM(A)=   0.10661926D+01
 Iteration Nr.   7
 **********************
 DD1Dir will call FoFMem   1 times, MxPair=        72
 NAB=    36 NAA=     0 NBB=     0.
 Norm of the A-vectors is  3.2487788D-04 conv= 1.00D-05.
 RLE energy=       -0.4634458540
 DE(Corr)= -0.46344679     E(CORR)=     -188.10739069     Delta=-2.29D-07
 NORM(A)=   0.10661934D+01
 Iteration Nr.   8
 **********************
 DD1Dir will call FoFMem   1 times, MxPair=        72
 NAB=    36 NAA=     0 NBB=     0.
 Norm of the A-vectors is  7.3574316D-05 conv= 1.00D-05.
 RLE energy=       -0.4634456487
 DE(Corr)= -0.46344578     E(CORR)=     -188.10738968     Delta= 1.01D-06
 NORM(A)=   0.10661938D+01
 Iteration Nr.   9
 **********************
 DD1Dir will call FoFMem   1 times, MxPair=        72
 NAB=    36 NAA=     0 NBB=     0.
 Norm of the A-vectors is  2.4033404D-05 conv= 1.00D-05.
 RLE energy=       -0.4634465253
 DE(Corr)= -0.46344653     E(CORR)=     -188.10739042     Delta=-7.45D-07
 NORM(A)=   0.10661940D+01
 Iteration Nr.  10
 **********************
 DD1Dir will call FoFMem   1 times, MxPair=        72
 NAB=    36 NAA=     0 NBB=     0.
 Norm of the A-vectors is  7.4116422D-06 conv= 1.00D-05.
 RLE energy=       -0.4634463986
 DE(Corr)= -0.46344634     E(CORR)=     -188.10739024     Delta= 1.84D-07
 NORM(A)=   0.10661941D+01
 Iteration Nr.  11
 **********************
 DD1Dir will call FoFMem   1 times, MxPair=        72
 NAB=    36 NAA=     0 NBB=     0.
 Norm of the A-vectors is  2.2853910D-06 conv= 1.00D-05.
 RLE energy=       -0.4634464695
 DE(Corr)= -0.46344646     E(CORR)=     -188.10739036     Delta=-1.23D-07
 NORM(A)=   0.10661941D+01
 Iteration Nr.  12
 **********************
 DD1Dir will call FoFMem   1 times, MxPair=        72
 NAB=    36 NAA=     0 NBB=     0.
 Norm of the A-vectors is  8.6075860D-07 conv= 1.00D-05.
 RLE energy=       -0.4634464697
 DE(Corr)= -0.46344646     E(CORR)=     -188.10739036     Delta=-2.53D-10
 NORM(A)=   0.10661941D+01
 CI/CC converged in   12 iterations to DelEn=-2.53D-10 Conv= 1.00D-07 ErrA1= 8.61D-07 Conv= 1.00D-05
 Largest amplitude= 6.48D-02
 IPart=  7 IA=    3   12.69% done.
 IPart=  4 IA=    5   24.52% done.
 IPart=  3 IA=    6   30.11% done.
 IPart=  8 IA=    8   40.65% done.
 IPart= 10 IA=   10   50.32% done.
 IPart= 13 IA=   13   63.23% done.
 IPart= 20 IA=   15   70.75% done.
 IPart= 16 IA=   18   80.43% done.
 IPart= 19 IA=   22   90.32% done.
 Time for triples=        8.04 seconds.
 T4(CCSD)= -0.16692695D-01
 T5(CCSD)=  0.15279912D-02
 CCSD(T)= -0.18812255506D+03
 Discarding MO integrals.
 Leave Link  913 at Fri Jul 17 12:06:27 2020, MaxMem=  8589934592 cpu:       853.4
 (Enter /usr/local/Cluster-Apps/gaussian/g09/l601.exe)
 Copying SCF densities to generalized density rwf, IOpCl= 0 IROHF=0.

 **********************************************************************

            Population analysis using the SCF density.

 **********************************************************************

 Orbital symmetries:
       Occupied  (SG) (SG) (SG) (SG) (SG) (SG) (SG) (PI) (PI) (PI)
                 (PI)
       Virtual   (PI) (PI) (SG) (SG) (PI) (PI) (SG) (SG) (SG) (PI)
                 (PI) (DLTA) (DLTA) (PI) (PI) (SG) (PI) (PI) (SG)
                 (SG) (DLTA) (DLTA) (DLTA) (DLTA) (PI) (PI) (SG)
                 (SG) (PI) (PI) (SG)
 The electronic state is 1-SG.
 Alpha  occ. eigenvalues --  -20.63470 -20.63467 -11.43887  -1.56304  -1.50953
 Alpha  occ. eigenvalues --   -0.78681  -0.74607  -0.73586  -0.73586  -0.53871
 Alpha  occ. eigenvalues --   -0.53871
 Alpha virt. eigenvalues --    0.26755   0.26755   0.26919   0.48967   0.59589
 Alpha virt. eigenvalues --    0.59589   0.83943   1.00854   1.06043   1.10017
 Alpha virt. eigenvalues --    1.10017   1.25412   1.25412   1.39443   1.39443
 Alpha virt. eigenvalues --    1.64416   1.67689   1.67689   1.90465   2.31389
 Alpha virt. eigenvalues --    2.86714   2.86714   3.05439   3.05439   3.20847
 Alpha virt. eigenvalues --    3.20847   3.37893   3.79076   3.99256   3.99256
 Alpha virt. eigenvalues --    4.07042
          Condensed to atoms (all electrons):
               1          2          3
     1  C    3.911121   0.810488   0.810496
     2  O    0.810488   7.450430  -0.026963
     3  O    0.810496  -0.026963   7.450408
 Mulliken charges:
               1
     1  C    0.467895
     2  O   -0.233955
     3  O   -0.233940
 Sum of Mulliken charges =   0.00000
 Mulliken charges with hydrogens summed into heavy atoms:
               1
     1  C    0.467895
     2  O   -0.233955
     3  O   -0.233940
 Electronic spatial extent (au):  <R**2>=            104.5988
 Charge=              0.0000 electrons
 Dipole moment (field-independent basis, Debye):
    X=              0.0000    Y=              0.0000    Z=             -0.0001  Tot=              0.0001
 Quadrupole moment (field-independent basis, Debye-Ang):
   XX=            -14.1909   YY=            -14.1909   ZZ=            -19.3171
   XY=              0.0000   XZ=              0.0000   YZ=              0.0000
 Traceless Quadrupole moment (field-independent basis, Debye-Ang):
   XX=              1.7087   YY=              1.7087   ZZ=             -3.4175
   XY=              0.0000   XZ=              0.0000   YZ=              0.0000
 Octapole moment (field-independent basis, Debye-Ang**2):
  XXX=              0.0000  YYY=              0.0000  ZZZ=             -0.0001  XYY=              0.0000
  XXY=              0.0000  XXZ=              0.0000  XZZ=              0.0000  YZZ=              0.0000
  YYZ=              0.0000  XYZ=              0.0000
 Hexadecapole moment (field-independent basis, Debye-Ang**3):
 XXXX=             -9.9217 YYYY=             -9.9217 ZZZZ=            -91.4827 XXXY=              0.0000
 XXXZ=              0.0000 YYYX=              0.0000 YYYZ=              0.0000 ZZZX=              0.0000
 ZZZY=              0.0000 XXYY=             -3.3072 XXZZ=            -16.4193 YYZZ=            -16.4193
 XXYZ=              0.0000 YYXZ=              0.0000 ZZXY=              0.0000
 N-N= 6.157701660058D+01 E-N=-5.667741813614D+02  KE= 1.880579513451D+02
 Symmetry A1   KE= 1.711842824362D+02
 Symmetry A2   KE= 3.433947978244D-37
 Symmetry B1   KE= 8.436834454475D+00
 Symmetry B2   KE= 8.436834454475D+00
 Leave Link  601 at Fri Jul 17 12:06:28 2020, MaxMem=  8589934592 cpu:         5.0
 (Enter /usr/local/Cluster-Apps/gaussian/g09/l9999.exe)
 1\1\GINC-CPU-G-4\SP\RCCSD(T)-FC\CC-pVDZ\C1O2\AM2145\17-Jul-2020\0\\#p 
 CCSD(T)/cc-pVDZ\\co2_backup\\0,1\C,0,-3.55536,-0.51345,0.\O,0,-4.65534
 ,-0.52079,0.\O,0,-2.45539,-0.50613,0.\\Version=ES64L-G09RevD.01\State=
 1-SG\HF=-187.6439439\MP2=-188.1063658\MP3=-188.0995131\MP4D=-188.10904
 17\MP4DQ=-188.1019284\MP4SDQ=-188.1091777\CCSD=-188.1073904\CCSD(T)=-1
 88.1225551\RMSD=9.845e-09\PG=C*V [C*(O1C1O1)]\\@


 THE FIRST AND LAST THING REQUIRED OF GENIUS IS THE LOVE OF TRUTH.

                          -- GOETHE
 Job cpu time:       0 days  0 hours 17 minutes 33.1 seconds.
 File lengths (MBytes):  RWF=     17 Int=      0 D2E=      0 Chk=      1 Scr=      1
 Normal termination of Gaussian 09 at Fri Jul 17 12:06:28 2020.
