 Entering Gaussian System, Link 0=g09
 Input=freq-b971_1055-23-8.gau
 Output=freq-b971_1055-23-8.log
 Initial command:
 /opt/g09/l1.exe "/scratch/pb556/g09_run/add_hco//Gau-12050.inp" -scrdir="/scratch/pb556/g09_run/add_hco//"
 Entering Link 1 = /opt/g09/l1.exe PID=     12059.
  
 Copyright (c) 1988,1990,1992,1993,1995,1998,2003,2009,2013,
            Gaussian, Inc.  All Rights Reserved.
  
 This is part of the Gaussian(R) 09 program.  It is based on
 the Gaussian(R) 03 system (copyright 2003, Gaussian, Inc.),
 the Gaussian(R) 98 system (copyright 1998, Gaussian, Inc.),
 the Gaussian(R) 94 system (copyright 1995, Gaussian, Inc.),
 the Gaussian 92(TM) system (copyright 1992, Gaussian, Inc.),
 the Gaussian 90(TM) system (copyright 1990, Gaussian, Inc.),
 the Gaussian 88(TM) system (copyright 1988, Gaussian, Inc.),
 the Gaussian 86(TM) system (copyright 1986, Carnegie Mellon
 University), and the Gaussian 82(TM) system (copyright 1983,
 Carnegie Mellon University). Gaussian is a federally registered
 trademark of Gaussian, Inc.
  
 This software contains proprietary and confidential information,
 including trade secrets, belonging to Gaussian, Inc.
  
 This software is provided under written license and may be
 used, copied, transmitted, or stored only in accord with that
 written license.
  
 The following legend is applicable only to US Government
 contracts under FAR:
  
                    RESTRICTED RIGHTS LEGEND
  
 Use, reproduction and disclosure by the US Government is
 subject to restrictions as set forth in subparagraphs (a)
 and (c) of the Commercial Computer Software - Restricted
 Rights clause in FAR 52.227-19.
  
 Gaussian, Inc.
 340 Quinnipiac St., Bldg. 40, Wallingford CT 06492
  
  
 ---------------------------------------------------------------
 Warning -- This program may not be used in any manner that
 competes with the business of Gaussian, Inc. or will provide
 assistance to any competitor of Gaussian, Inc.  The licensee
 of this program is prohibited from giving any competitor of
 Gaussian, Inc. access to this program.  By using this program,
 the user acknowledges that Gaussian, Inc. is engaged in the
 business of creating and licensing software in the field of
 computational chemistry and represents and warrants to the
 licensee that it is not a competitor of Gaussian, Inc. and that
 it will not use this program in any manner prohibited above.
 ---------------------------------------------------------------
  

 Cite this work as:
 Gaussian 09, Revision D.01,
 M. J. Frisch, G. W. Trucks, H. B. Schlegel, G. E. Scuseria, 
 M. A. Robb, J. R. Cheeseman, G. Scalmani, V. Barone, B. Mennucci, 
 G. A. Petersson, H. Nakatsuji, M. Caricato, X. Li, H. P. Hratchian, 
 A. F. Izmaylov, J. Bloino, G. Zheng, J. L. Sonnenberg, M. Hada, 
 M. Ehara, K. Toyota, R. Fukuda, J. Hasegawa, M. Ishida, T. Nakajima, 
 Y. Honda, O. Kitao, H. Nakai, T. Vreven, J. A. Montgomery, Jr., 
 J. E. Peralta, F. Ogliaro, M. Bearpark, J. J. Heyd, E. Brothers, 
 K. N. Kudin, V. N. Staroverov, T. Keith, R. Kobayashi, J. Normand, 
 K. Raghavachari, A. Rendell, J. C. Burant, S. S. Iyengar, J. Tomasi, 
 M. Cossi, N. Rega, J. M. Millam, M. Klene, J. E. Knox, J. B. Cross, 
 V. Bakken, C. Adamo, J. Jaramillo, R. Gomperts, R. E. Stratmann, 
 O. Yazyev, A. J. Austin, R. Cammi, C. Pomelli, J. W. Ochterski, 
 R. L. Martin, K. Morokuma, V. G. Zakrzewski, G. A. Voth, 
 P. Salvador, J. J. Dannenberg, S. Dapprich, A. D. Daniels, 
 O. Farkas, J. B. Foresman, J. V. Ortiz, J. Cioslowski, 
 and D. J. Fox, Gaussian, Inc., Wallingford CT, 2013.
 
 ******************************************
 Gaussian 09:  ES64L-G09RevD.01 24-Apr-2013
                19-Feb-2015 
 ******************************************
 %NProcShared=8
 Will use up to    8 processors via shared memory.
 %Mem=500MW
 ----------------------------------------------------------------------
 #p rB971/6-311+G(d,p) Opt=(Tight, CalcAll) Freq GFInput Population=Non
 e Integral(Grid=UltraFine) Guess=MIX NoSymmetry
 ----------------------------------------------------------------------
 1/7=10,10=4,14=-1,18=20,19=15,26=4,38=1/1,3;
 2/9=110,12=2,15=1,17=6,18=5,40=1/2;
 3/5=4,6=6,7=111,11=2,16=1,24=10,25=1,30=1,71=2,74=-20,75=-5,116=1,140=1/1,2,3;
 4/13=-1/1;
 5/5=2,38=5/2;
 8/6=4,10=90,11=11/1;
 11/6=1,8=1,9=11,15=111,16=1,31=1/1,2,10;
 10/6=1,31=1/2;
 7/10=1,25=1,30=1/1,2,3,16;
 1/7=10,10=4,14=-1,18=20,19=15,26=4/3(3);
 2/9=110,15=1/2;
 7/8=1,9=1,25=1,30=1,44=-1/16;
 99//99;
 2/9=110,15=1/2;
 3/5=4,6=6,7=111,11=2,16=1,25=1,30=1,71=2,74=-20,75=-5,116=1,140=1/1,2,3;
 4/5=5,16=3,69=1/1;
 5/5=2,38=5/2;
 8/6=4,10=90,11=11/1;
 11/6=1,8=1,9=11,15=111,16=1,31=1/1,2,10;
 10/6=1,31=1/2;
 7/10=1,25=1,30=1/1,2,3,16;
 1/7=10,10=4,14=-1,18=20,19=15,26=4/3(-8);
 2/9=110,15=1/2;
 7/8=1,9=1,25=1,30=1,44=-1/16;
 99//99;
 Leave Link    1 at Thu Feb 19 19:30:50 2015, MaxMem=   524288000 cpu:         0.6
 (Enter /opt/g09/l101.exe)
 -----------------------
 freq-b971_1055-23-8.gau
 -----------------------
 Symbolic Z-matrix:
 Charge =  0 Multiplicity = 1
 C                     6.03757   4.17689   5.62195 
 C                     6.1949    3.17264   6.60572 
 C                     6.72394   5.40765   5.74536 
 C                     5.13963   3.93573   4.44246 
 C                     7.06149   3.40933   7.73895 
 C                     5.52088   1.90906   6.52621 
 C                     7.58822   5.63521   6.8822 
 C                     6.59748   6.45669   4.77542 
 C                     5.66454   3.35611   3.26363 
 C                     3.77182   4.28948   4.51339 
 C                     7.73409   4.63198   7.84722 
 C                     7.21049   2.38236   8.72644 
 C                     5.6913    0.9528    7.49377 
 C                     8.27637   6.88669   6.9927 
 C                     7.27427   7.64027   4.9193 
 C                     4.7963    3.12632   2.13023 
 C                     7.04348   2.98061   3.14214 
 C                     2.91139   4.05602   3.3748 
 C                     3.19229   4.87967   5.68518 
 C                     6.54718   1.18979   8.61021 
 C                     8.12605   7.86116   6.04215 
 C                     3.44518   3.48164   2.2154 
 C                     5.34299   2.53862   0.94375 
 C                     7.52639   2.42049   1.98772 
 C                     1.52872   4.4201    3.46225 
 C                     1.86321   5.21344   5.72718 
 C                     6.66684   2.19519   0.87168 
 C                     1.01745   4.98174   4.60194 
 H                     4.86751   1.71814   5.68133 
 H                     5.95232   6.29939   3.91739 
 H                     8.38515   4.80652   8.70105 
 H                     7.86453   2.57162   9.5737 
 H                     5.17064   0.00323   7.41278 
 H                     8.92323   7.04625   7.85151 
 H                     7.16324   8.4206    4.17224 
 H                     7.7062    3.1475    3.98484 
 H                     3.82646   5.06034   6.5468 
 H                     6.66888   0.41956   9.36593 
 H                     8.65349   8.80552   6.13788 
 H                     2.79502   3.3075    1.3608 
 H                     4.68079   2.3707    0.09833 
 H                     8.57429   2.14399   1.9184 
 H                     0.89175   4.23997   2.60012 
 H                     1.44609   5.65936   6.62523 
 H                     7.06867   1.75037  -0.03378 
 H                    -0.03262   5.25324   4.65513 
 
 NAtoms=     46 NQM=       46 NQMF=       0 NMMI=      0 NMMIF=      0
                NMic=       0 NMicF=      0.
                    Isotopes and Nuclear Properties:
 (Nuclear quadrupole moments (NQMom) in fm**2, nuclear magnetic moments (NMagM)
  in nuclear magnetons)

  Atom         1           2           3           4           5           6           7           8           9          10
 IAtWgt=          12          12          12          12          12          12          12          12          12          12
 AtmWgt=  12.0000000  12.0000000  12.0000000  12.0000000  12.0000000  12.0000000  12.0000000  12.0000000  12.0000000  12.0000000
 NucSpn=           0           0           0           0           0           0           0           0           0           0
 AtZEff=   0.0000000   0.0000000   0.0000000   0.0000000   0.0000000   0.0000000   0.0000000   0.0000000   0.0000000   0.0000000
 NQMom=    0.0000000   0.0000000   0.0000000   0.0000000   0.0000000   0.0000000   0.0000000   0.0000000   0.0000000   0.0000000
 NMagM=    0.0000000   0.0000000   0.0000000   0.0000000   0.0000000   0.0000000   0.0000000   0.0000000   0.0000000   0.0000000
 AtZNuc=   6.0000000   6.0000000   6.0000000   6.0000000   6.0000000   6.0000000   6.0000000   6.0000000   6.0000000   6.0000000

  Atom        11          12          13          14          15          16          17          18          19          20
 IAtWgt=          12          12          12          12          12          12          12          12          12          12
 AtmWgt=  12.0000000  12.0000000  12.0000000  12.0000000  12.0000000  12.0000000  12.0000000  12.0000000  12.0000000  12.0000000
 NucSpn=           0           0           0           0           0           0           0           0           0           0
 AtZEff=   0.0000000   0.0000000   0.0000000   0.0000000   0.0000000   0.0000000   0.0000000   0.0000000   0.0000000   0.0000000
 NQMom=    0.0000000   0.0000000   0.0000000   0.0000000   0.0000000   0.0000000   0.0000000   0.0000000   0.0000000   0.0000000
 NMagM=    0.0000000   0.0000000   0.0000000   0.0000000   0.0000000   0.0000000   0.0000000   0.0000000   0.0000000   0.0000000
 AtZNuc=   6.0000000   6.0000000   6.0000000   6.0000000   6.0000000   6.0000000   6.0000000   6.0000000   6.0000000   6.0000000

  Atom        21          22          23          24          25          26          27          28          29          30
 IAtWgt=          12          12          12          12          12          12          12          12           1           1
 AtmWgt=  12.0000000  12.0000000  12.0000000  12.0000000  12.0000000  12.0000000  12.0000000  12.0000000   1.0078250   1.0078250
 NucSpn=           0           0           0           0           0           0           0           0           1           1
 AtZEff=   0.0000000   0.0000000   0.0000000   0.0000000   0.0000000   0.0000000   0.0000000   0.0000000   0.0000000   0.0000000
 NQMom=    0.0000000   0.0000000   0.0000000   0.0000000   0.0000000   0.0000000   0.0000000   0.0000000   0.0000000   0.0000000
 NMagM=    0.0000000   0.0000000   0.0000000   0.0000000   0.0000000   0.0000000   0.0000000   0.0000000   2.7928460   2.7928460
 AtZNuc=   6.0000000   6.0000000   6.0000000   6.0000000   6.0000000   6.0000000   6.0000000   6.0000000   1.0000000   1.0000000

  Atom        31          32          33          34          35          36          37          38          39          40
 IAtWgt=           1           1           1           1           1           1           1           1           1           1
 AtmWgt=   1.0078250   1.0078250   1.0078250   1.0078250   1.0078250   1.0078250   1.0078250   1.0078250   1.0078250   1.0078250
 NucSpn=           1           1           1           1           1           1           1           1           1           1
 AtZEff=   0.0000000   0.0000000   0.0000000   0.0000000   0.0000000   0.0000000   0.0000000   0.0000000   0.0000000   0.0000000
 NQMom=    0.0000000   0.0000000   0.0000000   0.0000000   0.0000000   0.0000000   0.0000000   0.0000000   0.0000000   0.0000000
 NMagM=    2.7928460   2.7928460   2.7928460   2.7928460   2.7928460   2.7928460   2.7928460   2.7928460   2.7928460   2.7928460
 AtZNuc=   1.0000000   1.0000000   1.0000000   1.0000000   1.0000000   1.0000000   1.0000000   1.0000000   1.0000000   1.0000000

  Atom        41          42          43          44          45          46
 IAtWgt=           1           1           1           1           1           1
 AtmWgt=   1.0078250   1.0078250   1.0078250   1.0078250   1.0078250   1.0078250
 NucSpn=           1           1           1           1           1           1
 AtZEff=   0.0000000   0.0000000   0.0000000   0.0000000   0.0000000   0.0000000
 NQMom=    0.0000000   0.0000000   0.0000000   0.0000000   0.0000000   0.0000000
 NMagM=    2.7928460   2.7928460   2.7928460   2.7928460   2.7928460   2.7928460
 AtZNuc=   1.0000000   1.0000000   1.0000000   1.0000000   1.0000000   1.0000000
 Leave Link  101 at Thu Feb 19 19:30:51 2015, MaxMem=   524288000 cpu:         2.1
 (Enter /opt/g09/l103.exe)

 GradGradGradGradGradGradGradGradGradGradGradGradGradGradGradGradGradGrad
 Berny optimization.
 Initialization pass.
                           ----------------------------
                           !    Initial Parameters    !
                           ! (Angstroms and Degrees)  !
 --------------------------                            --------------------------
 ! Name  Definition              Value          Derivative Info.                !
 --------------------------------------------------------------------------------
 ! R1    R(1,2)                  1.4146         calculate D2E/DX2 analytically  !
 ! R2    R(1,3)                  1.4146         calculate D2E/DX2 analytically  !
 ! R3    R(1,4)                  1.5019         calculate D2E/DX2 analytically  !
 ! R4    R(2,5)                  1.4461         calculate D2E/DX2 analytically  !
 ! R5    R(2,6)                  1.4343         calculate D2E/DX2 analytically  !
 ! R6    R(3,7)                  1.4461         calculate D2E/DX2 analytically  !
 ! R7    R(3,8)                  1.4343         calculate D2E/DX2 analytically  !
 ! R8    R(4,9)                  1.4146         calculate D2E/DX2 analytically  !
 ! R9    R(4,10)                 1.4146         calculate D2E/DX2 analytically  !
 ! R10   R(5,11)                 1.3996         calculate D2E/DX2 analytically  !
 ! R11   R(5,12)                 1.4325         calculate D2E/DX2 analytically  !
 ! R12   R(6,13)                 1.371          calculate D2E/DX2 analytically  !
 ! R13   R(6,29)                 1.085          calculate D2E/DX2 analytically  !
 ! R14   R(7,11)                 1.3996         calculate D2E/DX2 analytically  !
 ! R15   R(7,14)                 1.4325         calculate D2E/DX2 analytically  !
 ! R16   R(8,15)                 1.371          calculate D2E/DX2 analytically  !
 ! R17   R(8,30)                 1.085          calculate D2E/DX2 analytically  !
 ! R18   R(9,16)                 1.4461         calculate D2E/DX2 analytically  !
 ! R19   R(9,17)                 1.4343         calculate D2E/DX2 analytically  !
 ! R20   R(10,18)                1.4461         calculate D2E/DX2 analytically  !
 ! R21   R(10,19)                1.4343         calculate D2E/DX2 analytically  !
 ! R22   R(11,31)                1.0878         calculate D2E/DX2 analytically  !
 ! R23   R(12,20)                1.3696         calculate D2E/DX2 analytically  !
 ! R24   R(12,32)                1.0869         calculate D2E/DX2 analytically  !
 ! R25   R(13,20)                1.4266         calculate D2E/DX2 analytically  !
 ! R26   R(13,33)                1.086          calculate D2E/DX2 analytically  !
 ! R27   R(14,21)                1.3696         calculate D2E/DX2 analytically  !
 ! R28   R(14,34)                1.0869         calculate D2E/DX2 analytically  !
 ! R29   R(15,21)                1.4266         calculate D2E/DX2 analytically  !
 ! R30   R(15,35)                1.086          calculate D2E/DX2 analytically  !
 ! R31   R(16,22)                1.3997         calculate D2E/DX2 analytically  !
 ! R32   R(16,23)                1.4325         calculate D2E/DX2 analytically  !
 ! R33   R(17,24)                1.371          calculate D2E/DX2 analytically  !
 ! R34   R(17,36)                1.085          calculate D2E/DX2 analytically  !
 ! R35   R(18,22)                1.3997         calculate D2E/DX2 analytically  !
 ! R36   R(18,25)                1.4325         calculate D2E/DX2 analytically  !
 ! R37   R(19,26)                1.371          calculate D2E/DX2 analytically  !
 ! R38   R(19,37)                1.085          calculate D2E/DX2 analytically  !
 ! R39   R(20,38)                1.0859         calculate D2E/DX2 analytically  !
 ! R40   R(21,39)                1.0859         calculate D2E/DX2 analytically  !
 ! R41   R(22,40)                1.0878         calculate D2E/DX2 analytically  !
 ! R42   R(23,27)                1.3696         calculate D2E/DX2 analytically  !
 ! R43   R(23,41)                1.0869         calculate D2E/DX2 analytically  !
 ! R44   R(24,27)                1.4266         calculate D2E/DX2 analytically  !
 ! R45   R(24,42)                1.086          calculate D2E/DX2 analytically  !
 ! R46   R(25,28)                1.3696         calculate D2E/DX2 analytically  !
 ! R47   R(25,43)                1.0869         calculate D2E/DX2 analytically  !
 ! R48   R(26,28)                1.4266         calculate D2E/DX2 analytically  !
 ! R49   R(26,44)                1.086          calculate D2E/DX2 analytically  !
 ! R50   R(27,45)                1.0859         calculate D2E/DX2 analytically  !
 ! R51   R(28,46)                1.0859         calculate D2E/DX2 analytically  !
 ! A1    A(2,1,3)              120.2003         calculate D2E/DX2 analytically  !
 ! A2    A(2,1,4)              119.9116         calculate D2E/DX2 analytically  !
 ! A3    A(3,1,4)              119.8881         calculate D2E/DX2 analytically  !
 ! A4    A(1,2,5)              119.6984         calculate D2E/DX2 analytically  !
 ! A5    A(1,2,6)              122.3167         calculate D2E/DX2 analytically  !
 ! A6    A(5,2,6)              117.9849         calculate D2E/DX2 analytically  !
 ! A7    A(1,3,7)              119.7018         calculate D2E/DX2 analytically  !
 ! A8    A(1,3,8)              122.3141         calculate D2E/DX2 analytically  !
 ! A9    A(7,3,8)              117.9841         calculate D2E/DX2 analytically  !
 ! A10   A(1,4,9)              119.8933         calculate D2E/DX2 analytically  !
 ! A11   A(1,4,10)             119.9055         calculate D2E/DX2 analytically  !
 ! A12   A(9,4,10)             120.2013         calculate D2E/DX2 analytically  !
 ! A13   A(2,5,11)             119.444          calculate D2E/DX2 analytically  !
 ! A14   A(2,5,12)             119.0257         calculate D2E/DX2 analytically  !
 ! A15   A(11,5,12)            121.5303         calculate D2E/DX2 analytically  !
 ! A16   A(2,6,13)             121.1264         calculate D2E/DX2 analytically  !
 ! A17   A(2,6,29)             118.7623         calculate D2E/DX2 analytically  !
 ! A18   A(13,6,29)            120.1113         calculate D2E/DX2 analytically  !
 ! A19   A(3,7,11)             119.4408         calculate D2E/DX2 analytically  !
 ! A20   A(3,7,14)             119.0282         calculate D2E/DX2 analytically  !
 ! A21   A(11,7,14)            121.531          calculate D2E/DX2 analytically  !
 ! A22   A(3,8,15)             121.1257         calculate D2E/DX2 analytically  !
 ! A23   A(3,8,30)             118.7622         calculate D2E/DX2 analytically  !
 ! A24   A(15,8,30)            120.1121         calculate D2E/DX2 analytically  !
 ! A25   A(4,9,16)             119.6992         calculate D2E/DX2 analytically  !
 ! A26   A(4,9,17)             122.3163         calculate D2E/DX2 analytically  !
 ! A27   A(16,9,17)            117.9845         calculate D2E/DX2 analytically  !
 ! A28   A(4,10,18)            119.7007         calculate D2E/DX2 analytically  !
 ! A29   A(4,10,19)            122.3131         calculate D2E/DX2 analytically  !
 ! A30   A(18,10,19)           117.9862         calculate D2E/DX2 analytically  !
 ! A31   A(5,11,7)             121.5148         calculate D2E/DX2 analytically  !
 ! A32   A(5,11,31)            119.241          calculate D2E/DX2 analytically  !
 ! A33   A(7,11,31)            119.2443         calculate D2E/DX2 analytically  !
 ! A34   A(5,12,20)            121.0232         calculate D2E/DX2 analytically  !
 ! A35   A(5,12,32)            118.3662         calculate D2E/DX2 analytically  !
 ! A36   A(20,12,32)           120.6106         calculate D2E/DX2 analytically  !
 ! A37   A(6,13,20)            120.7312         calculate D2E/DX2 analytically  !
 ! A38   A(6,13,33)            119.845          calculate D2E/DX2 analytically  !
 ! A39   A(20,13,33)           119.4239         calculate D2E/DX2 analytically  !
 ! A40   A(7,14,21)            121.0209         calculate D2E/DX2 analytically  !
 ! A41   A(7,14,34)            118.3653         calculate D2E/DX2 analytically  !
 ! A42   A(21,14,34)           120.6138         calculate D2E/DX2 analytically  !
 ! A43   A(8,15,21)            120.7322         calculate D2E/DX2 analytically  !
 ! A44   A(8,15,35)            119.8456         calculate D2E/DX2 analytically  !
 ! A45   A(21,15,35)           119.4222         calculate D2E/DX2 analytically  !
 ! A46   A(9,16,22)            119.4422         calculate D2E/DX2 analytically  !
 ! A47   A(9,16,23)            119.0269         calculate D2E/DX2 analytically  !
 ! A48   A(22,16,23)           121.5309         calculate D2E/DX2 analytically  !
 ! A49   A(9,17,24)            121.1257         calculate D2E/DX2 analytically  !
 ! A50   A(9,17,36)            118.7621         calculate D2E/DX2 analytically  !
 ! A51   A(24,17,36)           120.1122         calculate D2E/DX2 analytically  !
 ! A52   A(10,18,22)           119.4412         calculate D2E/DX2 analytically  !
 ! A53   A(10,18,25)           119.0264         calculate D2E/DX2 analytically  !
 ! A54   A(22,18,25)           121.5324         calculate D2E/DX2 analytically  !
 ! A55   A(10,19,26)           121.1243         calculate D2E/DX2 analytically  !
 ! A56   A(10,19,37)           118.7593         calculate D2E/DX2 analytically  !
 ! A57   A(26,19,37)           120.1164         calculate D2E/DX2 analytically  !
 ! A58   A(12,20,13)           120.1086         calculate D2E/DX2 analytically  !
 ! A59   A(12,20,38)           120.2845         calculate D2E/DX2 analytically  !
 ! A60   A(13,20,38)           119.6069         calculate D2E/DX2 analytically  !
 ! A61   A(14,21,15)           120.1089         calculate D2E/DX2 analytically  !
 ! A62   A(14,21,39)           120.2834         calculate D2E/DX2 analytically  !
 ! A63   A(15,21,39)           119.6077         calculate D2E/DX2 analytically  !
 ! A64   A(16,22,18)           121.5155         calculate D2E/DX2 analytically  !
 ! A65   A(16,22,40)           119.242          calculate D2E/DX2 analytically  !
 ! A66   A(18,22,40)           119.2425         calculate D2E/DX2 analytically  !
 ! A67   A(16,23,27)           121.0217         calculate D2E/DX2 analytically  !
 ! A68   A(16,23,41)           118.3659         calculate D2E/DX2 analytically  !
 ! A69   A(27,23,41)           120.6123         calculate D2E/DX2 analytically  !
 ! A70   A(17,24,27)           120.7325         calculate D2E/DX2 analytically  !
 ! A71   A(17,24,42)           119.8448         calculate D2E/DX2 analytically  !
 ! A72   A(27,24,42)           119.4228         calculate D2E/DX2 analytically  !
 ! A73   A(18,25,28)           121.0213         calculate D2E/DX2 analytically  !
 ! A74   A(18,25,43)           118.3661         calculate D2E/DX2 analytically  !
 ! A75   A(28,25,43)           120.6126         calculate D2E/DX2 analytically  !
 ! A76   A(19,26,28)           120.7322         calculate D2E/DX2 analytically  !
 ! A77   A(19,26,44)           119.8451         calculate D2E/DX2 analytically  !
 ! A78   A(28,26,44)           119.4227         calculate D2E/DX2 analytically  !
 ! A79   A(23,27,24)           120.1087         calculate D2E/DX2 analytically  !
 ! A80   A(23,27,45)           120.2839         calculate D2E/DX2 analytically  !
 ! A81   A(24,27,45)           119.6074         calculate D2E/DX2 analytically  !
 ! A82   A(25,28,26)           120.1096         calculate D2E/DX2 analytically  !
 ! A83   A(25,28,46)           120.2834         calculate D2E/DX2 analytically  !
 ! A84   A(26,28,46)           119.607          calculate D2E/DX2 analytically  !
 ! D1    D(3,1,2,5)             -0.0231         calculate D2E/DX2 analytically  !
 ! D2    D(3,1,2,6)            179.9794         calculate D2E/DX2 analytically  !
 ! D3    D(4,1,2,5)            179.95           calculate D2E/DX2 analytically  !
 ! D4    D(4,1,2,6)             -0.0475         calculate D2E/DX2 analytically  !
 ! D5    D(2,1,3,7)              0.0156         calculate D2E/DX2 analytically  !
 ! D6    D(2,1,3,8)           -179.9896         calculate D2E/DX2 analytically  !
 ! D7    D(4,1,3,7)           -179.9575         calculate D2E/DX2 analytically  !
 ! D8    D(4,1,3,8)              0.0373         calculate D2E/DX2 analytically  !
 ! D9    D(2,1,4,9)            -89.9125         calculate D2E/DX2 analytically  !
 ! D10   D(2,1,4,10)            90.1207         calculate D2E/DX2 analytically  !
 ! D11   D(3,1,4,9)             90.0607         calculate D2E/DX2 analytically  !
 ! D12   D(3,1,4,10)           -89.9061         calculate D2E/DX2 analytically  !
 ! D13   D(1,2,5,11)             0.0144         calculate D2E/DX2 analytically  !
 ! D14   D(1,2,5,12)          -179.9865         calculate D2E/DX2 analytically  !
 ! D15   D(6,2,5,11)          -179.988          calculate D2E/DX2 analytically  !
 ! D16   D(6,2,5,12)             0.0111         calculate D2E/DX2 analytically  !
 ! D17   D(1,2,6,13)           179.9917         calculate D2E/DX2 analytically  !
 ! D18   D(1,2,6,29)            -0.0106         calculate D2E/DX2 analytically  !
 ! D19   D(5,2,6,13)            -0.0058         calculate D2E/DX2 analytically  !
 ! D20   D(5,2,6,29)           179.9919         calculate D2E/DX2 analytically  !
 ! D21   D(1,3,7,11)             0.0006         calculate D2E/DX2 analytically  !
 ! D22   D(1,3,7,14)           179.9949         calculate D2E/DX2 analytically  !
 ! D23   D(8,3,7,11)          -179.9944         calculate D2E/DX2 analytically  !
 ! D24   D(8,3,7,14)            -0.0002         calculate D2E/DX2 analytically  !
 ! D25   D(1,3,8,15)          -179.998          calculate D2E/DX2 analytically  !
 ! D26   D(1,3,8,30)             0.0026         calculate D2E/DX2 analytically  !
 ! D27   D(7,3,8,15)            -0.0031         calculate D2E/DX2 analytically  !
 ! D28   D(7,3,8,30)           179.9975         calculate D2E/DX2 analytically  !
 ! D29   D(1,4,9,16)          -179.9724         calculate D2E/DX2 analytically  !
 ! D30   D(1,4,9,17)             0.0164         calculate D2E/DX2 analytically  !
 ! D31   D(10,4,9,16)           -0.0058         calculate D2E/DX2 analytically  !
 ! D32   D(10,4,9,17)          179.9831         calculate D2E/DX2 analytically  !
 ! D33   D(1,4,10,18)          179.9644         calculate D2E/DX2 analytically  !
 ! D34   D(1,4,10,19)           -0.0226         calculate D2E/DX2 analytically  !
 ! D35   D(9,4,10,18)           -0.0023         calculate D2E/DX2 analytically  !
 ! D36   D(9,4,10,19)         -179.9893         calculate D2E/DX2 analytically  !
 ! D37   D(2,5,11,7)             0.0019         calculate D2E/DX2 analytically  !
 ! D38   D(2,5,11,31)          179.9997         calculate D2E/DX2 analytically  !
 ! D39   D(12,5,11,7)         -179.9971         calculate D2E/DX2 analytically  !
 ! D40   D(12,5,11,31)           0.0007         calculate D2E/DX2 analytically  !
 ! D41   D(2,5,12,20)           -0.0075         calculate D2E/DX2 analytically  !
 ! D42   D(2,5,12,32)          179.9959         calculate D2E/DX2 analytically  !
 ! D43   D(11,5,12,20)         179.9916         calculate D2E/DX2 analytically  !
 ! D44   D(11,5,12,32)          -0.0051         calculate D2E/DX2 analytically  !
 ! D45   D(2,6,13,20)           -0.0033         calculate D2E/DX2 analytically  !
 ! D46   D(2,6,13,33)          179.9964         calculate D2E/DX2 analytically  !
 ! D47   D(29,6,13,20)         179.999          calculate D2E/DX2 analytically  !
 ! D48   D(29,6,13,33)          -0.0012         calculate D2E/DX2 analytically  !
 ! D49   D(3,7,11,5)            -0.0094         calculate D2E/DX2 analytically  !
 ! D50   D(3,7,11,31)          179.9928         calculate D2E/DX2 analytically  !
 ! D51   D(14,7,11,5)          179.9965         calculate D2E/DX2 analytically  !
 ! D52   D(14,7,11,31)          -0.0013         calculate D2E/DX2 analytically  !
 ! D53   D(3,7,14,21)            0.002          calculate D2E/DX2 analytically  !
 ! D54   D(3,7,14,34)         -179.9991         calculate D2E/DX2 analytically  !
 ! D55   D(11,7,14,21)         179.9961         calculate D2E/DX2 analytically  !
 ! D56   D(11,7,14,34)          -0.005          calculate D2E/DX2 analytically  !
 ! D57   D(3,8,15,21)            0.0045         calculate D2E/DX2 analytically  !
 ! D58   D(3,8,15,35)         -179.9981         calculate D2E/DX2 analytically  !
 ! D59   D(30,8,15,21)        -179.9961         calculate D2E/DX2 analytically  !
 ! D60   D(30,8,15,35)           0.0014         calculate D2E/DX2 analytically  !
 ! D61   D(4,9,16,22)            0.0084         calculate D2E/DX2 analytically  !
 ! D62   D(4,9,16,23)          179.9973         calculate D2E/DX2 analytically  !
 ! D63   D(17,9,16,22)        -179.9809         calculate D2E/DX2 analytically  !
 ! D64   D(17,9,16,23)           0.008          calculate D2E/DX2 analytically  !
 ! D65   D(4,9,17,24)         -179.9965         calculate D2E/DX2 analytically  !
 ! D66   D(4,9,17,36)            0.0038         calculate D2E/DX2 analytically  !
 ! D67   D(16,9,17,24)          -0.0075         calculate D2E/DX2 analytically  !
 ! D68   D(16,9,17,36)         179.9928         calculate D2E/DX2 analytically  !
 ! D69   D(4,10,18,22)           0.0078         calculate D2E/DX2 analytically  !
 ! D70   D(4,10,18,25)        -179.9826         calculate D2E/DX2 analytically  !
 ! D71   D(19,10,18,22)        179.9954         calculate D2E/DX2 analytically  !
 ! D72   D(19,10,18,25)          0.0049         calculate D2E/DX2 analytically  !
 ! D73   D(4,10,19,26)         179.9814         calculate D2E/DX2 analytically  !
 ! D74   D(4,10,19,37)          -0.0155         calculate D2E/DX2 analytically  !
 ! D75   D(18,10,19,26)         -0.0058         calculate D2E/DX2 analytically  !
 ! D76   D(18,10,19,37)        179.9973         calculate D2E/DX2 analytically  !
 ! D77   D(5,12,20,13)          -0.0017         calculate D2E/DX2 analytically  !
 ! D78   D(5,12,20,38)        -179.9977         calculate D2E/DX2 analytically  !
 ! D79   D(32,12,20,13)        179.9949         calculate D2E/DX2 analytically  !
 ! D80   D(32,12,20,38)         -0.0011         calculate D2E/DX2 analytically  !
 ! D81   D(6,13,20,12)           0.0072         calculate D2E/DX2 analytically  !
 ! D82   D(6,13,20,38)        -179.9968         calculate D2E/DX2 analytically  !
 ! D83   D(33,13,20,12)       -179.9925         calculate D2E/DX2 analytically  !
 ! D84   D(33,13,20,38)          0.0035         calculate D2E/DX2 analytically  !
 ! D85   D(7,14,21,15)          -0.0007         calculate D2E/DX2 analytically  !
 ! D86   D(7,14,21,39)         179.9997         calculate D2E/DX2 analytically  !
 ! D87   D(34,14,21,15)       -179.9996         calculate D2E/DX2 analytically  !
 ! D88   D(34,14,21,39)          0.0008         calculate D2E/DX2 analytically  !
 ! D89   D(8,15,21,14)          -0.0026         calculate D2E/DX2 analytically  !
 ! D90   D(8,15,21,39)         179.9971         calculate D2E/DX2 analytically  !
 ! D91   D(35,15,21,14)        180.0            calculate D2E/DX2 analytically  !
 ! D92   D(35,15,21,39)         -0.0004         calculate D2E/DX2 analytically  !
 ! D93   D(9,16,22,18)          -0.0029         calculate D2E/DX2 analytically  !
 ! D94   D(9,16,22,40)         179.989          calculate D2E/DX2 analytically  !
 ! D95   D(23,16,22,18)       -179.9915         calculate D2E/DX2 analytically  !
 ! D96   D(23,16,22,40)          0.0004         calculate D2E/DX2 analytically  !
 ! D97   D(9,16,23,27)          -0.0035         calculate D2E/DX2 analytically  !
 ! D98   D(9,16,23,41)        -179.9995         calculate D2E/DX2 analytically  !
 ! D99   D(22,16,23,27)        179.9852         calculate D2E/DX2 analytically  !
 ! D100  D(22,16,23,41)         -0.0108         calculate D2E/DX2 analytically  !
 ! D101  D(9,17,24,27)           0.0023         calculate D2E/DX2 analytically  !
 ! D102  D(9,17,24,42)        -179.9992         calculate D2E/DX2 analytically  !
 ! D103  D(36,17,24,27)       -179.9981         calculate D2E/DX2 analytically  !
 ! D104  D(36,17,24,42)          0.0004         calculate D2E/DX2 analytically  !
 ! D105  D(10,18,22,16)         -0.0052         calculate D2E/DX2 analytically  !
 ! D106  D(10,18,22,40)       -179.9971         calculate D2E/DX2 analytically  !
 ! D107  D(25,18,22,16)        179.985          calculate D2E/DX2 analytically  !
 ! D108  D(25,18,22,40)         -0.0069         calculate D2E/DX2 analytically  !
 ! D109  D(10,18,25,28)          0.0008         calculate D2E/DX2 analytically  !
 ! D110  D(10,18,25,43)        179.9936         calculate D2E/DX2 analytically  !
 ! D111  D(22,18,25,28)       -179.9895         calculate D2E/DX2 analytically  !
 ! D112  D(22,18,25,43)          0.0033         calculate D2E/DX2 analytically  !
 ! D113  D(10,19,26,28)          0.001          calculate D2E/DX2 analytically  !
 ! D114  D(10,19,26,44)       -179.9966         calculate D2E/DX2 analytically  !
 ! D115  D(37,19,26,28)        179.9978         calculate D2E/DX2 analytically  !
 ! D116  D(37,19,26,44)          0.0002         calculate D2E/DX2 analytically  !
 ! D117  D(16,23,27,24)         -0.002          calculate D2E/DX2 analytically  !
 ! D118  D(16,23,27,45)       -179.9991         calculate D2E/DX2 analytically  !
 ! D119  D(41,23,27,24)        179.994          calculate D2E/DX2 analytically  !
 ! D120  D(41,23,27,45)         -0.0032         calculate D2E/DX2 analytically  !
 ! D121  D(17,24,27,23)          0.0026         calculate D2E/DX2 analytically  !
 ! D122  D(17,24,27,45)        179.9998         calculate D2E/DX2 analytically  !
 ! D123  D(42,24,27,23)       -179.9959         calculate D2E/DX2 analytically  !
 ! D124  D(42,24,27,45)          0.0013         calculate D2E/DX2 analytically  !
 ! D125  D(18,25,28,26)         -0.0058         calculate D2E/DX2 analytically  !
 ! D126  D(18,25,28,46)        179.9945         calculate D2E/DX2 analytically  !
 ! D127  D(43,25,28,26)       -179.9984         calculate D2E/DX2 analytically  !
 ! D128  D(43,25,28,46)          0.0019         calculate D2E/DX2 analytically  !
 ! D129  D(19,26,28,25)          0.0049         calculate D2E/DX2 analytically  !
 ! D130  D(19,26,28,46)       -179.9953         calculate D2E/DX2 analytically  !
 ! D131  D(44,26,28,25)       -179.9975         calculate D2E/DX2 analytically  !
 ! D132  D(44,26,28,46)          0.0023         calculate D2E/DX2 analytically  !
 --------------------------------------------------------------------------------
 Trust Radius=3.00D-01 FncErr=1.00D-07 GrdErr=1.00D-06
 Number of steps in this run=    276 maximum allowed number of steps=    276.
 GradGradGradGradGradGradGradGradGradGradGradGradGradGradGradGradGradGrad

 Leave Link  103 at Thu Feb 19 19:30:51 2015, MaxMem=   524288000 cpu:         0.1
 (Enter /opt/g09/l202.exe)
                          Input orientation:                          
 ---------------------------------------------------------------------
 Center     Atomic      Atomic             Coordinates (Angstroms)
 Number     Number       Type             X           Y           Z
 ---------------------------------------------------------------------
      1          6           0        6.037570    4.176890    5.621950
      2          6           0        6.194900    3.172640    6.605720
      3          6           0        6.723940    5.407650    5.745360
      4          6           0        5.139630    3.935730    4.442460
      5          6           0        7.061490    3.409330    7.738950
      6          6           0        5.520880    1.909060    6.526210
      7          6           0        7.588220    5.635210    6.882200
      8          6           0        6.597480    6.456690    4.775420
      9          6           0        5.664540    3.356110    3.263630
     10          6           0        3.771820    4.289480    4.513390
     11          6           0        7.734090    4.631980    7.847220
     12          6           0        7.210490    2.382360    8.726440
     13          6           0        5.691300    0.952800    7.493770
     14          6           0        8.276370    6.886690    6.992700
     15          6           0        7.274270    7.640270    4.919300
     16          6           0        4.796300    3.126320    2.130230
     17          6           0        7.043480    2.980610    3.142140
     18          6           0        2.911390    4.056020    3.374800
     19          6           0        3.192290    4.879670    5.685180
     20          6           0        6.547180    1.189790    8.610210
     21          6           0        8.126050    7.861160    6.042150
     22          6           0        3.445180    3.481640    2.215400
     23          6           0        5.342990    2.538620    0.943750
     24          6           0        7.526390    2.420490    1.987720
     25          6           0        1.528720    4.420100    3.462250
     26          6           0        1.863210    5.213440    5.727180
     27          6           0        6.666840    2.195190    0.871680
     28          6           0        1.017450    4.981740    4.601940
     29          1           0        4.867510    1.718140    5.681330
     30          1           0        5.952320    6.299390    3.917390
     31          1           0        8.385150    4.806520    8.701050
     32          1           0        7.864530    2.571620    9.573700
     33          1           0        5.170640    0.003230    7.412780
     34          1           0        8.923230    7.046250    7.851510
     35          1           0        7.163240    8.420600    4.172240
     36          1           0        7.706200    3.147500    3.984840
     37          1           0        3.826460    5.060340    6.546800
     38          1           0        6.668880    0.419560    9.365930
     39          1           0        8.653490    8.805520    6.137880
     40          1           0        2.795020    3.307500    1.360800
     41          1           0        4.680790    2.370700    0.098330
     42          1           0        8.574290    2.143990    1.918400
     43          1           0        0.891750    4.239970    2.600120
     44          1           0        1.446090    5.659360    6.625230
     45          1           0        7.068670    1.750370   -0.033780
     46          1           0       -0.032620    5.253240    4.655130
 ---------------------------------------------------------------------
                    Distance matrix (angstroms):
                    1          2          3          4          5
     1  C    0.000000
     2  C    1.414593   0.000000
     3  C    1.414604   2.452626   0.000000
     4  C    1.501883   2.524994   2.524705   0.000000
     5  C    2.473712   1.446102   2.842820   3.851946   0.000000
     6  C    2.495538   1.434315   3.781165   2.931682   2.468811
     7  C    2.473751   2.842892   1.446087   3.851773   2.442541
     8  C    2.495516   3.781144   1.434315   2.931114   4.276005
     9  C    2.524778   3.388880   3.389709   1.414613   4.688581
    10  C    2.524917   3.390648   3.388667   1.414593   4.690504
    11  C    2.834980   2.457662   2.457617   4.336863   1.399638
    12  C    3.772789   2.480609   4.275038   5.005388   1.432482
    13  C    3.744111   2.443345   4.895812   4.302639   2.823486
    14  C    3.772823   4.275095   2.480616   5.005100   3.758305
    15  C    3.744081   4.895791   2.443324   4.302055   5.088866
    16  C    3.851825   4.689162   4.689289   2.473748   6.055487
    17  C    2.931279   3.571183   3.573427   2.495542   4.616794
    18  C    3.851921   4.690484   4.688496   2.473746   6.057008
    19  C    2.931470   3.574495   3.571405   2.495498   4.620669
    20  C    4.255839   2.841439   5.101858   5.185704   2.439255
    21  C    4.255839   5.101879   2.841427   5.185240   4.881722
    22  C    4.336870   5.189542   5.188487   2.834988   6.602464
    23  C    5.005190   5.760698   5.761407   3.772830   7.063011
    24  C    4.302227   4.864619   4.866920   3.744105   5.854108
    25  C    5.005316   5.762881   5.760048   3.772810   7.065647
    26  C    4.302417   4.868289   4.864642   3.744059   5.858681
    27  C    5.185381   5.835868   5.837458   4.255857   6.984932
    28  C    5.185538   5.839004   5.835481   4.255812   6.988829
    29  H    2.723604   2.175323   4.130728   2.554712   3.450720
    30  H    2.723564   4.130681   2.175333   2.554027   4.918031
    31  H    3.922808   3.443424   3.443411   5.424690   2.151709
    32  H    4.640151   3.458004   4.899000   5.967872   2.170930
    33  H    4.623643   3.427187   5.865218   4.928318   3.909376
    34  H    4.640172   4.899044   3.457999   5.967628   4.087289
    35  H    4.623621   5.865202   3.427179   4.927685   6.151797
    36  H    2.554232   3.025504   3.028621   2.723601   3.818056
    37  H    2.554376   3.029256   3.026272   2.723492   3.822627
    38  H    5.341673   3.927196   6.163814   6.240402   3.426358
    39  H    5.341670   6.163836   3.927182   6.239913   5.849509
    40  H    5.424700   6.251924   6.250713   3.922818   7.674238
    41  H    5.967709   6.729172   6.729523   4.640185   8.070041
    42  H    4.927871   5.356359   5.359188   4.623646   6.145604
    43  H    5.967822   6.731079   6.728332   4.640179   8.072374
    44  H    4.928080   5.360537   5.356606   4.623594   6.151075
    45  H    6.240068   6.846115   6.847846   5.341696   7.947800
    46  H    6.240231   6.849504   6.845696   5.341651   7.952128
                    6          7          8          9         10
     6  C    0.000000
     7  C    4.276075   0.000000
     8  C    4.990518   2.468789   0.000000
     9  C    3.571977   4.689231   3.573441   0.000000
    10  C    3.574501   4.689047   3.570688   2.452645   0.000000
    11  C    3.749355   1.399647   3.749320   5.188466   5.189539
    12  C    2.814215   3.758315   5.708459   5.760247   5.762929
    13  C    1.371003   5.088938   6.205110   4.865254   4.868316
    14  C    5.708515   1.432467   2.814232   5.761303   5.760508
    15  C    6.205103   2.823439   1.370988   4.866878   4.864125
    16  C    4.618591   6.055623   4.618728   1.446112   2.842877
    17  C    3.862442   4.618624   3.866478   1.434307   3.781167
    18  C    4.620634   6.055447   4.616515   2.842898   1.446109
    19  C    3.867064   4.618214   3.861344   3.781158   1.434319
    20  C    2.431809   4.881756   6.515242   5.835916   5.839061
    21  C    6.515268   2.439221   2.431803   5.837352   5.835523
    22  C    5.036330   6.601641   5.034046   2.457662   2.457653
    23  C    5.620663   7.063647   5.621985   2.480630   4.275092
    24  C    4.988138   5.856123   4.992500   2.443321   4.895807
    25  C    5.624101   7.063292   5.618224   4.275106   2.480616
    26  C    4.993588   5.855570   4.986465   4.895801   2.443313
    27  C    5.776574   6.986346   5.779652   2.841437   5.101886
    28  C    5.781441   6.985816   5.774280   5.101881   2.841411
    29  H    1.084972   4.918108   5.125166   3.027123   3.029259
    30  H    5.125142   3.450710   1.084984   3.028715   3.024820
    31  H    4.618360   2.151753   4.618376   6.250675   6.251931
    32  H    3.901138   4.087310   6.302593   6.728474   6.731126
    33  H    2.130930   6.151862   7.116086   5.357349   5.360513
    34  H    6.302629   2.170909   3.901157   6.729401   6.729030
    35  H    7.116086   3.909334   2.130928   5.359173   5.355769
    36  H    3.573222   3.820643   3.578410   2.175325   4.130718
    37  H    3.577995   3.820184   3.572972   4.130635   2.175308
    38  H    3.405954   5.849539   7.584512   6.846173   6.849553
    39  H    7.584537   3.426321   3.405947   6.847715   6.845750
    40  H    6.005615   7.673256   6.002977   3.443439   3.443435
    41  H    6.498962   8.070382   6.499553   3.458023   4.899051
    42  H    5.532668   6.148192   5.538025   3.427174   5.865221
    43  H    6.502013   8.070044   6.496240   4.899079   3.458013
    44  H    5.538815   6.147551   5.531216   5.865205   3.427165
    45  H    6.741981   7.949383   6.745359   3.927199   6.163851
    46  H    6.747284   7.948770   6.739509   6.163847   3.927173
                   11         12         13         14         15
    11  C    0.000000
    12  C    2.471432   0.000000
    13  C    4.223066   2.423026   0.000000
    14  C    2.471435   4.942767   6.491896   0.000000
    15  C    4.223027   6.491841   7.338661   2.423030   0.000000
    16  C    6.601636   7.063411   5.856003   7.063631   5.856193
    17  C    5.034058   5.618737   4.987694   5.621769   4.992394
    18  C    6.602477   7.065653   5.858651   7.062925   5.853806
    19  C    5.036240   5.624211   4.993632   5.620107   4.986988
    20  C    3.720159   1.369567   1.426581   6.169368   7.467273
    21  C    3.720150   6.169353   7.467305   1.369574   1.426574
    22  C    7.171850   7.601291   6.269073   7.599826   6.266355
    23  C    7.599830   8.005138   6.748252   8.006262   6.749939
    24  C    6.266384   6.746228   5.986506   6.749758   5.991980
    25  C    7.601281   8.009157   6.752955   8.004931   6.745653
    26  C    6.268963   6.753072   5.994011   6.747587   5.985127
    27  C    7.465596   7.875776   6.807884   7.878302   6.811835
    28  C    7.467759   7.881752   6.814684   7.876324   6.805608
    29  H    4.625886   3.899159   2.132912   6.328817   6.437764
    30  H    4.625854   6.328750   6.437752   3.899187   2.132917
    31  H    1.087828   2.693886   4.854432   2.693956   4.854465
    32  H    2.691251   1.086939   3.416082   5.044899   6.906740
    33  H    5.308987   3.398080   1.085969   7.563336   8.304642
    34  H    2.691240   5.044884   6.906771   1.086942   3.416107
    35  H    5.308954   7.563287   8.304650   3.398078   1.085975
    36  H    4.137927   4.828451   4.603164   4.832583   4.609204
    37  H    4.140550   4.834673   4.609367   4.830743   4.603497
    38  H    4.602786   2.134215   2.178300   7.073897   8.501627
    39  H    4.602779   7.073887   8.501660   2.134208   2.178300
    40  H    8.259679   8.637413   7.179580   8.635629   7.176315
    41  H    8.630256   8.991318   7.597638   8.991924   7.598438
    42  H    6.484361   6.947387   6.388687   6.952013   6.395666
    43  H    8.631532   8.994942   7.601906   8.990690   7.594551
    44  H    6.487504   6.955726   6.397490   6.949396   6.387635
    45  H    8.417637   8.784132   7.693977   8.787021   7.698454
    46  H    8.420047   8.790913   7.701618   8.784743   7.691446
                   16         17         18         19         20
    16  C    0.000000
    17  C    2.468808   0.000000
    18  C    2.442577   4.276074   0.000000
    19  C    4.276068   4.990506   2.468838   0.000000
    20  C    6.986120   5.775218   6.988831   5.781548   0.000000
    21  C    6.986348   5.779428   6.984735   5.775699   7.320857
    22  C    1.399654   3.749352   1.399662   3.749375   7.467836
    23  C    1.432479   2.814239   3.758349   5.708519   7.876803
    24  C    2.823455   1.370993   5.088927   6.205095   6.806677
    25  C    3.758354   5.708518   1.432473   2.814265   7.881709
    26  C    5.088923   6.205091   2.823472   1.370992   6.814778
    27  C    2.439236   2.431816   4.881772   6.515268   7.804486
    28  C    4.881766   6.515257   2.439229   2.431822   7.811724
    29  H    3.820779   3.574376   3.822587   3.577939   3.417423
    30  H    3.820824   3.578539   3.817639   3.571898   6.963076
    31  H    7.673239   6.002958   7.674258   6.005549   4.057970
    32  H    8.070128   6.496642   8.072385   6.502116   2.138499
    33  H    6.148102   5.532693   6.150984   5.538785   2.176379
    34  H    8.070344   6.499312   8.069983   6.498517   6.365482
    35  H    6.148301   5.537954   6.145217   5.531330   8.506452
    36  H    3.450731   1.084985   4.918105   5.125130   5.154610
    37  H    4.918040   5.125057   3.450738   1.084990   5.161505
    38  H    7.949117   6.740539   7.952120   6.747383   1.085900
    39  H    7.949370   6.745085   7.947583   6.741064   8.279390
    40  H    2.151737   4.618381   2.151748   4.618420   8.433110
    41  H    2.170926   3.901163   4.087338   6.302655   8.793751
    42  H    3.909355   2.130927   6.151861   7.116073   7.056911
    43  H    4.087361   6.302663   2.170924   3.901192   8.798220
    44  H    6.151847   7.116066   3.909360   2.130921   7.066705
    45  H    3.426345   3.405964   5.849565   7.584546   8.677832
    46  H    5.849562   7.584535   3.426336   3.405966   8.686084
                   21         22         23         24         25
    21  C    0.000000
    22  C    7.465571   0.000000
    23  C    7.878359   2.471450   0.000000
    24  C    6.811673   4.223050   2.423028   0.000000
    25  C    7.875376   2.471469   4.942820   6.491897   0.000000
    26  C    6.806820   4.223075   6.491898   7.338647   2.423052
    27  C    7.808090   3.720165   1.369568   1.426580   6.169405
    28  C    7.803682   3.720181   6.169399   7.467292   1.369573
    29  H    6.963115   4.140728   4.831556   4.604964   4.834503
    30  H    3.417431   4.137902   4.832930   4.609467   4.827745
    31  H    4.058042   8.259677   8.635613   7.176309   8.637417
    32  H    6.365491   8.631533   8.990845   7.595016   8.994953
    33  H    8.506476   6.487627   6.950270   6.389365   6.955502
    34  H    2.138541   8.630250   8.991885   7.598214   8.991165
    35  H    2.176359   6.484329   6.952276   6.395727   6.946647
    36  H    5.160173   4.625890   3.899195   2.132924   6.328813
    37  H    5.156136   4.625872   6.328752   6.437663   3.899226
    38  H    8.279388   8.420134   8.785301   7.692661   8.790848
    39  H    1.085897   8.417603   8.787061   7.698233   8.783692
    40  H    8.430346   1.087830   2.693930   4.854449   2.693972
    41  H    8.794542   2.691265   1.086941   3.416096   5.044952
    42  H    7.063446   5.308982   3.398084   1.085980   7.563346
    43  H    8.791796   2.691297   5.044967   6.906807   1.086943
    44  H    7.057604   5.308995   7.563337   8.304627   3.398093
    45  H    8.681977   4.602802   2.134215   2.178309   7.073947
    46  H    8.676922   4.602819   7.073944   8.501658   2.134214
                   26         27         28         29         30
    26  C    0.000000
    27  C    7.467300   0.000000
    28  C    1.426590   7.320882   0.000000
    29  H    4.609235   5.157315   5.161311   0.000000
    30  H    4.601679   5.160557   5.153421   5.027539   0.000000
    31  H    7.179498   8.430342   8.433054   5.570511   5.570523
    32  H    7.602024   8.792117   8.798271   4.986091   7.038939
    33  H    6.397392   7.058987   7.066496   2.455753   7.243646
    34  H    7.597095   8.794436   8.793365   7.038984   4.986121
    35  H    6.387021   7.063699   7.055575   7.243666   2.455770
    36  H    6.437732   3.417445   6.963090   3.602681   3.607638
    37  H    2.132971   6.963033   3.417484   3.605985   3.601156
    38  H    7.701704   8.677854   8.686066   4.302037   8.048133
    39  H    7.692829   8.681941   8.676953   8.048170   4.302044
    40  H    4.854498   4.058012   4.058057   5.048590   5.045404
    41  H    6.906800   2.138520   6.365539   5.624108   5.624643
    42  H    8.304633   2.176375   8.506471   5.299171   5.304530
    43  H    3.416121   6.365555   2.138529   5.626735   5.620123
    44  H    1.085968   8.506471   2.176374   5.303798   5.296050
    45  H    8.501666   1.085905   8.279427   6.124429   6.127933
    46  H    2.178313   8.279428   1.085904   6.128727   6.120310
                   31         32         33         34         35
    31  H    0.000000
    32  H    2.455064   0.000000
    33  H    5.921512   4.303864   0.000000
    34  H    2.455125   4.910102   7.992406   0.000000
    35  H    5.921550   7.992380   9.237081   4.303886   0.000000
    36  H    5.045390   5.620682   5.297761   5.624282   5.304291
    37  H    5.048452   5.626887   5.303876   5.623448   5.297545
    38  H    4.757422   2.470650   2.496567   7.161605   9.551725
    39  H    4.757504   7.161622   9.551750   2.470692   2.496547
    40  H    9.347507   9.679524   7.293026   9.677940   7.288987
    41  H    9.677928   9.997960   7.703638   9.998543   7.704582
    42  H    7.288977   7.700016   6.808517   7.704265   6.816648
    43  H    9.679534  10.001693   7.708473   9.997849   7.699404
    44  H    7.292936   7.708695   6.817941   7.702912   6.806424
    45  H    9.347215   9.675304   7.880753   9.677992   7.886160
    46  H    9.350288   9.682375   7.889306   9.676724   7.876913
                   36         37         38         39         40
    36  H    0.000000
    37  H    5.027423   0.000000
    38  H    6.121586   6.128922   0.000000
    39  H    6.127490   6.123219   9.202353   0.000000
    40  H    5.570536   5.570540   9.350353   9.347213   0.000000
    41  H    4.986129   7.038949   9.677182   9.678090   2.455108
    42  H    2.455766   7.243554   7.878448   7.885827   5.921540
    43  H    7.039011   4.986162   9.682301   9.674947   2.455168
    44  H    7.243623   2.455837   7.889517   7.879242   5.921578
    45  H    4.302060   8.048097   9.501865   9.506639   4.757477
    46  H    8.048153   4.302107   9.511372   9.500829   4.757527
                   41         42         43         44         45
    41  H    0.000000
    42  H    4.303881   0.000000
    43  H    4.910188   7.992452   0.000000
    44  H    7.992433   9.237062   4.303890   0.000000
    45  H    2.470675   2.496565   7.161695   9.551755   0.000000
    46  H    7.161683   9.551755   2.470676   2.496560   9.202407
                   46
    46  H    0.000000
 Symmetry turned off by external request.
 Stoichiometry    C28H18
 Framework group  C1[X(C28H18)]
 Deg. of freedom   132
 Full point group                 C1      NOp   1
 Rotational constants (GHZ):      0.2249793      0.1529481      0.1527776
 Leave Link  202 at Thu Feb 19 19:30:51 2015, MaxMem=   524288000 cpu:         0.0
 (Enter /opt/g09/l301.exe)
 Standard basis: 6-311+G(d,p) (5D, 7F)
 Ernie: Thresh=  0.10000D-02 Tol=  0.10000D-05 Strict=F.
 AO basis set in the form of general basis input (Overlap normalization):
      1 0
 S   6 1.00       0.000000000000
      0.4563240000D+04  0.1966650249D-02
      0.6820240000D+03  0.1523060193D-01
      0.1549730000D+03  0.7612690966D-01
      0.4445530000D+02  0.2608010331D+00
      0.1302900000D+02  0.6164620782D+00
      0.1827730000D+01  0.2210060280D+00
 SP   3 1.00       0.000000000000
      0.2096420000D+02  0.1146600807D+00  0.4024869267D-01
      0.4803310000D+01  0.9199996477D+00  0.2375939567D+00
      0.1459330000D+01 -0.3030682134D-02  0.8158538515D+00
 SP   1 1.00       0.000000000000
      0.4834560000D+00  0.1000000000D+01  0.1000000000D+01
 SP   1 1.00       0.000000000000
      0.1455850000D+00  0.1000000000D+01  0.1000000000D+01
 SP   1 1.00       0.000000000000
      0.4380000000D-01  0.1000000000D+01  0.1000000000D+01
 D   1 1.00       0.000000000000
      0.6260000000D+00  0.1000000000D+01
 ****
      2 0
 S   6 1.00       0.000000000000
      0.4563240000D+04  0.1966650249D-02
      0.6820240000D+03  0.1523060193D-01
      0.1549730000D+03  0.7612690966D-01
      0.4445530000D+02  0.2608010331D+00
      0.1302900000D+02  0.6164620782D+00
      0.1827730000D+01  0.2210060280D+00
 SP   3 1.00       0.000000000000
      0.2096420000D+02  0.1146600807D+00  0.4024869267D-01
      0.4803310000D+01  0.9199996477D+00  0.2375939567D+00
      0.1459330000D+01 -0.3030682134D-02  0.8158538515D+00
 SP   1 1.00       0.000000000000
      0.4834560000D+00  0.1000000000D+01  0.1000000000D+01
 SP   1 1.00       0.000000000000
      0.1455850000D+00  0.1000000000D+01  0.1000000000D+01
 SP   1 1.00       0.000000000000
      0.4380000000D-01  0.1000000000D+01  0.1000000000D+01
 D   1 1.00       0.000000000000
      0.6260000000D+00  0.1000000000D+01
 ****
      3 0
 S   6 1.00       0.000000000000
      0.4563240000D+04  0.1966650249D-02
      0.6820240000D+03  0.1523060193D-01
      0.1549730000D+03  0.7612690966D-01
      0.4445530000D+02  0.2608010331D+00
      0.1302900000D+02  0.6164620782D+00
      0.1827730000D+01  0.2210060280D+00
 SP   3 1.00       0.000000000000
      0.2096420000D+02  0.1146600807D+00  0.4024869267D-01
      0.4803310000D+01  0.9199996477D+00  0.2375939567D+00
      0.1459330000D+01 -0.3030682134D-02  0.8158538515D+00
 SP   1 1.00       0.000000000000
      0.4834560000D+00  0.1000000000D+01  0.1000000000D+01
 SP   1 1.00       0.000000000000
      0.1455850000D+00  0.1000000000D+01  0.1000000000D+01
 SP   1 1.00       0.000000000000
      0.4380000000D-01  0.1000000000D+01  0.1000000000D+01
 D   1 1.00       0.000000000000
      0.6260000000D+00  0.1000000000D+01
 ****
      4 0
 S   6 1.00       0.000000000000
      0.4563240000D+04  0.1966650249D-02
      0.6820240000D+03  0.1523060193D-01
      0.1549730000D+03  0.7612690966D-01
      0.4445530000D+02  0.2608010331D+00
      0.1302900000D+02  0.6164620782D+00
      0.1827730000D+01  0.2210060280D+00
 SP   3 1.00       0.000000000000
      0.2096420000D+02  0.1146600807D+00  0.4024869267D-01
      0.4803310000D+01  0.9199996477D+00  0.2375939567D+00
      0.1459330000D+01 -0.3030682134D-02  0.8158538515D+00
 SP   1 1.00       0.000000000000
      0.4834560000D+00  0.1000000000D+01  0.1000000000D+01
 SP   1 1.00       0.000000000000
      0.1455850000D+00  0.1000000000D+01  0.1000000000D+01
 SP   1 1.00       0.000000000000
      0.4380000000D-01  0.1000000000D+01  0.1000000000D+01
 D   1 1.00       0.000000000000
      0.6260000000D+00  0.1000000000D+01
 ****
      5 0
 S   6 1.00       0.000000000000
      0.4563240000D+04  0.1966650249D-02
      0.6820240000D+03  0.1523060193D-01
      0.1549730000D+03  0.7612690966D-01
      0.4445530000D+02  0.2608010331D+00
      0.1302900000D+02  0.6164620782D+00
      0.1827730000D+01  0.2210060280D+00
 SP   3 1.00       0.000000000000
      0.2096420000D+02  0.1146600807D+00  0.4024869267D-01
      0.4803310000D+01  0.9199996477D+00  0.2375939567D+00
      0.1459330000D+01 -0.3030682134D-02  0.8158538515D+00
 SP   1 1.00       0.000000000000
      0.4834560000D+00  0.1000000000D+01  0.1000000000D+01
 SP   1 1.00       0.000000000000
      0.1455850000D+00  0.1000000000D+01  0.1000000000D+01
 SP   1 1.00       0.000000000000
      0.4380000000D-01  0.1000000000D+01  0.1000000000D+01
 D   1 1.00       0.000000000000
      0.6260000000D+00  0.1000000000D+01
 ****
      6 0
 S   6 1.00       0.000000000000
      0.4563240000D+04  0.1966650249D-02
      0.6820240000D+03  0.1523060193D-01
      0.1549730000D+03  0.7612690966D-01
      0.4445530000D+02  0.2608010331D+00
      0.1302900000D+02  0.6164620782D+00
      0.1827730000D+01  0.2210060280D+00
 SP   3 1.00       0.000000000000
      0.2096420000D+02  0.1146600807D+00  0.4024869267D-01
      0.4803310000D+01  0.9199996477D+00  0.2375939567D+00
      0.1459330000D+01 -0.3030682134D-02  0.8158538515D+00
 SP   1 1.00       0.000000000000
      0.4834560000D+00  0.1000000000D+01  0.1000000000D+01
 SP   1 1.00       0.000000000000
      0.1455850000D+00  0.1000000000D+01  0.1000000000D+01
 SP   1 1.00       0.000000000000
      0.4380000000D-01  0.1000000000D+01  0.1000000000D+01
 D   1 1.00       0.000000000000
      0.6260000000D+00  0.1000000000D+01
 ****
      7 0
 S   6 1.00       0.000000000000
      0.4563240000D+04  0.1966650249D-02
      0.6820240000D+03  0.1523060193D-01
      0.1549730000D+03  0.7612690966D-01
      0.4445530000D+02  0.2608010331D+00
      0.1302900000D+02  0.6164620782D+00
      0.1827730000D+01  0.2210060280D+00
 SP   3 1.00       0.000000000000
      0.2096420000D+02  0.1146600807D+00  0.4024869267D-01
      0.4803310000D+01  0.9199996477D+00  0.2375939567D+00
      0.1459330000D+01 -0.3030682134D-02  0.8158538515D+00
 SP   1 1.00       0.000000000000
      0.4834560000D+00  0.1000000000D+01  0.1000000000D+01
 SP   1 1.00       0.000000000000
      0.1455850000D+00  0.1000000000D+01  0.1000000000D+01
 SP   1 1.00       0.000000000000
      0.4380000000D-01  0.1000000000D+01  0.1000000000D+01
 D   1 1.00       0.000000000000
      0.6260000000D+00  0.1000000000D+01
 ****
      8 0
 S   6 1.00       0.000000000000
      0.4563240000D+04  0.1966650249D-02
      0.6820240000D+03  0.1523060193D-01
      0.1549730000D+03  0.7612690966D-01
      0.4445530000D+02  0.2608010331D+00
      0.1302900000D+02  0.6164620782D+00
      0.1827730000D+01  0.2210060280D+00
 SP   3 1.00       0.000000000000
      0.2096420000D+02  0.1146600807D+00  0.4024869267D-01
      0.4803310000D+01  0.9199996477D+00  0.2375939567D+00
      0.1459330000D+01 -0.3030682134D-02  0.8158538515D+00
 SP   1 1.00       0.000000000000
      0.4834560000D+00  0.1000000000D+01  0.1000000000D+01
 SP   1 1.00       0.000000000000
      0.1455850000D+00  0.1000000000D+01  0.1000000000D+01
 SP   1 1.00       0.000000000000
      0.4380000000D-01  0.1000000000D+01  0.1000000000D+01
 D   1 1.00       0.000000000000
      0.6260000000D+00  0.1000000000D+01
 ****
      9 0
 S   6 1.00       0.000000000000
      0.4563240000D+04  0.1966650249D-02
      0.6820240000D+03  0.1523060193D-01
      0.1549730000D+03  0.7612690966D-01
      0.4445530000D+02  0.2608010331D+00
      0.1302900000D+02  0.6164620782D+00
      0.1827730000D+01  0.2210060280D+00
 SP   3 1.00       0.000000000000
      0.2096420000D+02  0.1146600807D+00  0.4024869267D-01
      0.4803310000D+01  0.9199996477D+00  0.2375939567D+00
      0.1459330000D+01 -0.3030682134D-02  0.8158538515D+00
 SP   1 1.00       0.000000000000
      0.4834560000D+00  0.1000000000D+01  0.1000000000D+01
 SP   1 1.00       0.000000000000
      0.1455850000D+00  0.1000000000D+01  0.1000000000D+01
 SP   1 1.00       0.000000000000
      0.4380000000D-01  0.1000000000D+01  0.1000000000D+01
 D   1 1.00       0.000000000000
      0.6260000000D+00  0.1000000000D+01
 ****
     10 0
 S   6 1.00       0.000000000000
      0.4563240000D+04  0.1966650249D-02
      0.6820240000D+03  0.1523060193D-01
      0.1549730000D+03  0.7612690966D-01
      0.4445530000D+02  0.2608010331D+00
      0.1302900000D+02  0.6164620782D+00
      0.1827730000D+01  0.2210060280D+00
 SP   3 1.00       0.000000000000
      0.2096420000D+02  0.1146600807D+00  0.4024869267D-01
      0.4803310000D+01  0.9199996477D+00  0.2375939567D+00
      0.1459330000D+01 -0.3030682134D-02  0.8158538515D+00
 SP   1 1.00       0.000000000000
      0.4834560000D+00  0.1000000000D+01  0.1000000000D+01
 SP   1 1.00       0.000000000000
      0.1455850000D+00  0.1000000000D+01  0.1000000000D+01
 SP   1 1.00       0.000000000000
      0.4380000000D-01  0.1000000000D+01  0.1000000000D+01
 D   1 1.00       0.000000000000
      0.6260000000D+00  0.1000000000D+01
 ****
     11 0
 S   6 1.00       0.000000000000
      0.4563240000D+04  0.1966650249D-02
      0.6820240000D+03  0.1523060193D-01
      0.1549730000D+03  0.7612690966D-01
      0.4445530000D+02  0.2608010331D+00
      0.1302900000D+02  0.6164620782D+00
      0.1827730000D+01  0.2210060280D+00
 SP   3 1.00       0.000000000000
      0.2096420000D+02  0.1146600807D+00  0.4024869267D-01
      0.4803310000D+01  0.9199996477D+00  0.2375939567D+00
      0.1459330000D+01 -0.3030682134D-02  0.8158538515D+00
 SP   1 1.00       0.000000000000
      0.4834560000D+00  0.1000000000D+01  0.1000000000D+01
 SP   1 1.00       0.000000000000
      0.1455850000D+00  0.1000000000D+01  0.1000000000D+01
 SP   1 1.00       0.000000000000
      0.4380000000D-01  0.1000000000D+01  0.1000000000D+01
 D   1 1.00       0.000000000000
      0.6260000000D+00  0.1000000000D+01
 ****
     12 0
 S   6 1.00       0.000000000000
      0.4563240000D+04  0.1966650249D-02
      0.6820240000D+03  0.1523060193D-01
      0.1549730000D+03  0.7612690966D-01
      0.4445530000D+02  0.2608010331D+00
      0.1302900000D+02  0.6164620782D+00
      0.1827730000D+01  0.2210060280D+00
 SP   3 1.00       0.000000000000
      0.2096420000D+02  0.1146600807D+00  0.4024869267D-01
      0.4803310000D+01  0.9199996477D+00  0.2375939567D+00
      0.1459330000D+01 -0.3030682134D-02  0.8158538515D+00
 SP   1 1.00       0.000000000000
      0.4834560000D+00  0.1000000000D+01  0.1000000000D+01
 SP   1 1.00       0.000000000000
      0.1455850000D+00  0.1000000000D+01  0.1000000000D+01
 SP   1 1.00       0.000000000000
      0.4380000000D-01  0.1000000000D+01  0.1000000000D+01
 D   1 1.00       0.000000000000
      0.6260000000D+00  0.1000000000D+01
 ****
     13 0
 S   6 1.00       0.000000000000
      0.4563240000D+04  0.1966650249D-02
      0.6820240000D+03  0.1523060193D-01
      0.1549730000D+03  0.7612690966D-01
      0.4445530000D+02  0.2608010331D+00
      0.1302900000D+02  0.6164620782D+00
      0.1827730000D+01  0.2210060280D+00
 SP   3 1.00       0.000000000000
      0.2096420000D+02  0.1146600807D+00  0.4024869267D-01
      0.4803310000D+01  0.9199996477D+00  0.2375939567D+00
      0.1459330000D+01 -0.3030682134D-02  0.8158538515D+00
 SP   1 1.00       0.000000000000
      0.4834560000D+00  0.1000000000D+01  0.1000000000D+01
 SP   1 1.00       0.000000000000
      0.1455850000D+00  0.1000000000D+01  0.1000000000D+01
 SP   1 1.00       0.000000000000
      0.4380000000D-01  0.1000000000D+01  0.1000000000D+01
 D   1 1.00       0.000000000000
      0.6260000000D+00  0.1000000000D+01
 ****
     14 0
 S   6 1.00       0.000000000000
      0.4563240000D+04  0.1966650249D-02
      0.6820240000D+03  0.1523060193D-01
      0.1549730000D+03  0.7612690966D-01
      0.4445530000D+02  0.2608010331D+00
      0.1302900000D+02  0.6164620782D+00
      0.1827730000D+01  0.2210060280D+00
 SP   3 1.00       0.000000000000
      0.2096420000D+02  0.1146600807D+00  0.4024869267D-01
      0.4803310000D+01  0.9199996477D+00  0.2375939567D+00
      0.1459330000D+01 -0.3030682134D-02  0.8158538515D+00
 SP   1 1.00       0.000000000000
      0.4834560000D+00  0.1000000000D+01  0.1000000000D+01
 SP   1 1.00       0.000000000000
      0.1455850000D+00  0.1000000000D+01  0.1000000000D+01
 SP   1 1.00       0.000000000000
      0.4380000000D-01  0.1000000000D+01  0.1000000000D+01
 D   1 1.00       0.000000000000
      0.6260000000D+00  0.1000000000D+01
 ****
     15 0
 S   6 1.00       0.000000000000
      0.4563240000D+04  0.1966650249D-02
      0.6820240000D+03  0.1523060193D-01
      0.1549730000D+03  0.7612690966D-01
      0.4445530000D+02  0.2608010331D+00
      0.1302900000D+02  0.6164620782D+00
      0.1827730000D+01  0.2210060280D+00
 SP   3 1.00       0.000000000000
      0.2096420000D+02  0.1146600807D+00  0.4024869267D-01
      0.4803310000D+01  0.9199996477D+00  0.2375939567D+00
      0.1459330000D+01 -0.3030682134D-02  0.8158538515D+00
 SP   1 1.00       0.000000000000
      0.4834560000D+00  0.1000000000D+01  0.1000000000D+01
 SP   1 1.00       0.000000000000
      0.1455850000D+00  0.1000000000D+01  0.1000000000D+01
 SP   1 1.00       0.000000000000
      0.4380000000D-01  0.1000000000D+01  0.1000000000D+01
 D   1 1.00       0.000000000000
      0.6260000000D+00  0.1000000000D+01
 ****
     16 0
 S   6 1.00       0.000000000000
      0.4563240000D+04  0.1966650249D-02
      0.6820240000D+03  0.1523060193D-01
      0.1549730000D+03  0.7612690966D-01
      0.4445530000D+02  0.2608010331D+00
      0.1302900000D+02  0.6164620782D+00
      0.1827730000D+01  0.2210060280D+00
 SP   3 1.00       0.000000000000
      0.2096420000D+02  0.1146600807D+00  0.4024869267D-01
      0.4803310000D+01  0.9199996477D+00  0.2375939567D+00
      0.1459330000D+01 -0.3030682134D-02  0.8158538515D+00
 SP   1 1.00       0.000000000000
      0.4834560000D+00  0.1000000000D+01  0.1000000000D+01
 SP   1 1.00       0.000000000000
      0.1455850000D+00  0.1000000000D+01  0.1000000000D+01
 SP   1 1.00       0.000000000000
      0.4380000000D-01  0.1000000000D+01  0.1000000000D+01
 D   1 1.00       0.000000000000
      0.6260000000D+00  0.1000000000D+01
 ****
     17 0
 S   6 1.00       0.000000000000
      0.4563240000D+04  0.1966650249D-02
      0.6820240000D+03  0.1523060193D-01
      0.1549730000D+03  0.7612690966D-01
      0.4445530000D+02  0.2608010331D+00
      0.1302900000D+02  0.6164620782D+00
      0.1827730000D+01  0.2210060280D+00
 SP   3 1.00       0.000000000000
      0.2096420000D+02  0.1146600807D+00  0.4024869267D-01
      0.4803310000D+01  0.9199996477D+00  0.2375939567D+00
      0.1459330000D+01 -0.3030682134D-02  0.8158538515D+00
 SP   1 1.00       0.000000000000
      0.4834560000D+00  0.1000000000D+01  0.1000000000D+01
 SP   1 1.00       0.000000000000
      0.1455850000D+00  0.1000000000D+01  0.1000000000D+01
 SP   1 1.00       0.000000000000
      0.4380000000D-01  0.1000000000D+01  0.1000000000D+01
 D   1 1.00       0.000000000000
      0.6260000000D+00  0.1000000000D+01
 ****
     18 0
 S   6 1.00       0.000000000000
      0.4563240000D+04  0.1966650249D-02
      0.6820240000D+03  0.1523060193D-01
      0.1549730000D+03  0.7612690966D-01
      0.4445530000D+02  0.2608010331D+00
      0.1302900000D+02  0.6164620782D+00
      0.1827730000D+01  0.2210060280D+00
 SP   3 1.00       0.000000000000
      0.2096420000D+02  0.1146600807D+00  0.4024869267D-01
      0.4803310000D+01  0.9199996477D+00  0.2375939567D+00
      0.1459330000D+01 -0.3030682134D-02  0.8158538515D+00
 SP   1 1.00       0.000000000000
      0.4834560000D+00  0.1000000000D+01  0.1000000000D+01
 SP   1 1.00       0.000000000000
      0.1455850000D+00  0.1000000000D+01  0.1000000000D+01
 SP   1 1.00       0.000000000000
      0.4380000000D-01  0.1000000000D+01  0.1000000000D+01
 D   1 1.00       0.000000000000
      0.6260000000D+00  0.1000000000D+01
 ****
     19 0
 S   6 1.00       0.000000000000
      0.4563240000D+04  0.1966650249D-02
      0.6820240000D+03  0.1523060193D-01
      0.1549730000D+03  0.7612690966D-01
      0.4445530000D+02  0.2608010331D+00
      0.1302900000D+02  0.6164620782D+00
      0.1827730000D+01  0.2210060280D+00
 SP   3 1.00       0.000000000000
      0.2096420000D+02  0.1146600807D+00  0.4024869267D-01
      0.4803310000D+01  0.9199996477D+00  0.2375939567D+00
      0.1459330000D+01 -0.3030682134D-02  0.8158538515D+00
 SP   1 1.00       0.000000000000
      0.4834560000D+00  0.1000000000D+01  0.1000000000D+01
 SP   1 1.00       0.000000000000
      0.1455850000D+00  0.1000000000D+01  0.1000000000D+01
 SP   1 1.00       0.000000000000
      0.4380000000D-01  0.1000000000D+01  0.1000000000D+01
 D   1 1.00       0.000000000000
      0.6260000000D+00  0.1000000000D+01
 ****
     20 0
 S   6 1.00       0.000000000000
      0.4563240000D+04  0.1966650249D-02
      0.6820240000D+03  0.1523060193D-01
      0.1549730000D+03  0.7612690966D-01
      0.4445530000D+02  0.2608010331D+00
      0.1302900000D+02  0.6164620782D+00
      0.1827730000D+01  0.2210060280D+00
 SP   3 1.00       0.000000000000
      0.2096420000D+02  0.1146600807D+00  0.4024869267D-01
      0.4803310000D+01  0.9199996477D+00  0.2375939567D+00
      0.1459330000D+01 -0.3030682134D-02  0.8158538515D+00
 SP   1 1.00       0.000000000000
      0.4834560000D+00  0.1000000000D+01  0.1000000000D+01
 SP   1 1.00       0.000000000000
      0.1455850000D+00  0.1000000000D+01  0.1000000000D+01
 SP   1 1.00       0.000000000000
      0.4380000000D-01  0.1000000000D+01  0.1000000000D+01
 D   1 1.00       0.000000000000
      0.6260000000D+00  0.1000000000D+01
 ****
     21 0
 S   6 1.00       0.000000000000
      0.4563240000D+04  0.1966650249D-02
      0.6820240000D+03  0.1523060193D-01
      0.1549730000D+03  0.7612690966D-01
      0.4445530000D+02  0.2608010331D+00
      0.1302900000D+02  0.6164620782D+00
      0.1827730000D+01  0.2210060280D+00
 SP   3 1.00       0.000000000000
      0.2096420000D+02  0.1146600807D+00  0.4024869267D-01
      0.4803310000D+01  0.9199996477D+00  0.2375939567D+00
      0.1459330000D+01 -0.3030682134D-02  0.8158538515D+00
 SP   1 1.00       0.000000000000
      0.4834560000D+00  0.1000000000D+01  0.1000000000D+01
 SP   1 1.00       0.000000000000
      0.1455850000D+00  0.1000000000D+01  0.1000000000D+01
 SP   1 1.00       0.000000000000
      0.4380000000D-01  0.1000000000D+01  0.1000000000D+01
 D   1 1.00       0.000000000000
      0.6260000000D+00  0.1000000000D+01
 ****
     22 0
 S   6 1.00       0.000000000000
      0.4563240000D+04  0.1966650249D-02
      0.6820240000D+03  0.1523060193D-01
      0.1549730000D+03  0.7612690966D-01
      0.4445530000D+02  0.2608010331D+00
      0.1302900000D+02  0.6164620782D+00
      0.1827730000D+01  0.2210060280D+00
 SP   3 1.00       0.000000000000
      0.2096420000D+02  0.1146600807D+00  0.4024869267D-01
      0.4803310000D+01  0.9199996477D+00  0.2375939567D+00
      0.1459330000D+01 -0.3030682134D-02  0.8158538515D+00
 SP   1 1.00       0.000000000000
      0.4834560000D+00  0.1000000000D+01  0.1000000000D+01
 SP   1 1.00       0.000000000000
      0.1455850000D+00  0.1000000000D+01  0.1000000000D+01
 SP   1 1.00       0.000000000000
      0.4380000000D-01  0.1000000000D+01  0.1000000000D+01
 D   1 1.00       0.000000000000
      0.6260000000D+00  0.1000000000D+01
 ****
     23 0
 S   6 1.00       0.000000000000
      0.4563240000D+04  0.1966650249D-02
      0.6820240000D+03  0.1523060193D-01
      0.1549730000D+03  0.7612690966D-01
      0.4445530000D+02  0.2608010331D+00
      0.1302900000D+02  0.6164620782D+00
      0.1827730000D+01  0.2210060280D+00
 SP   3 1.00       0.000000000000
      0.2096420000D+02  0.1146600807D+00  0.4024869267D-01
      0.4803310000D+01  0.9199996477D+00  0.2375939567D+00
      0.1459330000D+01 -0.3030682134D-02  0.8158538515D+00
 SP   1 1.00       0.000000000000
      0.4834560000D+00  0.1000000000D+01  0.1000000000D+01
 SP   1 1.00       0.000000000000
      0.1455850000D+00  0.1000000000D+01  0.1000000000D+01
 SP   1 1.00       0.000000000000
      0.4380000000D-01  0.1000000000D+01  0.1000000000D+01
 D   1 1.00       0.000000000000
      0.6260000000D+00  0.1000000000D+01
 ****
     24 0
 S   6 1.00       0.000000000000
      0.4563240000D+04  0.1966650249D-02
      0.6820240000D+03  0.1523060193D-01
      0.1549730000D+03  0.7612690966D-01
      0.4445530000D+02  0.2608010331D+00
      0.1302900000D+02  0.6164620782D+00
      0.1827730000D+01  0.2210060280D+00
 SP   3 1.00       0.000000000000
      0.2096420000D+02  0.1146600807D+00  0.4024869267D-01
      0.4803310000D+01  0.9199996477D+00  0.2375939567D+00
      0.1459330000D+01 -0.3030682134D-02  0.8158538515D+00
 SP   1 1.00       0.000000000000
      0.4834560000D+00  0.1000000000D+01  0.1000000000D+01
 SP   1 1.00       0.000000000000
      0.1455850000D+00  0.1000000000D+01  0.1000000000D+01
 SP   1 1.00       0.000000000000
      0.4380000000D-01  0.1000000000D+01  0.1000000000D+01
 D   1 1.00       0.000000000000
      0.6260000000D+00  0.1000000000D+01
 ****
     25 0
 S   6 1.00       0.000000000000
      0.4563240000D+04  0.1966650249D-02
      0.6820240000D+03  0.1523060193D-01
      0.1549730000D+03  0.7612690966D-01
      0.4445530000D+02  0.2608010331D+00
      0.1302900000D+02  0.6164620782D+00
      0.1827730000D+01  0.2210060280D+00
 SP   3 1.00       0.000000000000
      0.2096420000D+02  0.1146600807D+00  0.4024869267D-01
      0.4803310000D+01  0.9199996477D+00  0.2375939567D+00
      0.1459330000D+01 -0.3030682134D-02  0.8158538515D+00
 SP   1 1.00       0.000000000000
      0.4834560000D+00  0.1000000000D+01  0.1000000000D+01
 SP   1 1.00       0.000000000000
      0.1455850000D+00  0.1000000000D+01  0.1000000000D+01
 SP   1 1.00       0.000000000000
      0.4380000000D-01  0.1000000000D+01  0.1000000000D+01
 D   1 1.00       0.000000000000
      0.6260000000D+00  0.1000000000D+01
 ****
     26 0
 S   6 1.00       0.000000000000
      0.4563240000D+04  0.1966650249D-02
      0.6820240000D+03  0.1523060193D-01
      0.1549730000D+03  0.7612690966D-01
      0.4445530000D+02  0.2608010331D+00
      0.1302900000D+02  0.6164620782D+00
      0.1827730000D+01  0.2210060280D+00
 SP   3 1.00       0.000000000000
      0.2096420000D+02  0.1146600807D+00  0.4024869267D-01
      0.4803310000D+01  0.9199996477D+00  0.2375939567D+00
      0.1459330000D+01 -0.3030682134D-02  0.8158538515D+00
 SP   1 1.00       0.000000000000
      0.4834560000D+00  0.1000000000D+01  0.1000000000D+01
 SP   1 1.00       0.000000000000
      0.1455850000D+00  0.1000000000D+01  0.1000000000D+01
 SP   1 1.00       0.000000000000
      0.4380000000D-01  0.1000000000D+01  0.1000000000D+01
 D   1 1.00       0.000000000000
      0.6260000000D+00  0.1000000000D+01
 ****
     27 0
 S   6 1.00       0.000000000000
      0.4563240000D+04  0.1966650249D-02
      0.6820240000D+03  0.1523060193D-01
      0.1549730000D+03  0.7612690966D-01
      0.4445530000D+02  0.2608010331D+00
      0.1302900000D+02  0.6164620782D+00
      0.1827730000D+01  0.2210060280D+00
 SP   3 1.00       0.000000000000
      0.2096420000D+02  0.1146600807D+00  0.4024869267D-01
      0.4803310000D+01  0.9199996477D+00  0.2375939567D+00
      0.1459330000D+01 -0.3030682134D-02  0.8158538515D+00
 SP   1 1.00       0.000000000000
      0.4834560000D+00  0.1000000000D+01  0.1000000000D+01
 SP   1 1.00       0.000000000000
      0.1455850000D+00  0.1000000000D+01  0.1000000000D+01
 SP   1 1.00       0.000000000000
      0.4380000000D-01  0.1000000000D+01  0.1000000000D+01
 D   1 1.00       0.000000000000
      0.6260000000D+00  0.1000000000D+01
 ****
     28 0
 S   6 1.00       0.000000000000
      0.4563240000D+04  0.1966650249D-02
      0.6820240000D+03  0.1523060193D-01
      0.1549730000D+03  0.7612690966D-01
      0.4445530000D+02  0.2608010331D+00
      0.1302900000D+02  0.6164620782D+00
      0.1827730000D+01  0.2210060280D+00
 SP   3 1.00       0.000000000000
      0.2096420000D+02  0.1146600807D+00  0.4024869267D-01
      0.4803310000D+01  0.9199996477D+00  0.2375939567D+00
      0.1459330000D+01 -0.3030682134D-02  0.8158538515D+00
 SP   1 1.00       0.000000000000
      0.4834560000D+00  0.1000000000D+01  0.1000000000D+01
 SP   1 1.00       0.000000000000
      0.1455850000D+00  0.1000000000D+01  0.1000000000D+01
 SP   1 1.00       0.000000000000
      0.4380000000D-01  0.1000000000D+01  0.1000000000D+01
 D   1 1.00       0.000000000000
      0.6260000000D+00  0.1000000000D+01
 ****
     29 0
 S   3 1.00       0.000000000000
      0.3386500000D+02  0.2549381454D-01
      0.5094790000D+01  0.1903731086D+00
      0.1158790000D+01  0.8521614860D+00
 S   1 1.00       0.000000000000
      0.3258400000D+00  0.1000000000D+01
 S   1 1.00       0.000000000000
      0.1027410000D+00  0.1000000000D+01
 P   1 1.00       0.000000000000
      0.7500000000D+00  0.1000000000D+01
 ****
     30 0
 S   3 1.00       0.000000000000
      0.3386500000D+02  0.2549381454D-01
      0.5094790000D+01  0.1903731086D+00
      0.1158790000D+01  0.8521614860D+00
 S   1 1.00       0.000000000000
      0.3258400000D+00  0.1000000000D+01
 S   1 1.00       0.000000000000
      0.1027410000D+00  0.1000000000D+01
 P   1 1.00       0.000000000000
      0.7500000000D+00  0.1000000000D+01
 ****
     31 0
 S   3 1.00       0.000000000000
      0.3386500000D+02  0.2549381454D-01
      0.5094790000D+01  0.1903731086D+00
      0.1158790000D+01  0.8521614860D+00
 S   1 1.00       0.000000000000
      0.3258400000D+00  0.1000000000D+01
 S   1 1.00       0.000000000000
      0.1027410000D+00  0.1000000000D+01
 P   1 1.00       0.000000000000
      0.7500000000D+00  0.1000000000D+01
 ****
     32 0
[...]
 00004430,0.00000883,-0.00004882,-0.00008991,0.00002118,0.00001243,-0.1
 5132875,-0.02227951,-0.12994091,0.00028850,0.00265838,0.00170760,-0.00
 001546,-0.00000432,-0.00003702,0.01034581,0.00281657,0.01110284,-0.000
 00043,-0.00000818,0.00000332,0.00000148,0.00001204,-0.00000549,-0.0000
 0626,0.00000145,0.00000084,-0.00000108,0.00000086,-0.00000534,0.000001
 12,0.00000416,-0.00000195,-0.00000162,-0.00000309,-0.00000331,-0.00000
 180,-0.00000687,0.00000126,0.00001520,-0.00000248,-0.00000822,0.000003
 76,-0.00028362,-0.00003387,-0.00000060,0.00000279,-0.00000322,-0.00000
 280,-0.00000364,-0.00000077,-0.00000794,0.00049615,0.00110356,-0.00000
 899,0.00002014,0.00003304,0.00000168,0.00000358,0.00000892,0.15745611,
 0.00014919,0.00018975,-0.00012888,-0.00004343,0.00000466,-0.00004782,0
 .00005556,0.00001752,0.00006104,0.00027375,0.00015758,0.00031554,0.000
 02325,0.00002803,0.00000323,-0.00000150,-0.00002386,0.00001408,-0.0000
 2046,0.00003160,-0.00001084,-0.00001164,-0.00002451,0.00000470,-0.0000
 5194,-0.00005557,0.00015478,0.00230261,0.00342620,-0.00164201,-0.00000
 089,-0.00002279,0.00001208,-0.00001234,-0.00000900,0.00000082,-0.00000
 556,0.00000260,-0.00001437,0.00000714,-0.00001111,0.00000782,0.0000090
 5,0.00001441,0.00000309,-0.00022313,-0.00010330,-0.00000087,0.00001667
 ,0.00000443,-0.00003422,0.00475406,0.00376259,0.00609833,0.00009024,-0
 .00089156,0.00021524,0.00000969,-0.00000014,0.00000858,-0.00000928,-0.
 00000160,-0.00000790,-0.00019286,-0.00185831,0.00148006,0.00003894,0.0
 0003999,-0.00005744,0.00001202,-0.00000920,0.00003839,-0.02205164,-0.0
 4611553,-0.04274076,0.00317645,0.00622603,-0.00433590,-0.00003397,0.00
 002959,-0.00001244,-0.00838866,0.00221642,-0.01039493,0.00000687,0.000
 00446,-0.00000122,-0.00000279,0.00001137,-0.00000719,0.00000073,-0.000
 00194,-0.00000068,-0.00000090,0.00000035,-0.00000124,-0.00000040,-0.00
 000372,0.00000395,0.00000091,0.00000125,0.00000053,-0.00000201,-0.0000
 0500,0.00000013,-0.00000174,0.00001591,-0.00000648,-0.00027294,-0.0009
 1706,0.00037818,0.00000112,-0.00000034,-0.00000045,-0.00000167,-0.0000
 0036,-0.00000051,-0.00010330,0.00020377,-0.00027649,0.00001189,0.00001
 437,-0.00001271,-0.00000219,0.00000216,-0.00000159,0.02201208,0.037829
 94,0.00000716,-0.00008511,0.00005886,-0.00000203,-0.00002826,0.0000209
 5,-0.00002768,0.00001969,-0.00004143,0.00041803,-0.00015751,-0.0000492
 2,-0.00001202,-0.00000675,0.00000438,-0.00000489,0.00001692,-0.0000039
 8,0.00000442,-0.00001008,0.00001062,-0.00000340,0.00000744,0.00000333,
 0.00002506,0.00013158,0.00022903,0.00061292,-0.00130097,0.00161646,0.0
 0000007,0.00000832,-0.00000604,0.00000444,0.00000258,-0.00000102,0.000
 00233,-0.00000677,0.00000590,-0.00000280,0.00000455,-0.00000417,-0.000
 00096,-0.00000152,-0.00000459,-0.00038129,0.00020228,0.00013242,0.0000
 7324,-0.00002461,0.00000308,0.00228770,-0.00034812,0.00306403,0.000548
 55,0.00026088,0.00006440,-0.00000384,-0.00000033,-0.00000210,0.0000038
 3,0.00000169,0.00000370,0.00168690,0.00072948,0.00046169,0.00002923,-0
 .00007605,-0.00010782,-0.00001132,0.00004413,0.00008636,-0.12935389,-0
 .04288306,-0.22632133,0.00304810,-0.00465641,-0.00153076,-0.00011419,0
 .00000593,-0.00002892,-0.01795695,-0.00344614,-0.01585353,-0.00000606,
 -0.00001751,0.00000266,0.00000454,0.00000885,-0.00000619,-0.00000108,-
 0.00000022,-0.00000275,-0.00000098,-0.00000043,-0.00000248,0.00000052,
 0.00000527,-0.00000242,-0.00000188,-0.00000166,-0.00000283,-0.00000055
 ,-0.00000134,0.00000177,-0.00000621,-0.00000697,-0.00000393,-0.0000068
 0,0.00037170,-0.00016872,-0.00000149,0.00000228,-0.00000381,-0.0000017
 6,-0.00000342,-0.00000160,-0.00044259,0.00009443,0.00025493,0.00001150
 ,-0.00000750,0.00000970,-0.00000605,0.00000199,0.00000365,0.13977867,0
 .04940828,0.23884618,0.00011682,0.00009345,0.00008800,-0.00002257,-0.0
 0005809,-0.00003435,-0.00002306,0.00003303,-0.00003618,0.00046645,0.00
 046911,0.00131326,-0.00000785,0.00000302,-0.00000800,0.00002102,0.0000
 2191,0.00001485,0.00000065,-0.00000147,-0.00000049,0.00001850,-0.00000
 443,0.00001707,-0.00064590,-0.00001933,0.00019928,-0.00495503,0.002656
 85,-0.00205582,-0.00000942,-0.00000494,-0.00003277,-0.00000335,-0.0000
 0020,-0.00001876,0.00000764,0.00000738,-0.00000145,0.00000013,-0.00000
 545,-0.00001264,0.00000759,-0.00002369,-0.00000163,-0.00024255,0.00006
 000,-0.00007775,0.00013742,-0.00001217,0.00011205,-0.00087406,-0.00000
 846,-0.00012175,-0.00755051,0.01312293,0.02689933,0.00000104,-0.000003
 29,-0.00000527,0.00000216,-0.00001262,-0.00000429,0.00037904,-0.000294
 10,-0.00009392,0.00010175,-0.00003517,-0.00008500,-0.00005215,0.000075
 79,0.00011041,-0.00186612,0.00018569,-0.00354562,-0.09719667,0.0475717
 4,0.08559460,-0.00012380,-0.00000406,-0.00006776,0.01047743,-0.0082660
 6,-0.01647187,-0.00000478,-0.00002216,0.00000272,-0.00000243,0.0000183
 4,-0.00000615,-0.00000974,0.00000221,-0.00000058,-0.00000697,0.0000036
 1,-0.00000207,-0.00000194,0.00000170,0.00000195,-0.00000784,-0.0000007
 9,-0.00000066,-0.00000833,-0.00000004,0.00000759,-0.00001213,-0.000000
 27,-0.00000616,0.00068896,-0.00137685,0.00024087,-0.00000375,0.0000027
 1,-0.00000167,-0.00000704,-0.00000162,0.00000116,-0.00001045,0.0000425
 6,0.00007053,0.00000266,0.00000346,0.00000924,-0.00000896,0.00001376,0
 .00001717,0.00036002,-0.00039596,-0.00090510,0.10027961,0.00005052,0.0
 0029112,-0.00016146,0.00005170,-0.00002414,-0.00004489,-0.00003722,-0.
 00000158,0.00008494,-0.00002844,0.00013604,-0.00047139,-0.00001963,0.0
 0000636,-0.00001426,-0.00000852,0.00002986,-0.00000015,0.00002068,0.00
 000478,0.00000995,0.00000475,0.00002112,-0.00003078,-0.00004489,-0.000
 89450,0.00036891,0.00293811,0.00795098,-0.00215238,0.00000873,0.000022
 33,0.00000435,-0.00000739,0.00001014,-0.00000739,-0.00002294,-0.000011
 23,0.00003317,0.00001314,0.00001292,0.00000904,0.00000410,-0.00002425,
 -0.00001235,0.00002987,0.00011683,-0.00002783,-0.00004275,-0.00008871,
 -0.00001128,-0.00017745,-0.00050434,0.00043148,0.00202568,0.00079921,-
 0.00694618,-0.00001152,-0.00001664,0.00001462,0.00000159,-0.00002052,0
 .00000577,-0.00015980,-0.00057181,0.00023471,0.00001618,0.00008112,-0.
 00001667,0.00005047,0.00006159,-0.00003459,-0.00016625,0.00403722,-0.0
 0164064,0.04792035,-0.08666140,-0.10098710,0.00000634,-0.00002533,0.00
 001887,0.00273027,0.00072022,-0.00282071,0.00001530,-0.00000766,-0.000
 01347,-0.00001504,-0.00001014,0.00001628,0.00000346,-0.00000016,0.0000
 0036,0.00000243,-0.00000016,0.00000160,0.00001101,-0.00001679,-0.00000
 697,0.00000344,0.00000089,0.00000002,-0.00001021,-0.00000157,0.0000077
 8,0.00000690,-0.00000392,0.00000263,-0.00120257,-0.00437471,0.00207722
 ,0.00000603,-0.00000593,0.00000033,-0.00000167,0.00000082,0.00000258,0
 .00000563,0.00004459,-0.00002079,-0.00000230,0.00000204,-0.00000199,0.
 00000835,0.00001449,-0.00001154,0.00017836,0.00004826,-0.00018948,-0.0
 5346038,0.08065393,-0.00002116,-0.00013498,0.00000176,0.00000838,0.000
 04854,0.00002203,0.00002534,-0.00003342,0.00000018,0.00002360,-0.00016
 325,-0.00009754,0.00000364,0.00000086,0.00000146,-0.00000928,-0.000010
 85,-0.00000511,-0.00001353,-0.00000510,-0.00000546,-0.00001437,-0.0000
 0711,0.00000646,0.00013004,0.00038569,0.00003343,-0.00132663,-0.002325
 64,0.00262866,0.00000296,-0.00000406,0.00001409,0.00000321,-0.00000210
 ,0.00000733,-0.00000126,0.00000313,-0.00000440,-0.00000477,-0.00000345
 ,0.00000110,-0.00000905,0.00001957,0.00000888,-0.00015696,-0.00000898,
 0.00001424,0.00003312,0.00000755,-0.00005443,-0.00056274,0.00053555,0.
 00032722,-0.00187093,-0.00007226,0.00261387,0.00000498,0.00000678,-0.0
 0000134,0.00000041,0.00001026,0.00000136,0.00025546,0.00015112,-0.0001
 5012,0.00004874,-0.00004870,-0.00000477,0.00004490,-0.00001874,0.00006
 611,-0.00445781,-0.00142389,-0.00182657,0.08648809,-0.10120052,-0.2451
 3594,-0.00004136,0.00001245,-0.00002438,0.01205320,-0.00963413,-0.0150
 5803,0.00000180,0.00001429,-0.00000664,0.00000666,-0.00001424,-0.00000
 679,0.00000260,-0.00000040,0.00000111,0.00000248,-0.00000095,0.0000021
 1,-0.00000146,-0.00000069,-0.00000082,0.00000259,0.00000073,0.00000192
 ,0.00000880,0.00000200,-0.00000985,0.00001241,-0.00000178,-0.00000027,
 0.00068913,0.00196991,0.00007433,0.00000168,-0.00000169,0.00000278,0.0
 0000629,0.00000260,-0.00000075,-0.00002528,0.00000211,0.00004378,-0.00
 000573,0.00000158,0.00000281,0.00000317,-0.00000819,0.00000164,0.00058
 402,-0.00054557,-0.00088881,-0.09191666,0.11142813,0.25694200,-0.00003
 578,-0.00000204,-0.00004066,0.00003459,-0.00000418,0.00001075,0.000039
 97,0.00000520,0.00001878,0.00033941,-0.00028107,-0.00009924,0.00000435
 ,-0.00000496,0.00001358,-0.00001415,-0.00001541,-0.00000205,0.00000468
 ,0.00001324,0.00000244,-0.00001032,0.00000920,-0.00001168,-0.00087430,
 0.00003250,-0.00007452,-0.00025506,0.00005514,-0.00008932,-0.00000207,
 -0.00000013,0.00000428,0.00000307,-0.00000037,0.00000308,0.00000777,0.
 00000197,0.00000103,0.00000439,0.00000033,0.00000502,0.00000484,-0.000
 00249,0.00000566,-0.00495754,0.00266817,-0.00198127,-0.00200393,0.0002
 1275,-0.00355782,-0.00062973,-0.00000166,0.00021413,0.00011336,-0.0000
 3563,-0.00008366,0.00000010,-0.00000120,0.00000244,-0.00000178,-0.0000
 0054,-0.00000040,0.00046488,0.00045534,0.00127729,-0.00654083,0.012968
 64,0.02722913,0.01052429,-0.00838741,-0.01671685,0.00014675,-0.0000130
 4,0.00010628,-0.00012800,-0.00000116,-0.00006981,-0.09464618,0.0459749
 9,0.08311652,-0.00004933,0.00008129,0.00012045,-0.00000097,0.00001373,
 -0.00000417,-0.00000503,-0.00000924,0.00000432,0.00000040,-0.00000002,
 0.00000072,0.00000051,-0.00000065,0.00000099,-0.00000245,-0.00000048,0
 .00000173,0.00000129,0.00000055,0.00000028,-0.00000057,-0.00000058,0.0
 0000012,0.00036134,-0.00037829,-0.00083925,-0.00000187,0.00000538,0.00
 001396,0.00000093,-0.00000016,0.00000168,0.00000127,0.00000020,0.00000
 062,-0.00002274,0.00004122,-0.00006578,0.00065220,-0.00135775,0.000146
 26,0.00059058,-0.00037560,0.00080763,-0.00000266,-0.00000726,-0.000010
 20,-0.00000518,0.00000009,0.00000557,0.09689995,0.00003309,0.00001359,
 0.00000192,-0.00001284,-0.00001403,-0.00002996,0.00001114,0.00003275,-
 0.00000042,-0.00015721,-0.00054745,0.00024172,0.00001090,0.00000810,0.
 00000723,0.00000286,-0.00001131,0.00000430,-0.00000527,0.00000717,-0.0
 0000894,-0.00000579,-0.00001199,0.00000384,-0.00016364,-0.00043055,0.0
 0038277,0.00003263,0.00009937,-0.00003439,-0.00000605,-0.00000799,-0.0
 0000070,-0.00000431,-0.00000375,-0.00000365,0.00000235,-0.00000214,-0.
 00000401,0.00000114,-0.00000084,0.00000439,-0.00000416,0.00000327,0.00
 000637,0.00297037,0.00790390,-0.00213830,-0.00014291,0.00406053,-0.001
 59445,-0.00003933,-0.00084548,0.00033734,0.00001307,0.00008852,-0.0000
 1978,0.00000312,-0.00000415,0.00000751,-0.00000559,-0.00000560,-0.0000
 0258,-0.00001857,0.00013686,-0.00046233,0.00178436,0.00064686,-0.00715
 398,0.00260340,0.00071288,-0.00268639,-0.00004640,-0.00007447,-0.00001
 580,0.00001278,-0.00001574,0.00001925,0.04633249,-0.08641443,-0.101535
 21,0.00005242,0.00006701,-0.00004447,-0.00000518,-0.00000193,0.0000015
 7,0.00000456,0.00001298,-0.00000520,-0.00000119,-0.00000117,-0.0000016
 2,-0.00000216,0.00000003,-0.00000168,-0.00000283,-0.00000051,0.0000033
 5,-0.00000048,-0.00000155,-0.00000214,0.00000319,-0.00000883,-0.000000
 35,0.00016699,0.00003127,-0.00015681,-0.00000071,-0.00000273,-0.000002
 47,-0.00000099,0.00000166,-0.00000090,-0.00000120,-0.00000386,-0.00000
 263,0.00006673,0.00021428,-0.00006816,-0.00112324,-0.00423242,0.002019
 96,-0.00069255,-0.00178824,0.00087202,-0.00000056,-0.00001253,0.000010
 33,-0.00000024,-0.00001337,0.00000105,-0.05167155,0.08040739,0.0000511
 5,-0.00002000,0.00000016,0.00000396,-0.00005832,0.00001098,0.00001967,
 0.00002973,-0.00004111,0.00022265,0.00016487,-0.00011314,-0.00000014,-
 0.00000777,0.00001121,-0.00000568,-0.00000148,-0.00000547,0.00000952,0
 .00000778,0.00001141,-0.00000037,0.00000761,-0.00000871,-0.00058529,0.
 00050380,0.00032790,-0.00014870,-0.00002021,-0.00002388,-0.00001133,0.
 00000290,-0.00000832,0.00000062,0.00000036,0.00000276,0.00000074,0.000
 00454,0.00000605,-0.00000074,0.00000224,-0.00000151,0.00000240,-0.0000
 0145,0.00000370,-0.00119593,-0.00232463,0.00266609,-0.00447993,-0.0013
 7540,-0.00169583,0.00011805,0.00036060,0.00002364,0.00004280,-0.000050
 00,-0.00000407,-0.00000178,0.00000171,-0.00000067,0.00000188,0.0000037
 5,0.00000260,0.00004800,-0.00016991,-0.00010049,-0.00178148,-0.0002371
 3,0.00211136,0.01179768,-0.00948252,-0.01493640,0.00002004,0.00000473,
 -0.00005473,-0.00003385,0.00001062,-0.00001348,0.08403816,-0.10175636,
 -0.24822171,0.00004569,-0.00002656,0.00005608,-0.00000899,-0.00001502,
 0.00000691,-0.00000419,0.00001440,-0.00000397,-0.00000234,-0.00000089,
 -0.00000458,-0.00000215,-0.00000060,-0.00000529,0.00000545,0.00000601,
 -0.00000399,-0.00000319,-0.00000164,-0.00000448,0.00000003,-0.00000386
 ,0.00000247,0.00057529,-0.00049409,-0.00079448,-0.00000177,0.00000127,
 0.00000026,-0.00000042,0.00000371,-0.00000714,-0.00000310,-0.00000586,
 -0.00000195,0.00000028,-0.00008393,0.00003891,0.00075411,0.00187522,0.
 00005288,-0.00001623,0.00106849,0.00047222,0.00000724,0.00000616,0.000
 00384,0.00000473,0.00000125,-0.00000765,-0.08948638,0.11206223,0.26025
 159,-0.00000958,0.00002968,0.00005930,-0.00003760,-0.00004013,0.000006
 35,-0.00000715,0.00005173,-0.00002215,-0.00002833,-0.00011525,0.000103
 21,0.00000684,-0.00000121,0.00000929,-0.00000378,-0.00000281,0.0000011
 3,0.00000653,0.00000621,0.00000156,-0.00000308,-0.00000188,-0.00000141
 ,0.00001080,0.00000248,-0.00006157,0.00054565,-0.00032450,-0.00012027,
 -0.00000515,-0.00000559,-0.00001226,-0.00000106,-0.00000258,-0.0000016
 6,0.00000276,0.00000082,0.00000070,0.00000118,0.00000027,-0.00000091,0
 .00000540,-0.00000209,0.00000090,-0.00002277,-0.00010794,0.00031626,0.
 00000868,0.00002485,0.00000844,0.00198011,0.00219457,0.00106813,0.0001
 0688,-0.00037800,-0.00379127,0.00000207,-0.00000171,0.00000224,0.00000
 063,-0.00000129,-0.00000073,-0.00053821,0.00009476,-0.00028022,-0.0000
 7165,-0.00002173,-0.00005144,0.00000955,-0.00000279,0.00001113,-0.0076
 0256,0.00191161,-0.00212992,-0.01283838,0.00523650,0.00415546,-0.00001
 673,0.00004880,0.00005630,-0.31612473,0.07136263,0.01156241,-0.0000016
 2,-0.00001965,0.00000167,0.00000662,0.00001776,-0.00001125,-0.00000400
 ,-0.00000070,-0.00000378,-0.00000382,0.00000005,-0.00000483,0.00000088
 ,0.00000559,-0.00000003,-0.00000458,-0.00000155,-0.00000381,-0.0000038
 0,-0.00000529,0.00000555,-0.00000381,-0.00000049,-0.00000240,-0.000704
 65,0.00028743,0.00022753,-0.00000258,0.00000465,-0.00000546,-0.0000059
 3,-0.00000567,-0.00000153,0.00002460,0.00006149,0.00001576,0.00000689,
 -0.00000163,0.00001036,-0.00001000,0.00000030,0.00000316,0.00053791,-0
 .00111377,0.00071883,0.00059369,-0.00069451,-0.00001428,-0.00001047,0.
 00000736,0.00000381,0.33420836,-0.00000513,0.00000999,-0.00003079,-0.0
 0001089,0.00002024,-0.00000546,0.00002513,0.00001422,0.00002581,-0.000
 23968,-0.00049863,0.00031653,0.00000833,0.00000679,0.00000998,-0.00000
 559,-0.00001560,0.00000519,-0.00000072,0.00000783,-0.00001196,-0.00000
 209,-0.00000986,-0.00000594,0.00002521,0.00006439,-0.00013000,-0.00012
 823,-0.00061853,-0.00008277,0.00000033,-0.00000754,0.00000431,-0.00000
 297,-0.00000233,-0.00000089,-0.00000605,0.00000373,0.00000326,0.000003
 77,-0.00000127,0.00000656,0.00000605,-0.00000208,0.00000164,-0.0000703
 3,-0.00092535,0.00010995,-0.00002396,0.00010223,-0.00000677,0.00189018
 ,0.00698439,-0.00518483,-0.00002244,0.00378140,-0.00224281,0.00000248,
 -0.00000405,0.00000734,-0.00000465,-0.00000631,-0.00000374,0.00056870,
 0.00026897,0.00024461,0.00001157,-0.00004561,0.00009486,-0.00001668,-0
 .00003392,-0.00004619,0.01309548,0.00077833,0.00020298,-0.00575337,0.0
 0380213,0.00015141,0.00007763,0.00006271,-0.00003998,0.07100601,-0.057
 19435,-0.01036559,0.00000428,0.00000988,-0.00000739,-0.00000107,-0.000
 00027,0.00000235,0.00000049,-0.00000059,0.00000092,0.00000115,-0.00000
 088,0.00000042,0.00000319,-0.00000726,-0.00000086,-0.00000009,0.000000
 71,0.00000154,-0.00000427,-0.00000209,0.00000295,0.00000560,-0.0000024
 7,0.00000206,-0.00025807,0.00017229,-0.00005440,0.00000224,-0.00000146
 ,0.00000162,-0.00000100,0.00000068,0.00000064,0.00003593,0.00020795,-0
 .00010344,-0.00000833,-0.00001378,0.00000222,0.00000064,-0.00001272,0.
 00000324,-0.00134753,-0.00421583,0.00192163,-0.00037740,-0.00178800,0.
 00106680,0.00001295,0.00000865,-0.00000637,-0.07849679,0.04910330,-0.0
 0003171,-0.00000937,-0.00002263,-0.00000156,-0.00000821,0.00004873,-0.
 00000786,0.00002672,0.00002415,-0.00022006,0.00039369,0.00020708,0.000
 00412,-0.00001340,0.00000965,-0.00000671,-0.00001218,-0.00001141,0.000
 01333,0.00000975,0.00000932,-0.00000142,0.00001360,-0.00001792,-0.0000
 0229,-0.00014412,-0.00025489,0.00039001,-0.00020358,-0.00090464,0.0000
 0329,0.00000074,-0.00000557,0.00000402,0.00000161,0.00000534,0.0000057
 4,0.00000447,0.00000519,0.00000166,0.00000214,0.00000209,-0.00000064,-
 0.00000040,0.00000842,0.00041287,0.00008714,-0.00050317,-0.00011783,0.
 00002325,0.00008674,0.00028468,-0.00499842,-0.00335096,-0.00286829,-0.
 00246448,-0.00352956,0.00000013,0.00000039,-0.00000286,0.00000329,0.00
 000277,0.00000091,0.00094859,-0.00004918,0.00077058,0.00003479,0.00007
 430,0.00013479,-0.00002481,-0.00003754,-0.00013291,0.02687377,-0.00672
 768,0.00303972,-0.02435376,0.00696454,0.00533655,0.00013115,-0.0000578
 3,0.00002781,0.01064141,-0.01014605,-0.05593966,0.00000266,0.00000146,
 -0.00000438,0.00000112,-0.00000971,-0.00000238,-0.00000071,0.00000020,
 -0.00000077,-0.00000139,-0.00000002,-0.00000006,-0.00000021,0.00000368
 ,-0.00000053,-0.00000067,0.00000041,-0.00000089,0.00000209,-0.00000072
 ,-0.00000106,0.00001340,-0.00000170,0.00000193,-0.00118798,0.00028381,
 0.00013196,-0.00000096,0.00000193,-0.00000051,-0.00000023,-0.00000106,
 0.00000070,-0.00005027,-0.00008771,-0.00000221,-0.00000707,0.00000639,
 -0.00000445,0.00000399,0.00000304,-0.00000346,0.00011074,0.00206753,0.
 00015053,0.00080955,0.00087028,0.00046901,0.00001833,-0.00000983,0.000
 00003,-0.01182831,0.01413937,0.05422565\\0.00000176,-0.00000044,0.0000
 0095,0.00000104,0.00000563,-0.00000152,-0.00000272,-0.00000430,0.00000
 408,-0.00000431,-0.00000016,-0.00000204,0.00000006,0.00000440,-0.00000
 319,-0.00000611,-0.00000217,-0.00000554,-0.00000104,-0.00000412,-0.000
 00047,0.00000300,0.00000257,-0.00000118,0.00000252,-0.00000041,-0.0000
 0033,0.00000204,-0.00000064,-0.00000265,-0.00000149,-0.00000183,-0.000
 00219,-0.00000095,-0.00000380,0.00000509,0.00000068,-0.00000245,0.0000
 0338,0.00000228,0.00000281,0.00000243,-0.00000041,-0.00000374,0.000004
 06,0.00000272,0.00000203,0.00000448,-0.00000423,-0.00000256,-0.0000084
 5,0.00000335,0.00000256,0.00000641,-0.00000275,0.00000243,0.00000165,-
 0.00000047,-0.00000066,-0.00000210,0.00000175,-0.00000032,0.00000122,0
 .00000378,-0.00000093,-0.00000252,0.00000273,-0.00000171,-0.00000351,-
 0.00001035,0.00000207,0.00000048,-0.00000472,0.00000232,0.00000143,-0.
 00000091,0.00000030,-0.00000065,-0.00000046,0.00000414,0.00000745,0.00
 000698,-0.00000052,-0.00000141,0.00000189,0.00000079,0.00000235,-0.000
 00055,-0.00000061,-0.00000051,0.00000004,-0.00000060,0.00000161,-0.000
 00167,-0.00000159,-0.00000066,-0.00000104,0.00000058,-0.00000057,-0.00
 000007,-0.00000106,0.00000107,0.00000072,0.00000282,-0.00000214,0.0000
 0271,0.00000059,0.00000350,0.00000027,-0.00000070,-0.00000142,-0.00000
 181,-0.00000092,0.00000011,0.00000019,-0.00000169,0.00000066,-0.000001
 25,0.00000080,-0.00000243,0.00000094,0.00000072,0.00000004,0.00000635,
 -0.00000190,-0.00000054,0.00000018,0.00000127,-0.00000157,0.00000068,0
 .00000020,-0.00000174,0.00000153,-0.00000096,-0.00000251,-0.00000290,0
 .00000177,-0.00000058\\\@


 I WANT IT ALL - RICH, THIN, AND CHOCOLATE.
 Job cpu time:       2 days  9 hours 41 minutes 16.7 seconds.
 File lengths (MBytes):  RWF=   2056 Int=      0 D2E=      0 Chk=     39 Scr=      1
 Normal termination of Gaussian 09 at Fri Feb 20 09:40:39 2015.
