 Entering Gaussian System, Link 0=g09
 Input=freq-b971_107-21-1.gau
 Output=freq-b971_107-21-1.log
 Initial command:
 /opt/g09/l1.exe "/scratch/pb556/g09_run/add_hco//Gau-14492.inp" -scrdir="/scratch/pb556/g09_run/add_hco//"
 Entering Link 1 = /opt/g09/l1.exe PID=     14501.
  
 Copyright (c) 1988,1990,1992,1993,1995,1998,2003,2009,2013,
            Gaussian, Inc.  All Rights Reserved.
  
 This is part of the Gaussian(R) 09 program.  It is based on
 the Gaussian(R) 03 system (copyright 2003, Gaussian, Inc.),
 the Gaussian(R) 98 system (copyright 1998, Gaussian, Inc.),
 the Gaussian(R) 94 system (copyright 1995, Gaussian, Inc.),
 the Gaussian 92(TM) system (copyright 1992, Gaussian, Inc.),
 the Gaussian 90(TM) system (copyright 1990, Gaussian, Inc.),
 the Gaussian 88(TM) system (copyright 1988, Gaussian, Inc.),
 the Gaussian 86(TM) system (copyright 1986, Carnegie Mellon
 University), and the Gaussian 82(TM) system (copyright 1983,
 Carnegie Mellon University). Gaussian is a federally registered
 trademark of Gaussian, Inc.
  
 This software contains proprietary and confidential information,
 including trade secrets, belonging to Gaussian, Inc.
  
 This software is provided under written license and may be
 used, copied, transmitted, or stored only in accord with that
 written license.
  
 The following legend is applicable only to US Government
 contracts under FAR:
  
                    RESTRICTED RIGHTS LEGEND
  
 Use, reproduction and disclosure by the US Government is
 subject to restrictions as set forth in subparagraphs (a)
 and (c) of the Commercial Computer Software - Restricted
 Rights clause in FAR 52.227-19.
  
 Gaussian, Inc.
 340 Quinnipiac St., Bldg. 40, Wallingford CT 06492
  
  
 ---------------------------------------------------------------
 Warning -- This program may not be used in any manner that
 competes with the business of Gaussian, Inc. or will provide
 assistance to any competitor of Gaussian, Inc.  The licensee
 of this program is prohibited from giving any competitor of
 Gaussian, Inc. access to this program.  By using this program,
 the user acknowledges that Gaussian, Inc. is engaged in the
 business of creating and licensing software in the field of
 computational chemistry and represents and warrants to the
 licensee that it is not a competitor of Gaussian, Inc. and that
 it will not use this program in any manner prohibited above.
 ---------------------------------------------------------------
  

 Cite this work as:
 Gaussian 09, Revision D.01,
 M. J. Frisch, G. W. Trucks, H. B. Schlegel, G. E. Scuseria, 
 M. A. Robb, J. R. Cheeseman, G. Scalmani, V. Barone, B. Mennucci, 
 G. A. Petersson, H. Nakatsuji, M. Caricato, X. Li, H. P. Hratchian, 
 A. F. Izmaylov, J. Bloino, G. Zheng, J. L. Sonnenberg, M. Hada, 
 M. Ehara, K. Toyota, R. Fukuda, J. Hasegawa, M. Ishida, T. Nakajima, 
 Y. Honda, O. Kitao, H. Nakai, T. Vreven, J. A. Montgomery, Jr., 
 J. E. Peralta, F. Ogliaro, M. Bearpark, J. J. Heyd, E. Brothers, 
 K. N. Kudin, V. N. Staroverov, T. Keith, R. Kobayashi, J. Normand, 
 K. Raghavachari, A. Rendell, J. C. Burant, S. S. Iyengar, J. Tomasi, 
 M. Cossi, N. Rega, J. M. Millam, M. Klene, J. E. Knox, J. B. Cross, 
 V. Bakken, C. Adamo, J. Jaramillo, R. Gomperts, R. E. Stratmann, 
 O. Yazyev, A. J. Austin, R. Cammi, C. Pomelli, J. W. Ochterski, 
 R. L. Martin, K. Morokuma, V. G. Zakrzewski, G. A. Voth, 
 P. Salvador, J. J. Dannenberg, S. Dapprich, A. D. Daniels, 
 O. Farkas, J. B. Foresman, J. V. Ortiz, J. Cioslowski, 
 and D. J. Fox, Gaussian, Inc., Wallingford CT, 2013.
 
 ******************************************
 Gaussian 09:  ES64L-G09RevD.01 24-Apr-2013
                20-Feb-2015 
 ******************************************
 %NProcShared=8
 Will use up to    8 processors via shared memory.
 %Mem=500MW
 ----------------------------------------------------------------------
 #p rB971/6-311+G(d,p) Opt=(Tight, CalcAll) Freq GFInput Population=Non
 e Integral(Grid=UltraFine) Guess=MIX NoSymmetry
 ----------------------------------------------------------------------
 1/7=10,10=4,14=-1,18=20,19=15,26=4,38=1/1,3;
 2/9=110,12=2,15=1,17=6,18=5,40=1/2;
 3/5=4,6=6,7=111,11=2,16=1,24=10,25=1,30=1,71=2,74=-20,75=-5,116=1,140=1/1,2,3;
 4/13=-1/1;
 5/5=2,38=5/2;
 8/6=4,10=90,11=11/1;
 11/6=1,8=1,9=11,15=111,16=1,31=1/1,2,10;
 10/6=1,31=1/2;
 7/10=1,25=1,30=1/1,2,3,16;
 1/7=10,10=4,14=-1,18=20,19=15,26=4/3(3);
 2/9=110,15=1/2;
 7/8=1,9=1,25=1,30=1,44=-1/16;
 99//99;
 2/9=110,15=1/2;
 3/5=4,6=6,7=111,11=2,16=1,25=1,30=1,71=2,74=-20,75=-5,116=1,140=1/1,2,3;
 4/5=5,16=3,69=1/1;
 5/5=2,38=5/2;
 8/6=4,10=90,11=11/1;
 11/6=1,8=1,9=11,15=111,16=1,31=1/1,2,10;
 10/6=1,31=1/2;
 7/10=1,25=1,30=1/1,2,3,16;
 1/7=10,10=4,14=-1,18=20,19=15,26=4/3(-8);
 2/9=110,15=1/2;
 7/8=1,9=1,25=1,30=1,44=-1/16;
 99//99;
 Leave Link    1 at Fri Feb 20 11:01:50 2015, MaxMem=   524288000 cpu:         0.5
 (Enter /opt/g09/l101.exe)
 ----------------------
 freq-b971_107-21-1.gau
 ----------------------
 Symbolic Z-matrix:
 Charge =  0 Multiplicity = 1
 C                     1.04057   2.16449   1.62355 
 O                     1.63355   2.09679   2.92286 
 C                     1.3429    0.84152   0.93558 
 O                     2.73617   0.63226   0.78189 
 H                     1.47464   2.98873   1.04079 
 H                    -0.04791   2.30893   1.69405 
 H                     1.65474   2.9761    3.30726 
 H                     0.90721   0.83912  -0.06832 
 H                     0.88302   0.02377   1.51169 
 H                     3.1286    0.74501   1.65465 
 
 NAtoms=     10 NQM=       10 NQMF=       0 NMMI=      0 NMMIF=      0
                NMic=       0 NMicF=      0.
                    Isotopes and Nuclear Properties:
 (Nuclear quadrupole moments (NQMom) in fm**2, nuclear magnetic moments (NMagM)
  in nuclear magnetons)

  Atom         1           2           3           4           5           6           7           8           9          10
 IAtWgt=          12          16          12          16           1           1           1           1           1           1
 AtmWgt=  12.0000000  15.9949146  12.0000000  15.9949146   1.0078250   1.0078250   1.0078250   1.0078250   1.0078250   1.0078250
 NucSpn=           0           0           0           0           1           1           1           1           1           1
 AtZEff=   0.0000000   0.0000000   0.0000000   0.0000000   0.0000000   0.0000000   0.0000000   0.0000000   0.0000000   0.0000000
 NQMom=    0.0000000   0.0000000   0.0000000   0.0000000   0.0000000   0.0000000   0.0000000   0.0000000   0.0000000   0.0000000
 NMagM=    0.0000000   0.0000000   0.0000000   0.0000000   2.7928460   2.7928460   2.7928460   2.7928460   2.7928460   2.7928460
 AtZNuc=   6.0000000   8.0000000   6.0000000   8.0000000   1.0000000   1.0000000   1.0000000   1.0000000   1.0000000   1.0000000
 Leave Link  101 at Fri Feb 20 11:01:51 2015, MaxMem=   524288000 cpu:         1.9
 (Enter /opt/g09/l103.exe)

 GradGradGradGradGradGradGradGradGradGradGradGradGradGradGradGradGradGrad
 Berny optimization.
 Initialization pass.
                           ----------------------------
                           !    Initial Parameters    !
                           ! (Angstroms and Degrees)  !
 --------------------------                            --------------------------
 ! Name  Definition              Value          Derivative Info.                !
 --------------------------------------------------------------------------------
 ! R1    R(1,2)                  1.4298         calculate D2E/DX2 analytically  !
 ! R2    R(1,3)                  1.5215         calculate D2E/DX2 analytically  !
 ! R3    R(1,5)                  1.0988         calculate D2E/DX2 analytically  !
 ! R4    R(1,6)                  1.1003         calculate D2E/DX2 analytically  !
 ! R5    R(2,7)                  0.9599         calculate D2E/DX2 analytically  !
 ! R6    R(3,4)                  1.4173         calculate D2E/DX2 analytically  !
 ! R7    R(3,8)                  1.0944         calculate D2E/DX2 analytically  !
 ! R8    R(3,9)                  1.101          calculate D2E/DX2 analytically  !
 ! R9    R(4,10)                 0.9635         calculate D2E/DX2 analytically  !
 ! A1    A(2,1,3)              106.6972         calculate D2E/DX2 analytically  !
 ! A2    A(2,1,5)              110.7094         calculate D2E/DX2 analytically  !
 ! A3    A(2,1,6)              110.9935         calculate D2E/DX2 analytically  !
 ! A4    A(3,1,5)              109.5079         calculate D2E/DX2 analytically  !
 ! A5    A(3,1,6)              109.8581         calculate D2E/DX2 analytically  !
 ! A6    A(5,1,6)              109.0448         calculate D2E/DX2 analytically  !
 ! A7    A(1,2,7)              109.2498         calculate D2E/DX2 analytically  !
 ! A8    A(1,3,4)              111.8861         calculate D2E/DX2 analytically  !
 ! A9    A(1,3,8)              109.7298         calculate D2E/DX2 analytically  !
 ! A10   A(1,3,9)              109.0404         calculate D2E/DX2 analytically  !
 ! A11   A(4,3,8)              106.9526         calculate D2E/DX2 analytically  !
 ! A12   A(4,3,9)              110.96           calculate D2E/DX2 analytically  !
 ! A13   A(8,3,9)              108.1855         calculate D2E/DX2 analytically  !
 ! A14   A(3,4,10)             106.5518         calculate D2E/DX2 analytically  !
 ! D1    D(3,1,2,7)            166.2809         calculate D2E/DX2 analytically  !
 ! D2    D(5,1,2,7)             47.195          calculate D2E/DX2 analytically  !
 ! D3    D(6,1,2,7)            -74.0516         calculate D2E/DX2 analytically  !
 ! D4    D(2,1,3,4)            -61.5624         calculate D2E/DX2 analytically  !
 ! D5    D(2,1,3,8)            179.8896         calculate D2E/DX2 analytically  !
 ! D6    D(2,1,3,9)             61.5615         calculate D2E/DX2 analytically  !
 ! D7    D(5,1,3,4)             58.3019         calculate D2E/DX2 analytically  !
 ! D8    D(5,1,3,8)            -60.2462         calculate D2E/DX2 analytically  !
 ! D9    D(5,1,3,9)           -178.5743         calculate D2E/DX2 analytically  !
 ! D10   D(6,1,3,4)            178.0388         calculate D2E/DX2 analytically  !
 ! D11   D(6,1,3,8)             59.4907         calculate D2E/DX2 analytically  !
 ! D12   D(6,1,3,9)            -58.8374         calculate D2E/DX2 analytically  !
 ! D13   D(1,3,4,10)            52.8971         calculate D2E/DX2 analytically  !
 ! D14   D(8,3,4,10)           173.0816         calculate D2E/DX2 analytically  !
 ! D15   D(9,3,4,10)           -69.1331         calculate D2E/DX2 analytically  !
 --------------------------------------------------------------------------------
 Trust Radius=3.00D-01 FncErr=1.00D-07 GrdErr=1.00D-06
 Number of steps in this run=     48 maximum allowed number of steps=    100.
 GradGradGradGradGradGradGradGradGradGradGradGradGradGradGradGradGradGrad

 Leave Link  103 at Fri Feb 20 11:01:51 2015, MaxMem=   524288000 cpu:         0.1
 (Enter /opt/g09/l202.exe)
                          Input orientation:                          
 ---------------------------------------------------------------------
 Center     Atomic      Atomic             Coordinates (Angstroms)
 Number     Number       Type             X           Y           Z
 ---------------------------------------------------------------------
      1          6           0        1.040570    2.164490    1.623550
      2          8           0        1.633550    2.096790    2.922860
      3          6           0        1.342900    0.841520    0.935580
      4          8           0        2.736170    0.632260    0.781890
      5          1           0        1.474640    2.988730    1.040790
      6          1           0       -0.047910    2.308930    1.694050
      7          1           0        1.654740    2.976100    3.307260
      8          1           0        0.907210    0.839120   -0.068320
      9          1           0        0.883020    0.023770    1.511690
     10          1           0        3.128600    0.745010    1.654650
 ---------------------------------------------------------------------
                    Distance matrix (angstroms):
                    1          2          3          4          5
     1  C    0.000000
     2  O    1.429830   0.000000
     3  C    1.521498   2.368430   0.000000
     4  O    2.435401   2.818576   1.417255   0.000000
     5  H    1.098816   2.088779   2.153819   2.685412   0.000000
     6  H    1.100283   2.093391   2.159380   3.375553   1.790820
     7  H    1.967434   0.959895   3.206017   3.611173   2.273649
     8  H    2.153326   3.325126   1.094370   2.027497   2.484537
     9  H    2.149422   2.617653   1.100957   2.082554   3.059861
    10  H    2.525027   2.381353   1.927460   0.963548   2.854240
                    6          7          8          9         10
     6  H    0.000000
     7  H    2.438561   0.000000
     8  H    2.485668   4.064483   0.000000
     9  H    2.474236   3.540604   1.778149   0.000000
    10  H    3.540849   3.143429   2.812838   2.362891   0.000000
 Symmetry turned off by external request.
 Stoichiometry    C2H6O2
 Framework group  C1[X(C2H6O2)]
 Deg. of freedom    24
 Full point group                 C1      NOp   1
 Rotational constants (GHZ):     15.3806604      5.5572216      4.5939638
 Leave Link  202 at Fri Feb 20 11:01:51 2015, MaxMem=   524288000 cpu:         0.0
 (Enter /opt/g09/l301.exe)
 Standard basis: 6-311+G(d,p) (5D, 7F)
 Ernie: Thresh=  0.10000D-02 Tol=  0.10000D-05 Strict=F.
 AO basis set in the form of general basis input (Overlap normalization):
      1 0
 S   6 1.00       0.000000000000
      0.4563240000D+04  0.1966650249D-02
      0.6820240000D+03  0.1523060193D-01
      0.1549730000D+03  0.7612690966D-01
      0.4445530000D+02  0.2608010331D+00
      0.1302900000D+02  0.6164620782D+00
      0.1827730000D+01  0.2210060280D+00
 SP   3 1.00       0.000000000000
      0.2096420000D+02  0.1146600807D+00  0.4024869267D-01
      0.4803310000D+01  0.9199996477D+00  0.2375939567D+00
      0.1459330000D+01 -0.3030682134D-02  0.8158538515D+00
 SP   1 1.00       0.000000000000
      0.4834560000D+00  0.1000000000D+01  0.1000000000D+01
 SP   1 1.00       0.000000000000
      0.1455850000D+00  0.1000000000D+01  0.1000000000D+01
 SP   1 1.00       0.000000000000
      0.4380000000D-01  0.1000000000D+01  0.1000000000D+01
 D   1 1.00       0.000000000000
      0.6260000000D+00  0.1000000000D+01
 ****
      2 0
 S   6 1.00       0.000000000000
      0.8588500000D+04  0.1895150083D-02
      0.1297230000D+04  0.1438590063D-01
      0.2992960000D+03  0.7073200310D-01
      0.8737710000D+02  0.2400010105D+00
      0.2567890000D+02  0.5947970261D+00
      0.3740040000D+01  0.2808020123D+00
 SP   3 1.00       0.000000000000
      0.4211750000D+02  0.1138890124D+00  0.3651139738D-01
      0.9628370000D+01  0.9208111006D+00  0.2371529830D+00
      0.2853320000D+01 -0.3274470358D-02  0.8197019412D+00
 SP   1 1.00       0.000000000000
      0.9056610000D+00  0.1000000000D+01  0.1000000000D+01
 SP   1 1.00       0.000000000000
      0.2556110000D+00  0.1000000000D+01  0.1000000000D+01
 SP   1 1.00       0.000000000000
      0.8450000000D-01  0.1000000000D+01  0.1000000000D+01
 D   1 1.00       0.000000000000
      0.1292000000D+01  0.1000000000D+01
 ****
      3 0
 S   6 1.00       0.000000000000
      0.4563240000D+04  0.1966650249D-02
      0.6820240000D+03  0.1523060193D-01
      0.1549730000D+03  0.7612690966D-01
      0.4445530000D+02  0.2608010331D+00
      0.1302900000D+02  0.6164620782D+00
      0.1827730000D+01  0.2210060280D+00
 SP   3 1.00       0.000000000000
      0.2096420000D+02  0.1146600807D+00  0.4024869267D-01
      0.4803310000D+01  0.9199996477D+00  0.2375939567D+00
      0.1459330000D+01 -0.3030682134D-02  0.8158538515D+00
 SP   1 1.00       0.000000000000
      0.4834560000D+00  0.1000000000D+01  0.1000000000D+01
 SP   1 1.00       0.000000000000
      0.1455850000D+00  0.1000000000D+01  0.1000000000D+01
 SP   1 1.00       0.000000000000
      0.4380000000D-01  0.1000000000D+01  0.1000000000D+01
 D   1 1.00       0.000000000000
      0.6260000000D+00  0.1000000000D+01
 ****
      4 0
 S   6 1.00       0.000000000000
      0.8588500000D+04  0.1895150083D-02
      0.1297230000D+04  0.1438590063D-01
      0.2992960000D+03  0.7073200310D-01
      0.8737710000D+02  0.2400010105D+00
      0.2567890000D+02  0.5947970261D+00
      0.3740040000D+01  0.2808020123D+00
 SP   3 1.00       0.000000000000
      0.4211750000D+02  0.1138890124D+00  0.3651139738D-01
      0.9628370000D+01  0.9208111006D+00  0.2371529830D+00
      0.2853320000D+01 -0.3274470358D-02  0.8197019412D+00
 SP   1 1.00       0.000000000000
      0.9056610000D+00  0.1000000000D+01  0.1000000000D+01
 SP   1 1.00       0.000000000000
      0.2556110000D+00  0.1000000000D+01  0.1000000000D+01
 SP   1 1.00       0.000000000000
      0.8450000000D-01  0.1000000000D+01  0.1000000000D+01
 D   1 1.00       0.000000000000
      0.1292000000D+01  0.1000000000D+01
 ****
      5 0
 S   3 1.00       0.000000000000
      0.3386500000D+02  0.2549381454D-01
      0.5094790000D+01  0.1903731086D+00
      0.1158790000D+01  0.8521614860D+00
 S   1 1.00       0.000000000000
      0.3258400000D+00  0.1000000000D+01
 S   1 1.00       0.000000000000
      0.1027410000D+00  0.1000000000D+01
 P   1 1.00       0.000000000000
      0.7500000000D+00  0.1000000000D+01
 ****
      6 0
 S   3 1.00       0.000000000000
      0.3386500000D+02  0.2549381454D-01
      0.5094790000D+01  0.1903731086D+00
      0.1158790000D+01  0.8521614860D+00
 S   1 1.00       0.000000000000
      0.3258400000D+00  0.1000000000D+01
 S   1 1.00       0.000000000000
      0.1027410000D+00  0.1000000000D+01
 P   1 1.00       0.000000000000
      0.7500000000D+00  0.1000000000D+01
 ****
      7 0
 S   3 1.00       0.000000000000
      0.3386500000D+02  0.2549381454D-01
      0.5094790000D+01  0.1903731086D+00
      0.1158790000D+01  0.8521614860D+00
 S   1 1.00       0.000000000000
      0.3258400000D+00  0.1000000000D+01
 S   1 1.00       0.000000000000
      0.1027410000D+00  0.1000000000D+01
 P   1 1.00       0.000000000000
      0.7500000000D+00  0.1000000000D+01
 ****
      8 0
 S   3 1.00       0.000000000000
      0.3386500000D+02  0.2549381454D-01
      0.5094790000D+01  0.1903731086D+00
      0.1158790000D+01  0.8521614860D+00
 S   1 1.00       0.000000000000
      0.3258400000D+00  0.1000000000D+01
 S   1 1.00       0.000000000000
      0.1027410000D+00  0.1000000000D+01
 P   1 1.00       0.000000000000
      0.7500000000D+00  0.1000000000D+01
 ****
      9 0
 S   3 1.00       0.000000000000
      0.3386500000D+02  0.2549381454D-01
      0.5094790000D+01  0.1903731086D+00
      0.1158790000D+01  0.8521614860D+00
 S   1 1.00       0.000000000000
      0.3258400000D+00  0.1000000000D+01
 S   1 1.00       0.000000000000
      0.1027410000D+00  0.1000000000D+01
 P   1 1.00       0.000000000000
      0.7500000000D+00  0.1000000000D+01
 ****
     10 0
 S   3 1.00       0.000000000000
      0.3386500000D+02  0.2549381454D-01
      0.5094790000D+01  0.1903731086D+00
      0.1158790000D+01  0.8521614860D+00
 S   1 1.00       0.000000000000
      0.3258400000D+00  0.1000000000D+01
 S   1 1.00       0.000000000000
      0.1027410000D+00  0.1000000000D+01
 P   1 1.00       0.000000000000
      0.7500000000D+00  0.1000000000D+01
 ****

   124 basis functions,   192 primitive gaussians,   128 cartesian basis functions
    17 alpha electrons       17 beta electrons
       nuclear repulsion energy       133.0385614065 Hartrees.
 IExCor= 1614 DFT=T Ex+Corr=B971 ExCW=0 ScaHFX=  0.210000
 ScaDFX=  1.000000  1.000000  1.000000  1.000000 ScalE2=  1.000000  1.000000
 IRadAn=      5 IRanWt=     -1 IRanGd=            0 ICorTp=0 IEmpDi=  4
 NAtoms=   10 NActive=   10 NUniq=   10 SFac= 1.00D+00 NAtFMM=   60 NAOKFM=F Big=F
 Integral buffers will be    131072 words long.
 Raffenetti 2 integral format.
 Two-electron integral symmetry is turned off.
 Leave Link  301 at Fri Feb 20 11:01:51 2015, MaxMem=   524288000 cpu:         0.4
 (Enter /opt/g09/l302.exe)
 NPDir=0 NMtPBC=     1 NCelOv=     1 NCel=       1 NClECP=     1 NCelD=      1
         NCelK=      1 NCelE2=     1 NClLst=     1 CellRange=     0.0.
 One-electron integrals computed using PRISM.
 NBasis=   124 RedAO= T EigKep=  1.28D-04  NBF=   124
 NBsUse=   124 1.00D-06 EigRej= -1.00D+00 NBFU=   124
 Precomputing XC quadrature grid using
 IXCGrd= 4 IRadAn=           5 IRanWt=          -1 IRanGd=           0 AccXCQ= 0.00D+00.
 Generated NRdTot=       0 NPtTot=           0 NUsed=           0 NTot=          32
 NSgBfM=   128   128   128   128   128 MxSgAt=    10 MxSgA2=    10.
 Leave Link  302 at Fri Feb 20 11:01:51 2015, MaxMem=   524288000 cpu:         1.7
 (Enter /opt/g09/l303.exe)
 DipDrv:  MaxL=1.
 Leave Link  303 at Fri Feb 20 11:01:51 2015, MaxMem=   524288000 cpu:         0.3
 (Enter /opt/g09/l401.exe)
 ExpMin= 4.38D-02 ExpMax= 8.59D+03 ExpMxC= 1.30D+03 IAcc=3 IRadAn=         5 AccDes= 0.00D+00
 Harris functional with IExCor= 1614 and IRadAn=       5 diagonalized for initial guess.
 HarFok:  IExCor= 1614 AccDes= 0.00D+00 IRadAn=         5 IDoV= 1 UseB2=F ITyADJ=14
 ICtDFT=  3500011 ScaDFX=  1.000000  1.000000  1.000000  1.000000
 FoFCou: FMM=F IPFlag=           0 FMFlag=      100000 FMFlg1=           0
         NFxFlg=           0 DoJE=T BraDBF=F KetDBF=T FulRan=T
         wScrn=  0.000000 ICntrl=     500 IOpCl=  0 I1Cent=   200000004 NGrid=           0
         NMat0=    1 NMatS0=      1 NMatT0=    0 NMatD0=    1 NMtDS0=    0 NMtDT0=    0
 Symmetry not used in FoFCou.
 Harris En= -224.265339111807    
 JPrj=0 DoOrth=F DoCkMO=T.
 Mixing orbitals, IMix= 1 IMixAn=  0 NRI=1 NE=   17 Coef=  7.07106781D-01  7.07106781D-01
 Leave Link  401 at Fri Feb 20 11:01:52 2015, MaxMem=   524288000 cpu:         5.2
 (Enter /opt/g09/l502.exe)
 Closed shell SCF:
 Using DIIS extrapolation, IDIIS=  1040.
 Two-electron integral symmetry not used.
 Keep R1 ints in memory in canonical form, NReq=31177919.
 IVT=       69514 IEndB=       69514 NGot=   524288000 MDV=   494183362
 LenX=   494183362 LenY=   494166537
 Requested convergence on RMS density matrix=1.00D-08 within 128 cycles.
 Requested convergence on MAX density matrix=1.00D-06.
 Requested convergence on             energy=1.00D-06.
 No special actions if energy rises.
 FoFCou: FMM=F IPFlag=           0 FMFlag=           0 FMFlg1=           0
         NFxFlg=           0 DoJE=F BraDBF=F KetDBF=F FulRan=T
         wScrn=  0.000000 ICntrl=     600 IOpCl=  0 I1Cent=           0 NGrid=           0
         NMat0=    1 NMatS0=   7750 NMatT0=    0 NMatD0=    1 NMtDS0=    0 NMtDT0=    0
 Symmetry not used in FoFCou.

 Cycle   1  Pass 1  IDiag  1:
 E= -229.866320784898    
 DIIS: error= 7.37D-02 at cycle   1 NSaved=   1.
 NSaved= 1 IEnMin= 1 EnMin= -229.866320784898     IErMin= 1 ErrMin= 7.37D-02
 ErrMax= 7.37D-02  0.00D+00 EMaxC= 1.00D-01 BMatC= 5.39D-01 BMatP= 5.39D-01
 IDIUse=3 WtCom= 2.63D-01 WtEn= 7.37D-01
 Coeff-Com:  0.100D+01
 Coeff-En:   0.100D+01
 Coeff:      0.100D+01
 Gap=     0.014 Goal=   None    Shift=    0.000
 GapD=    0.014 DampG=0.250 DampE=0.500 DampFc=0.2500 IDamp=-1.
 Damping current iteration by 2.50D-01
 RMSDP=3.61D-02 MaxDP=2.09D+00              OVMax= 4.43D-01

 Cycle   2  Pass 1  IDiag  1:
 E= -229.985871701574     Delta-E=       -0.119550916676 Rises=F Damp=T
 DIIS: error= 5.34D-02 at cycle   2 NSaved=   2.
 NSaved= 2 IEnMin= 2 EnMin= -229.985871701574     IErMin= 2 ErrMin= 5.34D-02
 ErrMax= 5.34D-02  0.00D+00 EMaxC= 1.00D-01 BMatC= 2.18D-01 BMatP= 5.39D-01
 IDIUse=3 WtCom= 4.66D-01 WtEn= 5.34D-01
 Coeff-Com: -0.100D+01 0.200D+01
 Coeff-En:   0.000D+00 0.100D+01
 Coeff:     -0.468D+00 0.147D+01
 Gap=     0.334 Goal=   None    Shift=    0.000
 RMSDP=2.71D-02 MaxDP=1.55D+00 DE=-1.20D-01 OVMax= 1.00D-01

 Cycle   3  Pass 1  IDiag  1:
 E= -230.251929384444     Delta-E=       -0.266057682871 Rises=F Damp=F
 DIIS: error= 5.84D-03 at cycle   3 NSaved=   3.
 NSaved= 3 IEnMin= 3 EnMin= -230.251929384444     IErMin= 3 ErrMin= 5.84D-03
 ErrMax= 5.84D-03  0.00D+00 EMaxC= 1.00D-01 BMatC= 6.73D-03 BMatP= 2.18D-01
 IDIUse=3 WtCom= 9.42D-01 WtEn= 5.84D-02
 Coeff-Com:  0.223D+00-0.264D+00 0.104D+01
 Coeff-En:   0.000D+00 0.000D+00 0.100D+01
 Coeff:      0.210D+00-0.248D+00 0.104D+01
 Gap=     0.279 Goal=   None    Shift=    0.000
 RMSDP=1.38D-03 MaxDP=2.25D-02 DE=-2.66D-01 OVMax= 3.29D-02

 Cycle   4  Pass 1  IDiag  1:
 E= -230.257123058430     Delta-E=       -0.005193673986 Rises=F Damp=F
 DIIS: error= 4.95D-03 at cycle   4 NSaved=   4.
 NSaved= 4 IEnMin= 4 EnMin= -230.257123058430     IErMin= 4 ErrMin= 4.95D-03
 ErrMax= 4.95D-03  0.00D+00 EMaxC= 1.00D-01 BMatC= 2.37D-03 BMatP= 6.73D-03
 IDIUse=3 WtCom= 9.51D-01 WtEn= 4.95D-02
 Coeff-Com:  0.425D-01-0.491D-01 0.424D+00 0.583D+00
 Coeff-En:   0.000D+00 0.000D+00 0.139D+00 0.861D+00
 Coeff:      0.404D-01-0.467D-01 0.409D+00 0.597D+00
 Gap=     0.279 Goal=   None    Shift=    0.000
 RMSDP=3.77D-04 MaxDP=8.23D-03 DE=-5.19D-03 OVMax= 1.27D-02

 Cycle   5  Pass 1  IDiag  1:
 E= -230.259061845361     Delta-E=       -0.001938786931 Rises=F Damp=F
 DIIS: error= 1.09D-03 at cycle   5 NSaved=   5.
 NSaved= 5 IEnMin= 5 EnMin= -230.259061845361     IErMin= 5 ErrMin= 1.09D-03
 ErrMax= 1.09D-03  0.00D+00 EMaxC= 1.00D-01 BMatC= 2.79D-04 BMatP= 2.37D-03
 IDIUse=3 WtCom= 9.89D-01 WtEn= 1.09D-02
 Coeff-Com: -0.284D-01 0.406D-01 0.625D-01 0.277D+00 0.649D+00
 Coeff-En:   0.000D+00 0.000D+00 0.000D+00 0.000D+00 0.100D+01
 Coeff:     -0.281D-01 0.401D-01 0.618D-01 0.274D+00 0.653D+00
 Gap=     0.278 Goal=   None    Shift=    0.000
 RMSDP=1.15D-04 MaxDP=2.09D-03 DE=-1.94D-03 OVMax= 3.50D-03

 Cycle   6  Pass 1  IDiag  1:
 E= -230.259274147618     Delta-E=       -0.000212302257 Rises=F Damp=F
 DIIS: error= 3.52D-04 at cycle   6 NSaved=   6.
 NSaved= 6 IEnMin= 6 EnMin= -230.259274147618     IErMin= 6 ErrMin= 3.52D-04
 ErrMax= 3.52D-04  0.00D+00 EMaxC= 1.00D-01 BMatC= 1.76D-05 BMatP= 2.79D-04
 IDIUse=3 WtCom= 9.96D-01 WtEn= 3.52D-03
 Coeff-Com: -0.153D-01 0.214D-01 0.537D-02 0.996D-01 0.317D+00 0.572D+00
 Coeff-En:   0.000D+00 0.000D+00 0.000D+00 0.000D+00 0.000D+00 0.100D+01
 Coeff:     -0.152D-01 0.214D-01 0.535D-02 0.993D-01 0.315D+00 0.574D+00
 Gap=     0.279 Goal=   None    Shift=    0.000
 RMSDP=4.03D-05 MaxDP=6.88D-04 DE=-2.12D-04 OVMax= 1.07D-03

 Cycle   7  Pass 1  IDiag  1:
 E= -230.259285325527     Delta-E=       -0.000011177909 Rises=F Damp=F
 DIIS: error= 1.45D-04 at cycle   7 NSaved=   7.
 NSaved= 7 IEnMin= 7 EnMin= -230.259285325527     IErMin= 7 ErrMin= 1.45D-04
 ErrMax= 1.45D-04  0.00D+00 EMaxC= 1.00D-01 BMatC= 2.83D-06 BMatP= 1.76D-05
 IDIUse=3 WtCom= 9.99D-01 WtEn= 1.45D-03
 Coeff-Com: -0.719D-03 0.748D-03-0.865D-02-0.355D-03 0.388D-01 0.302D+00
 Coeff-Com:  0.668D+00
 Coeff-En:   0.000D+00 0.000D+00 0.000D+00 0.000D+00 0.000D+00 0.778D-01
 Coeff-En:   0.922D+00
 Coeff:     -0.718D-03 0.747D-03-0.864D-02-0.354D-03 0.388D-01 0.301D+00
 Coeff:      0.669D+00
 Gap=     0.279 Goal=   None    Shift=    0.000
 RMSDP=1.33D-05 MaxDP=2.28D-04 DE=-1.12D-05 OVMax= 4.38D-04

 Cycle   8  Pass 1  IDiag  1:
 E= -230.259287540065     Delta-E=       -0.000002214538 Rises=F Damp=F
 DIIS: error= 1.43D-05 at cycle   8 NSaved=   8.
 NSaved= 8 IEnMin= 8 EnMin= -230.259287540065     IErMin= 8 ErrMin= 1.43D-05
 ErrMax= 1.43D-05  0.00D+00 EMaxC= 1.00D-01 BMatC= 3.60D-08 BMatP= 2.83D-06
 IDIUse=1 WtCom= 1.00D+00 WtEn= 0.00D+00
 Coeff-Com:  0.469D-03-0.737D-03-0.249D-02-0.271D-02-0.175D-04 0.643D-01
 Coeff-Com:  0.184D+00 0.758D+00
 Coeff:      0.469D-03-0.737D-03-0.249D-02-0.271D-02-0.175D-04 0.643D-01
 Coeff:      0.184D+00 0.758D+00
 Gap=     0.279 Goal=   None    Shift=    0.000
 RMSDP=2.87D-06 MaxDP=5.89D-05 DE=-2.21D-06 OVMax= 6.13D-05

 Cycle   9  Pass 1  IDiag  1:
 E= -230.259287574545     Delta-E=       -0.000000034480 Rises=F Damp=F
 DIIS: error= 1.99D-06 at cycle   9 NSaved=   9.
 NSaved= 9 IEnMin= 9 EnMin= -230.259287574545     IErMin= 9 ErrMin= 1.99D-06
 ErrMax= 1.99D-06  0.00D+00 EMaxC= 1.00D-01 BMatC= 7.17D-10 BMatP= 3.60D-08
 IDIUse=1 WtCom= 1.00D+00 WtEn= 0.00D+00
 Coeff-Com:  0.172D-04-0.290D-04 0.611D-04 0.142D-05-0.105D-02-0.680D-02
 Coeff-Com: -0.898D-02 0.981D-01 0.919D+00
 Coeff:      0.172D-04-0.290D-04 0.611D-04 0.142D-05-0.105D-02-0.680D-02
 Coeff:     -0.898D-02 0.981D-01 0.919D+00
 Gap=     0.279 Goal=   None    Shift=    0.000
 RMSDP=4.29D-07 MaxDP=5.68D-06 DE=-3.45D-08 OVMax= 1.44D-05

 Cycle  10  Pass 1  IDiag  1:
 E= -230.259287575373     Delta-E=       -0.000000000828 Rises=F Damp=F
 DIIS: error= 4.90D-07 at cycle  10 NSaved=  10.
 NSaved=10 IEnMin=10 EnMin= -230.259287575373     IErMin=10 ErrMin= 4.90D-07
 ErrMax= 4.90D-07  0.00D+00 EMaxC= 1.00D-01 BMatC= 4.57D-11 BMatP= 7.17D-10
 IDIUse=1 WtCom= 1.00D+00 WtEn= 0.00D+00
 Coeff-Com: -0.245D-05 0.312D-05 0.538D-04 0.106D-04-0.445D-03-0.347D-02
 Coeff-Com: -0.593D-02 0.212D-01 0.311D+00 0.678D+00
 Coeff:     -0.245D-05 0.312D-05 0.538D-04 0.106D-04-0.445D-03-0.347D-02
 Coeff:     -0.593D-02 0.212D-01 0.311D+00 0.678D+00
 Gap=     0.279 Goal=   None    Shift=    0.000
 RMSDP=5.94D-08 MaxDP=1.73D-06 DE=-8.28D-10 OVMax= 1.60D-06

 Cycle  11  Pass 1  IDiag  1:
 E= -230.259287575409     Delta-E=       -0.000000000036 Rises=F Damp=F
 DIIS: error= 1.74D-07 at cycle  11 NSaved=  11.
 NSaved=11 IEnMin=11 EnMin= -230.259287575409     IErMin=11 ErrMin= 1.74D-07
 ErrMax= 1.74D-07  0.00D+00 EMaxC= 1.00D-01 BMatC= 7.05D-12 BMatP= 4.57D-11
 IDIUse=1 WtCom= 1.00D+00 WtEn= 0.00D+00
 Coeff-Com: -0.376D-05 0.582D-05 0.177D-04 0.335D-05-0.831D-04-0.803D-03
 Coeff-Com: -0.165D-02-0.220D-02 0.315D-01 0.297D+00 0.676D+00
 Coeff:     -0.376D-05 0.582D-05 0.177D-04 0.335D-05-0.831D-04-0.803D-03
 Coeff:     -0.165D-02-0.220D-02 0.315D-01 0.297D+00 0.676D+00
 Gap=     0.279 Goal=   None    Shift=    0.000
 RMSDP=1.87D-08 MaxDP=5.46D-07 DE=-3.64D-11 OVMax= 5.61D-07

 Cycle  12  Pass 1  IDiag  1:
 E= -230.259287575420     Delta-E=       -0.000000000010 Rises=F Damp=F
 DIIS: error= 2.75D-08 at cycle  12 NSaved=  12.
 NSaved=12 IEnMin=12 EnMin= -230.259287575420     IErMin=12 ErrMin= 2.75D-08
 ErrMax= 2.75D-08  0.00D+00 EMaxC= 1.00D-01 BMatC= 1.61D-13 BMatP= 7.05D-12
 IDIUse=1 WtCom= 1.00D+00 WtEn= 0.00D+00
 Coeff-Com: -0.494D-07 0.188D-06 0.662D-06-0.297D-07 0.688D-05 0.378D-04
 Coeff-Com:  0.405D-04-0.121D-02-0.926D-02 0.319D-01 0.170D+00 0.809D+00
 Coeff:     -0.494D-07 0.188D-06 0.662D-06-0.297D-07 0.688D-05 0.378D-04
 Coeff:      0.405D-04-0.121D-02-0.926D-02 0.319D-01 0.170D+00 0.809D+00
 Gap=     0.279 Goal=   None    Shift=    0.000
 RMSDP=4.87D-09 MaxDP=1.07D-07 DE=-1.03D-11 OVMax= 1.14D-07

 SCF Done:  E(RB971) =  -230.259287575     A.U. after   12 cycles
            NFock= 12  Conv=0.49D-08     -V/T= 2.0032
 KE= 2.295323776414D+02 PE=-8.070123657735D+02 EE= 2.141821391501D+02
 Leave Link  502 at Fri Feb 20 11:02:02 2015, MaxMem=   524288000 cpu:        73.3
 (Enter /opt/g09/l801.exe)
 DoSCS=F DFT=T ScalE2(SS,OS)=  1.000000  1.000000
 Range of M.O.s used for correlation:     1   124
 NBasis=   124 NAE=    17 NBE=    17 NFC=     0 NFV=     0
 NROrb=    124 NOA=    17 NOB=    17 NVA=   107 NVB=   107

 **** Warning!!: The largest alpha MO coefficient is  0.27436651D+02

 Leave Link  801 at Fri Feb 20 11:02:03 2015, MaxMem=   524288000 cpu:         0.3
 (Enter /opt/g09/l1101.exe)
 Using compressed storage, NAtomX=    10.
 Will process     11 centers per pass.
 Leave Link 1101 at Fri Feb 20 11:02:03 2015, MaxMem=   524288000 cpu:         1.5
 (Enter /opt/g09/l1102.exe)
 Symmetrizing basis deriv contribution to polar:
 IMax=3 JMax=2 DiffMx= 0.00D+00
 Leave Link 1102 at Fri Feb 20 11:02:03 2015, MaxMem=   524288000 cpu:         0.3
 (Enter /opt/g09/l1110.exe)
 Forming Gx(P) for the SCF density, NAtomX=    10.
 Integral derivatives from FoFJK, PRISM(SPDF).
 Do as many integral derivatives as possible in FoFJK.
 G2DrvN: MDV=     524287816.
 G2DrvN: will do    11 centers at a time, making    1 passes.
 Calling FoFCou, ICntrl=  3107 FMM=F I1Cent=   0 AccDes= 0.00D+00.
 FoFJK:  IHMeth= 1 ICntrl=    3107 DoSepK=F KAlg= 0 I1Cent=   0 FoldK=F
 IRaf=         0 NMat=   1 IRICut=       1 DoRegI=T DoRafI=F ISym2E= 0.
 FoFCou: FMM=F IPFlag=           0 FMFlag=      100000 FMFlg1=           0
         NFxFlg=           0 DoJE=F BraDBF=F KetDBF=F FulRan=T
         wScrn=  0.000000 ICntrl=    3107 IOpCl=  0 I1Cent=           0 NGrid=           0
         NMat0=    1 NMatS0=      1 NMatT0=    0 NMatD0=    1 NMtDS0=    0 NMtDT0=    0
 Symmetry not used in FoFCou.
 End of G2Drv F.D. properties file   721 does not exist.
 End of G2Drv F.D. properties file   722 does not exist.
 End of G2Drv F.D. properties file   788 does not exist.
 Leave Link 1110 at Fri Feb 20 11:02:21 2015, MaxMem=   524288000 cpu:       147.3
 (Enter /opt/g09/l1002.exe)
 Minotr:  Closed shell wavefunction.
          IDoAtm=1111111111
          Direct CPHF calculation.
          Differentiating once with respect to electric field.
                with respect to dipole field.
          Differentiating once with respect to nuclear coordinates.
          Requested convergence is 1.0D-08 RMS, and 1.0D-07 maximum.
          Secondary convergence is 1.0D-12 RMS, and 1.0D-12 maximum.
          NewPWx=T KeepS1=F KeepF1=F KeepIn=T MapXYZ=F SortEE=F KeepMc=T.
          MDV=     524287772 using IRadAn=       1.
 Generate precomputed XC quadrature information.
 Keep R1 ints in memory in canonical form, NReq=31112787.
 FoFCou: FMM=F IPFlag=           0 FMFlag=           0 FMFlg1=           0
         NFxFlg=           0 DoJE=F BraDBF=F KetDBF=F FulRan=T
         wScrn=  0.000000 ICntrl=     600 IOpCl=  0 I1Cent=           0 NGrid=           0
         NMat0=    1 NMatS0=   7750 NMatT0=    0 NMatD0=    1 NMtDS0=    0 NMtDT0=    0
 Symmetry not used in FoFCou.
          Solving linear equations simultaneously, MaxMat=       0.
          There are    33 degrees of freedom in the 1st order CPHF.  IDoFFX=6 NUNeed=     3.
     30 vectors produced by pass  0 Test12= 5.51D-15 3.03D-09 XBig12= 1.99D+01 9.59D-01.
 AX will form    30 AO Fock derivatives at one time.
     30 vectors produced by pass  1 Test12= 5.51D-15 3.03D-09 XBig12= 1.72D+00 2.36D-01.
     30 vectors produced by pass  2 Test12= 5.51D-15 3.03D-09 XBig12= 2.17D-02 2.49D-02.
     30 vectors produced by pass  3 Test12= 5.51D-15 3.03D-09 XBig12= 5.37D-05 1.68D-03.
     30 vectors produced by pass  4 Test12= 5.51D-15 3.03D-09 XBig12= 8.79D-08 5.45D-05.
     19 vectors produced by pass  5 Test12= 5.51D-15 3.03D-09 XBig12= 1.21D-10 1.53D-06.
      3 vectors produced by pass  6 Test12= 5.51D-15 3.03D-09 XBig12= 1.12D-13 5.14D-08.
 InvSVY:  IOpt=1 It=  1 EMax= 7.11D-15
 Solved reduced A of dimension   172 with    33 vectors.
 FullF1:  Do perturbations    1 to     3.
 Isotropic polarizability for W=    0.000000       35.33 Bohr**3.
 End of Minotr F.D. properties file   721 does not exist.
 End of Minotr F.D. properties file   722 does not exist.
 End of Minotr F.D. properties file   788 does not exist.
 Leave Link 1002 at Fri Feb 20 11:02:41 2015, MaxMem=   524288000 cpu:       160.7
 (Enter /opt/g09/l701.exe)
 Compute integral second derivatives.
 ... and contract with generalized density number  0.
 Leave Link  701 at Fri Feb 20 11:02:42 2015, MaxMem=   524288000 cpu:         2.2
 (Enter /opt/g09/l702.exe)
 L702 exits ... SP integral derivatives will be done elsewhere.
 Leave Link  702 at Fri Feb 20 11:02:42 2015, MaxMem=   524288000 cpu:         0.3
 (Enter /opt/g09/l703.exe)
 Compute integral second derivatives, UseDBF=F ICtDFT=           0.
 Integral derivatives from FoFJK, PRISM(SPDF).
 Calling FoFJK, ICntrl=    100127 FMM=F ISym2X=0 I1Cent= 0 IOpClX= 0 NMat=1 NMatS=1 NMatT=0.
 FoFJK:  IHMeth= 1 ICntrl=  100127 DoSepK=F KAlg= 0 I1Cent=   0 FoldK=F
 IRaf=         0 NMat=   1 IRICut=       1 DoRegI=T DoRafI=F ISym2E= 0.
 FoFCou: FMM=F IPFlag=           0 FMFlag=      100000 FMFlg1=         800
         NFxFlg=           0 DoJE=F BraDBF=F KetDBF=F FulRan=T
         wScrn=  0.000000 ICntrl=  100127 IOpCl=  0 I1Cent=           0 NGrid=           0
         NMat0=    1 NMatS0=      1 NMatT0=    0 NMatD0=    1 NMtDS0=    0 NMtDT0=    0
 Symmetry not used in FoFCou.
 Leave Link  703 at Fri Feb 20 11:03:17 2015, MaxMem=   524288000 cpu:       279.3
 (Enter /opt/g09/l716.exe)
 Dipole        =-5.78063748D-01 7.78780147D-01 3.22564153D-01
 Polarizability= 3.55934539D+01-8.35637449D-01 3.50950526D+01
                 8.02231383D-01 2.31081036D+00 3.53109861D+01
 -------------------------------------------------------------------
 Center     Atomic                   Forces (Hartrees/Bohr)
 Number     Number              X              Y              Z
 -------------------------------------------------------------------
      1        6          -0.000004378    0.000005082   -0.000003742
      2        8          -0.000000198   -0.000000204   -0.000000587
      3        6           0.000004894   -0.000003210    0.000011510
      4        8           0.000001841   -0.000001458    0.000001110
      5        1          -0.000000407   -0.000003592    0.000002052
      6        1           0.000002435   -0.000000386   -0.000001493
      7        1          -0.000001348    0.000000307   -0.000001189
      8        1          -0.000001800   -0.000000267   -0.000003232
      9        1           0.000000179    0.000003593   -0.000004001
     10        1          -0.000001217    0.000000135   -0.000000428
 -------------------------------------------------------------------
 Cartesian Forces:  Max     0.000011510 RMS     0.000003195
 Force constants in Cartesian coordinates: 
                1             2             3             4             5 
      1  0.574411D+00
      2  0.185909D-01  0.542941D+00
      3 -0.356488D-01 -0.358004D-01  0.458952D+00
      4 -0.900733D-01  0.162753D-01 -0.586720D-01  0.100472D+00
      5  0.209645D-05 -0.931531D-01 -0.932655D-02 -0.907612D-02  0.550775D+00
      6 -0.611500D-01  0.315224D-01 -0.185580D+00  0.115905D+00  0.175891D+00
      7 -0.730359D-01  0.199238D-01  0.153854D-01 -0.203401D-02 -0.156955D-01
      8  0.520712D-02 -0.176829D+00 -0.457949D-01  0.605808D-04  0.675787D-03
      9  0.208752D-02 -0.300502D-01 -0.914636D-01 -0.136812D-02 -0.407126D-01
     10 -0.338334D-01  0.111815D-01  0.339513D-02  0.475773D-02 -0.126942D-02
     11  0.398929D-01 -0.471028D-02 -0.530423D-02  0.112191D-02  0.164382D-02
     12  0.178465D-01 -0.424900D-02 -0.234346D-02  0.268005D-02 -0.725620D-03
     13 -0.979892D-01 -0.813089D-01  0.548679D-01  0.720147D-02  0.143284D-01
     14 -0.762605D-01 -0.190035D+00  0.933953D-01  0.170305D-02  0.392339D-02
     15  0.523155D-01  0.908861D-01 -0.108899D+00  0.242443D-02  0.232461D-01
     16 -0.284260D+00  0.293513D-01  0.296681D-01 -0.115542D-01  0.160617D-02
     17  0.281052D-01 -0.585145D-01 -0.226511D-02  0.178945D-02  0.345840D-02
     18  0.321050D-01 -0.548168D-02 -0.508838D-01 -0.405648D-01  0.534172D-02
     19 -0.213877D-02 -0.166044D-01 -0.728241D-02 -0.988345D-02  0.948255D-02
     20  0.284979D-02  0.304009D-02  0.941147D-02 -0.101125D-01 -0.463870D+00
     21 -0.234939D-03 -0.365677D-01 -0.163431D-01 -0.209449D-01 -0.151702D+00
     22  0.285001D-02 -0.329274D-02  0.406525D-02  0.863499D-03  0.235527D-02
     23 -0.117640D-01  0.357937D-02 -0.251634D-01  0.620208D-03 -0.664067D-02
     24 -0.511402D-02  0.445469D-02 -0.121415D-01  0.563835D-03 -0.395622D-02
     25  0.449443D-02  0.483537D-02 -0.358020D-02  0.155233D-04 -0.573174D-03
     26 -0.103372D-01 -0.270220D-01  0.177702D-01  0.312955D-03  0.329158D-02
     27 -0.513238D-02 -0.135803D-01  0.649234D-02  0.120104D-03  0.114303D-02
     28 -0.425652D-03  0.104785D-02 -0.219838D-02  0.235145D-03 -0.116022D-02
     29  0.371364D-02  0.703456D-03  0.307756D-02 -0.269479D-02 -0.104696D-03
     30  0.292556D-02 -0.113387D-02  0.221026D-02 -0.143913D-03  0.800811D-03
                6             7             8             9            10 
      6  0.367535D+00
      7 -0.134371D-01  0.491259D+00
      8 -0.603721D-02  0.369175D-01  0.506900D+00
      9 -0.343259D-01  0.445535D-01 -0.356411D-01  0.613356D+00
     10  0.220696D-03 -0.224183D+00  0.246504D-01  0.371575D-01  0.426367D+00
     11 -0.379301D-03  0.114494D-01 -0.664963D-01 -0.905425D-02 -0.212374D-01
     12  0.132781D-02 -0.888469D-02 -0.209721D-02 -0.957570D-01  0.143718D+00
     13 -0.153739D-01  0.126301D-02  0.486740D-02 -0.201409D-02  0.194124D-02
     14  0.204360D-02 -0.154774D-01 -0.249142D-01  0.147512D-01  0.324887D-03
     15 -0.337801D-01 -0.674280D-02 -0.133361D-01  0.911949D-02 -0.797839D-03
     16 -0.139881D-01 -0.677886D-02 -0.189109D-02  0.130821D-02  0.906866D-03
     17 -0.921565D-04  0.279245D-01  0.526832D-03 -0.145628D-02  0.365364D-02
     18 -0.117152D-01  0.140910D-01  0.348015D-02  0.798637D-03  0.271377D-02
     19 -0.136999D-01 -0.219608D-02  0.109372D-02 -0.219636D-02  0.189475D-03
     20 -0.199786D+00  0.161407D-03  0.154315D-03 -0.492269D-03 -0.847119D-03
     21 -0.104237D+00 -0.409640D-02  0.168239D-02 -0.822834D-02 -0.465409D-03
     22  0.149596D-02 -0.786196D-01  0.192753D-03 -0.808338D-01 -0.275345D-01
     23 -0.375714D-02 -0.777761D-03 -0.518746D-01  0.264356D-03  0.483612D-02
     24 -0.438455D-03 -0.915180D-01 -0.143546D-02 -0.275908D+00 -0.155228D-03
     25  0.374548D-03 -0.793318D-01 -0.679172D-01  0.432282D-01 -0.358349D-01
     26  0.160749D-03 -0.683811D-01 -0.188817D+00  0.962334D-01  0.136876D-02
     27  0.200961D-02  0.460349D-01  0.983397D-01 -0.121346D+00  0.696998D-02
     28 -0.347421D-03 -0.263427D-01 -0.318119D-02 -0.419225D-01 -0.112777D+00
     29  0.434047D-03  0.395525D-02  0.674053D-03  0.615771D-02 -0.226613D-01
     30 -0.794945D-03  0.461411D-02  0.839695D-03  0.375443D-02 -0.192757D+00
               11            12            13            14            15 
     11  0.722844D-01
     12  0.723875D-01  0.524987D+00
     13 -0.258137D-03 -0.870691D-03  0.976370D-01
     14  0.474306D-02  0.119603D-03  0.848233D-01  0.204812D+00
     15  0.150996D-02  0.173347D-03 -0.518795D-01 -0.104393D+00  0.131910D+00
     16  0.235853D-02  0.630781D-03 -0.117305D-01  0.221964D-02  0.316132D-02
     17 -0.585116D-02 -0.328321D-02 -0.239689D-01  0.438079D-02  0.323534D-02
     18 -0.516998D-02 -0.594067D-03  0.145485D-01 -0.267874D-02  0.717088D-03
     19  0.144707D-03  0.127821D-02  0.979356D-03  0.910170D-03  0.108200D-03
     20  0.537972D-03  0.485656D-04  0.679568D-03  0.127478D-02  0.168443D-02
     21  0.765407D-03  0.805567D-03  0.132552D-02 -0.330162D-04  0.118728D-02
     22  0.384163D-03 -0.349361D-01  0.261515D-04 -0.267859D-04 -0.325059D-03
     23  0.167985D-02  0.494549D-02 -0.598300D-03  0.764570D-03  0.792305D-03
     24  0.265175D-04  0.771263D-02 -0.213716D-03 -0.331156D-03  0.777339D-03
     25 -0.209235D-01  0.203262D-01  0.662878D-03  0.173984D-02  0.146500D-02
     26  0.105825D-01 -0.505568D-02  0.133025D-02 -0.435404D-02 -0.348281D-02
     27 -0.513282D-03  0.330661D-02 -0.948121D-04 -0.320239D-02 -0.845788D-03
     28 -0.129324D-01 -0.141788D+00  0.864987D-05  0.437402D-04  0.270743D-03
     29 -0.144140D-01 -0.620904D-01  0.105292D-03 -0.595527D-03 -0.142081D-03
     30 -0.542683D-01 -0.439618D+00 -0.295143D-03  0.328835D-03 -0.360112D-03
               16            17            18            19            20 
     16  0.312929D+00
     17 -0.346318D-01  0.545429D-01
     18 -0.207949D-01  0.338115D-02  0.613369D-01
     19 -0.514608D-03 -0.104157D-02 -0.879388D-03  0.119623D-01
     20  0.689961D-03 -0.577211D-04  0.865188D-03  0.640071D-02  0.458280D+00
     21 -0.155942D-03  0.571603D-04  0.864971D-03  0.236585D-01  0.187712D+00
     22  0.108749D-03 -0.657685D-03 -0.142146D-03  0.510696D-03  0.350513D-03
     23  0.582471D-03  0.831209D-03  0.583846D-03 -0.444655D-03  0.246129D-03
     24  0.648547D-03 -0.332725D-03 -0.445270D-04 -0.265323D-03  0.742556D-04
     25  0.452476D-03 -0.650843D-03 -0.854442D-03 -0.597433D-04  0.154562D-03
     26  0.471063D-03  0.601374D-03 -0.697573D-04  0.133166D-03  0.654153D-03
     27 -0.311145D-03  0.104282D-02  0.513008D-03  0.989432D-04  0.118209D-03
     28  0.440747D-03 -0.522012D-03 -0.222637D-03  0.115080D-02 -0.326851D-03
     29 -0.756253D-03  0.818363D-04 -0.251897D-03 -0.743753D-04 -0.260401D-03
     30 -0.166848D-03 -0.286986D-03 -0.993039D-03 -0.820462D-03  0.364222D-03
               21            22            23            24            25 
     21  0.126317D+00
     22  0.607234D-03  0.102676D+00
     23 -0.203085D-02 -0.194286D-02  0.503628D-01
     24 -0.606124D-03  0.991811D-01  0.193942D-02  0.293129D+00
     25 -0.170716D-03  0.605158D-02  0.861514D-02 -0.512616D-02  0.102988D+00
     26  0.383227D-03  0.621618D-03  0.114617D-02 -0.584265D-03  0.752247D-01
     27  0.330951D-03  0.100146D-01  0.231578D-01 -0.143039D-01 -0.573939D-01
     28  0.477052D-03 -0.693311D-02  0.873689D-03  0.199891D-02  0.562001D-03
     29 -0.266874D-03  0.201577D-02 -0.948166D-04  0.144939D-03 -0.504856D-03
     30 -0.909904D-04  0.872941D-03 -0.731838D-03  0.182338D-02  0.173149D-02
               26            27            28            29            30 
     26  0.203726D+00
     27 -0.105446D+00  0.123616D+00
     28 -0.744190D-03 -0.306298D-03  0.144081D+00
     29  0.191625D-03 -0.105957D-02  0.169016D-01  0.138184D-01
     30  0.908649D-04  0.226403D-03  0.184039D+00  0.539966D-01  0.433843D+00
 FormGI is forming the generalized inverse of G from B-inverse, IUseBI=4.
 Force constants in internal coordinates: 
                1             2             3             4             5 
      1  0.329943D+00
      2  0.202453D-01  0.282573D+00
      3  0.137923D-01  0.500218D-02  0.322652D+00
      4  0.160371D-01  0.431478D-02  0.377390D-02  0.319131D+00
      5 -0.321377D-02 -0.263066D-03  0.274230D-03 -0.487667D-03  0.543224D+00
      6  0.241948D-02  0.199688D-01  0.963263D-03 -0.241032D-03 -0.116437D-02
      7 -0.337579D-03  0.422318D-02  0.618507D-03  0.713222D-03 -0.618003D-04
      8  0.684820D-03  0.613706D-02 -0.707755D-03  0.786342D-03 -0.463736D-03
      9 -0.943911D-03 -0.905716D-03  0.209418D-03 -0.672141D-04  0.177718D-03
     10  0.265463D-01  0.251122D-01 -0.320330D-02 -0.395206D-02  0.779023D-02
     11  0.837225D-02 -0.143566D-01  0.198198D-03  0.857577D-03 -0.448140D-02
     12  0.925051D-02 -0.141272D-01  0.510131D-03 -0.486400D-03 -0.261840D-02
     13 -0.210459D-01  0.773818D-02  0.427379D-02 -0.619058D-02 -0.256182D-03
     14 -0.227871D-01  0.222433D-02 -0.564873D-02  0.580910D-02 -0.113953D-02
     15 -0.810884D-03 -0.573298D-02  0.371103D-02  0.375754D-02  0.797776D-03
     16  0.444704D-01  0.438395D-02  0.372940D-03  0.997871D-03  0.127427D-01
     17 -0.267961D-02  0.171651D-01 -0.524693D-02  0.493684D-02 -0.101431D-02
     18  0.719727D-02  0.558882D-02  0.663187D-03 -0.312741D-03  0.119504D-02
     19 -0.240617D-02  0.977826D-02  0.391897D-02 -0.193863D-02 -0.510905D-03
     20 -0.173301D-02 -0.122780D-01  0.110767D-02 -0.160945D-02 -0.242081D-04
     21  0.808315D-03 -0.135770D-01  0.780845D-03 -0.150074D-02  0.442028D-03
     22 -0.961070D-03 -0.773266D-02 -0.120049D-02  0.325949D-03 -0.231037D-04
     23  0.246387D-02 -0.347868D-02 -0.287216D-03 -0.115381D-02 -0.212113D-03
     24  0.129319D-02  0.273981D-02  0.336812D-02 -0.461815D-02 -0.377579D-03
     25  0.608191D-02 -0.136831D-01  0.335345D-04  0.472904D-02 -0.225851D-02
     26 -0.481400D-02  0.128483D-01 -0.514363D-02 -0.281527D-03  0.153832D-02
     27  0.149459D-02 -0.261841D-02 -0.235750D-02  0.207116D-02  0.100707D-02
     28  0.639080D-03 -0.171715D-02 -0.882203D-03  0.118716D-02  0.893363D-03
     29 -0.980458D-03 -0.141246D-02 -0.214008D-02  0.212540D-02  0.525017D-03
     30  0.153529D-01 -0.935035D-03 -0.163340D-02 -0.260009D-02  0.367484D-04
     31  0.144974D-01 -0.337830D-04 -0.158107D-03 -0.348408D-02 -0.769572D-04
     32  0.128778D-01  0.270906D-03 -0.141598D-02 -0.254584D-02 -0.445303D-03
     33 -0.126545D-01 -0.182365D-02  0.209597D-02  0.175481D-02  0.157932D-03
     34 -0.135100D-01 -0.922399D-03  0.357127D-02  0.870817D-03  0.442269D-04
     35 -0.151296D-01 -0.617709D-03  0.231339D-02  0.180905D-02 -0.324119D-03
     36 -0.314908D-02  0.148110D-02  0.138300D-02 -0.899798D-03 -0.404249D-03
     37  0.299708D-02  0.105187D-01 -0.168491D-03  0.577671D-03  0.451637D-03
     38  0.125462D-02 -0.134841D-01 -0.527554D-03 -0.805839D-03  0.651013D-03
                6             7             8             9            10 
      6  0.348865D+00
      7  0.114590D-01  0.335389D+00
      8  0.178363D-01  0.359111D-02  0.317950D+00
      9  0.272171D-02 -0.156103D-02 -0.601947D-03  0.528871D+00
     10 -0.138908D-01  0.455903D-02 -0.438578D-02  0.141991D-02  0.173591D+00
     11  0.295224D-02 -0.126471D-02  0.918282D-03 -0.280766D-03 -0.605879D-01
     12  0.252166D-02 -0.150748D-02  0.473578D-03  0.217953D-03 -0.615809D-01
     13 -0.379324D-03 -0.146223D-02  0.331225D-02  0.522717D-04 -0.381008D-01
     14  0.107232D-01 -0.574462D-03  0.922598D-03 -0.152193D-02 -0.389402D-01
     15 -0.193365D-02  0.280909D-03 -0.119006D-02  0.105992D-03  0.264881D-01
     16  0.160691D-02  0.646734D-03  0.249991D-03 -0.213134D-03  0.217651D-01
     17  0.149368D-01 -0.412515D-02 -0.296327D-02 -0.168344D-02 -0.110692D-01
     18 -0.196137D-01  0.444765D-02 -0.589866D-02 -0.106341D-02  0.202281D-01
     19 -0.208864D-01 -0.498225D-02  0.566826D-02  0.177367D-02 -0.966253D-02
     20  0.142511D-01  0.136613D-02  0.583684D-03  0.266414D-02 -0.462920D-02
     21  0.129658D-01  0.699855D-03 -0.885153D-03 -0.121877D-02  0.817898D-02
     22 -0.188492D-02  0.308103D-02  0.345854D-02 -0.468612D-03 -0.224106D-02
     23  0.492907D-01  0.324994D-02  0.892999D-03  0.245848D-01 -0.108050D-01
     24 -0.491667D-02 -0.254728D-03  0.110212D-02  0.686430D-03  0.165221D-02
     25  0.223294D-02 -0.527300D-03 -0.764620D-03 -0.722790D-04 -0.230031D-01
     26  0.976605D-03  0.992389D-03 -0.200411D-03 -0.163173D-03  0.261220D-01
     27  0.365591D-02  0.260057D-02 -0.276854D-02  0.811824D-03  0.169000D-02
     28 -0.106773D-01  0.581375D-03  0.220971D-02 -0.760564D-03  0.120233D-02
     29  0.154865D-01 -0.280267D-02 -0.189630D-02 -0.622253D-03 -0.218639D-02
     30 -0.109269D-02  0.293412D-02 -0.239910D-02  0.132974D-02  0.919190D-02
     31 -0.154259D-01  0.914927D-03  0.257915D-02 -0.242649D-03  0.870423D-02
     32  0.107379D-01 -0.246912D-02 -0.152686D-02 -0.104338D-03  0.531551D-02
     33  0.288583D-02  0.202203D-02 -0.124561D-02  0.557265D-03 -0.576254D-02
     34 -0.114474D-01  0.283637D-05  0.373264D-02 -0.101512D-02 -0.625021D-02
     35  0.147164D-01 -0.338121D-02 -0.373370D-03 -0.876813D-03 -0.963894D-02
     36 -0.378462D-03 -0.399490D-02  0.458497D-02  0.142100D-02 -0.101275D-01
     37 -0.653414D-02 -0.798509D-04 -0.401432D-02  0.839835D-03  0.522701D-02
     38  0.674374D-02  0.481749D-02  0.636548D-05  0.119199D-02  0.425385D-02
               11            12            13            14            15 
     11  0.595883D-01
     12  0.801446D-02  0.595748D-01
     13 -0.215097D-01  0.200683D-01  0.688573D-01
     14  0.205365D-01 -0.203555D-01 -0.736776D-02  0.681346D-01
     15 -0.699783D-02 -0.676265D-02 -0.206685D-01 -0.209206D-01  0.277239D-01
     16 -0.767813D-02 -0.616177D-02 -0.545135D-02 -0.549367D-02  0.310018D-02
     17  0.721870D-02 -0.526143D-02 -0.103980D-01  0.218543D-01 -0.228517D-02
     18 -0.543331D-02 -0.368669D-02 -0.506284D-02 -0.951300D-02  0.343893D-02
     19 -0.184090D-02  0.552211D-02  0.143197D-01 -0.599889D-02 -0.224378D-02
     20  0.110700D-03  0.378488D-02  0.519970D-02 -0.414189D-02 -0.364237D-03
     21 -0.179079D-02 -0.119923D-03 -0.185933D-02 -0.630645D-02  0.182744D-02
     22  0.153535D-02 -0.269519D-03 -0.240356D-02  0.355447D-02 -0.197481D-03
     23  0.229153D-02  0.377298D-02  0.240623D-02  0.303244D-02 -0.765231D-03
     24 -0.741455D-02  0.577494D-02  0.227321D-01 -0.226599D-01  0.297762D-04
     25  0.218164D-01  0.140946D-01 -0.254173D-01 -0.181438D-02  0.129071D-01
     26 -0.151479D-01 -0.229934D-01  0.179202D-02  0.244846D-01 -0.128821D-01
     27 -0.132298D-01  0.127543D-01  0.450934D-03 -0.229995D-02  0.543824D-03
     28 -0.143479D-01  0.137390D-01  0.378934D-02 -0.462849D-02  0.186662D-03
     29 -0.119370D-01  0.129469D-01  0.117025D-02  0.189132D-03 -0.255331D-03
     30  0.109565D-01 -0.241081D-02 -0.954926D-02 -0.442753D-02 -0.378666D-02
     31  0.983845D-02 -0.142613D-02 -0.621086D-02 -0.675608D-02 -0.414382D-02
     32  0.122493D-01 -0.221824D-02 -0.882995D-02 -0.193845D-02 -0.458581D-02
     33  0.167963D-02 -0.108111D-01  0.312084D-02  0.718392D-02  0.462489D-02
     34  0.561600D-03 -0.982638D-02  0.645925D-02  0.485537D-02  0.426773D-02
     35  0.297246D-02 -0.106185D-01  0.384015D-02  0.967299D-02  0.382574D-02
     36  0.680150D-03  0.339084D-02  0.655728D-02  0.162980D-02 -0.207828D-02
     37 -0.168224D-02 -0.178688D-02 -0.241197D-02  0.112845D-03  0.567071D-03
     38 -0.749206D-03  0.702920D-04 -0.323089D-02 -0.151841D-02  0.111195D-02
               16            17            18            19            20 
     16  0.167613D+00
     17 -0.206050D-02  0.163483D+00
     18  0.492531D-02 -0.359364D-01  0.701305D-01
     19 -0.117049D-02 -0.402604D-01 -0.693745D-02  0.726255D-01
     20 -0.160146D-02 -0.571463D-01 -0.265217D-01  0.217547D-01  0.605880D-01
     21  0.120913D-02 -0.592771D-01  0.214239D-01 -0.273400D-01  0.761667D-02
     22 -0.118450D-02  0.252737D-01 -0.207899D-01 -0.211807D-01 -0.518097D-02
     23  0.382388D-02 -0.137884D-01 -0.325547D-02  0.372887D-02  0.149513D-01
     24 -0.461777D-03 -0.108462D-01  0.163171D-02  0.685579D-02  0.320171D-02
     25 -0.269628D-02  0.431156D-02 -0.139174D-02 -0.357201D-02 -0.344350D-03
     26  0.274551D-02  0.586044D-02  0.427957D-03 -0.321027D-02 -0.251316D-02
     27  0.768948D-03  0.210611D-02 -0.283502D-02  0.132651D-02  0.117449D-01
     28  0.843647D-03 -0.567855D-02  0.700048D-02  0.396729D-02 -0.106664D-01
     29  0.917828D-04  0.859580D-02 -0.471923D-02 -0.938118D-02 -0.176697D-02
     30  0.124179D-02 -0.141018D-02 -0.359564D-03  0.138162D-02  0.120449D-01
     31  0.131648D-02 -0.919484D-02  0.947593D-02  0.402241D-02 -0.103663D-01
     32  0.564620D-03  0.507951D-02 -0.224378D-02 -0.932606D-02 -0.146689D-02
     33 -0.169693D-02  0.277993D-02 -0.511124D-02  0.379532D-02  0.122683D-01
     34 -0.162224D-02 -0.500473D-02  0.472426D-02  0.643610D-02 -0.101429D-01
     35 -0.237410D-02  0.926962D-02 -0.699545D-02 -0.691237D-02 -0.124350D-02
     36 -0.204968D-02  0.186887D-02 -0.234467D-01  0.221672D-01  0.790751D-02
     37  0.175662D-02  0.169410D-01  0.244946D-01  0.401858D-02 -0.192357D-01
     38  0.426498D-04 -0.189858D-01 -0.453645D-02 -0.234696D-01  0.146626D-01
               21            22            23            24            25 
     21  0.650165D-01
     22 -0.498461D-02  0.273275D-01
     23  0.110108D-02 -0.240080D-02  0.187390D+00
     24  0.146525D-02 -0.219608D-02 -0.149701D-02  0.166061D-01
     25 -0.208107D-03  0.119109D-02  0.814949D-03 -0.764687D-02  0.246659D-01
     26 -0.122626D-02  0.581741D-03 -0.231724D-02 -0.655409D-02 -0.159857D-01
     27 -0.128275D-01  0.585874D-03  0.551683D-02 -0.389224D-02  0.187513D-02
     28  0.855601D-03  0.476676D-02 -0.235620D-02 -0.214969D-02  0.509845D-03
     29  0.105858D-01 -0.364024D-02  0.248682D-03 -0.450984D-02  0.199970D-02
     30 -0.112383D-01 -0.201703D-03  0.330119D-02  0.696357D-03  0.617361D-03
     31  0.244484D-02  0.397918D-02 -0.457185D-02  0.243890D-02 -0.747929D-03
     32  0.121750D-01 -0.442782D-02 -0.196696D-02  0.787542D-04  0.741929D-03
     33 -0.140181D-01  0.253209D-03  0.571223D-02  0.868234D-03 -0.364181D-03
     34 -0.335005D-03  0.443409D-02 -0.216081D-02  0.261078D-02 -0.172947D-02
     35  0.939518D-02 -0.397290D-02  0.444078D-03  0.250631D-03 -0.239613D-03
     36 -0.992738D-02  0.472192D-03 -0.176792D-02  0.146757D-02 -0.731990D-03
     37 -0.135077D-01 -0.135419D-01 -0.424679D-02 -0.834132D-03 -0.132640D-03
     38  0.205457D-01  0.135121D-01  0.234374D-02 -0.773116D-03  0.981175D-03
               26            27            28            29            30 
     26  0.261185D-01
     27  0.154990D-02  0.203503D-01
     28  0.730383D-03  0.623731D-02  0.185274D-01
     29  0.167943D-02  0.639904D-02  0.629282D-02  0.190385D-01
     30 -0.392060D-03  0.577408D-02 -0.812396D-02 -0.848877D-02  0.189563D-01
     31 -0.121157D-02 -0.833890D-02  0.416611D-02 -0.859498D-02  0.505823D-02
     32 -0.262525D-03 -0.817717D-02 -0.806845D-02  0.415069D-02  0.469342D-02
     33 -0.610150D-04  0.530778D-02 -0.839509D-02 -0.796253D-02  0.568208D-02
     34 -0.880529D-03 -0.880519D-02  0.389498D-02 -0.806874D-02 -0.821596D-02
     35  0.685193D-04 -0.864347D-02 -0.833958D-02  0.467694D-02 -0.858077D-02
     36 -0.850948D-03 -0.249649D-02  0.177106D-02  0.176841D-02 -0.396355D-02
     37  0.149653D-02  0.280078D-02  0.182004D-03 -0.116039D-03  0.250175D-02
     38  0.340575D-04  0.346803D-02  0.484875D-04  0.242796D-03  0.326865D-02
               31            32            33            34            35 
     31  0.175632D-01
     32  0.480214D-02  0.170213D-01
     33 -0.802080D-02 -0.758823D-02  0.177040D-01
     34  0.448421D-02 -0.747951D-02  0.400117D-02  0.167013D-01
     35 -0.827689D-02  0.473963D-02  0.443374D-02  0.473762D-02  0.177541D-01
     36  0.303992D-03  0.301347D-03 -0.145983D-02  0.280771D-02  0.280506D-02
     37 -0.117028D-03 -0.415072D-03  0.177603D-02 -0.842745D-03 -0.114079D-02
     38 -0.150892D-03  0.434167D-04  0.170354D-02 -0.171600D-02 -0.152169D-02
               36            37            38 
     36  0.176578D-01
     37 -0.493482D-02  0.226985D-01
     38 -0.509749D-02 -0.123804D-01  0.237936D-01
 Leave Link  716 at Fri Feb 20 11:03:17 2015, MaxMem=   524288000 cpu:         0.3
 (Enter /opt/g09/l103.exe)

 GradGradGradGradGradGradGradGradGradGradGradGradGradGradGradGradGradGrad
 Berny optimization.
 Red2BG is reusing G-inverse.
 Internal  Forces:  Max     0.000004967 RMS     0.000001622
 Search for a local minimum.
 Step number   1 out of a maximum of   48
 All quantities printed in internal units (Hartrees-Bohrs-Radians)
 RMS Force = .16218D-05 SwitMx=.10000D-02 MixMth= 2
 Mixed Optimization -- En-DIIS/RFO-DIIS
 Second derivative matrix not updated -- analytic derivatives used.
 ITU=  0
     Eigenvalues ---    0.00222   0.00323   0.00779   0.04703   0.04827
     Eigenvalues ---    0.05494   0.06336   0.09723   0.10164   0.11914
     Eigenvalues ---    0.13315   0.15166   0.16967   0.22353   0.25037
     Eigenvalues ---    0.29748   0.31454   0.31817   0.32181   0.33435
     Eigenvalues ---    0.37564   0.38508   0.53099   0.54410
 RFO step:  Lambda= 0.00000000D+00 EMin= 2.22049742D-03
 Linear search not attempted -- first point.
 Iteration  1 RMS(Cart)=  0.00001435 RMS(Int)=  0.00000000
 Iteration  2 RMS(Cart)=  0.00000000 RMS(Int)=  0.00000000
 ITry= 1 IFail=0 DXMaxC= 3.92D-05 DCOld= 1.00D+10 DXMaxT= 3.00D-01 DXLimC= 3.00D+00 Rises=F
 Variable       Old X    -DE/DX   Delta X   Delta X   Delta X     New X
                                 (Linear)    (Quad)   (Total)
    R1        2.70199   0.00000   0.00000   0.00000   0.00000   2.70199
    R2        2.87521   0.00000   0.00000   0.00000   0.00000   2.87521
    R3        2.07646   0.00000   0.00000  -0.00001  -0.00001   2.07645
    R4        2.07923   0.00000   0.00000  -0.00001  -0.00001   2.07922
    R5        1.81394   0.00000   0.00000   0.00000   0.00000   1.81394
    R6        2.67822   0.00000   0.00000   0.00000   0.00000   2.67822
    R7        2.06806   0.00000   0.00000   0.00001   0.00001   2.06807
    R8        2.08051   0.00000   0.00000  -0.00002  -0.00002   2.08049
    R9        1.82084   0.00000   0.00000   0.00000   0.00000   1.82084
    A1        1.86222   0.00000   0.00000  -0.00001  -0.00001   1.86221
    A2        1.93224   0.00000   0.00000  -0.00001  -0.00001   1.93224
    A3        1.93720   0.00000   0.00000   0.00000   0.00000   1.93721
    A4        1.91127   0.00000   0.00000   0.00000   0.00000   1.91127
    A5        1.91739   0.00000   0.00000   0.00000   0.00000   1.91738
    A6        1.90319   0.00000   0.00000   0.00001   0.00001   1.90320
    A7        1.90677   0.00000   0.00000  -0.00001  -0.00001   1.90676
    A8        1.95278   0.00000   0.00000   0.00002   0.00002   1.95280
    A9        1.91515   0.00000   0.00000  -0.00002  -0.00002   1.91513
   A10        1.90311   0.00000   0.00000   0.00001   0.00001   1.90312
   A11        1.86668   0.00000   0.00000   0.00000   0.00000   1.86668
   A12        1.93662   0.00000   0.00000   0.00001   0.00001   1.93663
   A13        1.88819   0.00000   0.00000  -0.00002  -0.00002   1.88817
   A14        1.85968   0.00000   0.00000   0.00000   0.00000   1.85968
    D1        2.90215   0.00000   0.00000   0.00002   0.00002   2.90217
    D2        0.82371   0.00000   0.00000   0.00003   0.00003   0.82374
    D3       -1.29244   0.00000   0.00000   0.00002   0.00002  -1.29243
    D4       -1.07447   0.00000   0.00000  -0.00001  -0.00001  -1.07448
    D5        3.13967   0.00000   0.00000  -0.00001  -0.00001   3.13966
    D6        1.07445   0.00000   0.00000   0.00002   0.00002   1.07447
    D7        1.01756   0.00000   0.00000  -0.00002  -0.00002   1.01754
    D8       -1.05149   0.00000   0.00000  -0.00002  -0.00002  -1.05151
    D9       -3.11671   0.00000   0.00000   0.00001   0.00001  -3.11670
   D10        3.10736   0.00000   0.00000  -0.00001  -0.00001   3.10735
   D11        1.03831   0.00000   0.00000  -0.00001  -0.00001   1.03830
   D12       -1.02691   0.00000   0.00000   0.00002   0.00002  -1.02688
   D13        0.92323   0.00000   0.00000  -0.00002  -0.00002   0.92321
   D14        3.02084   0.00000   0.00000  -0.00004  -0.00004   3.02081
   D15       -1.20660   0.00000   0.00000  -0.00005  -0.00005  -1.20666
         Item               Value     Threshold  Converged?
 Maximum Force            0.000005     0.000015     YES
 RMS     Force            0.000002     0.000010     YES
 Maximum Displacement     0.000039     0.000060     YES
 RMS     Displacement     0.000014     0.000040     YES
 Predicted change in Energy=-2.707220D-10
 Optimization completed.
    -- Stationary point found.
                           ----------------------------
                           !   Optimized Parameters   !
                           ! (Angstroms and Degrees)  !
 --------------------------                            --------------------------
 ! Name  Definition              Value          Derivative Info.                !
 --------------------------------------------------------------------------------
 ! R1    R(1,2)                  1.4298         -DE/DX =    0.0                 !
 ! R2    R(1,3)                  1.5215         -DE/DX =    0.0                 !
 ! R3    R(1,5)                  1.0988         -DE/DX =    0.0                 !
 ! R4    R(1,6)                  1.1003         -DE/DX =    0.0                 !
 ! R5    R(2,7)                  0.9599         -DE/DX =    0.0                 !
 ! R6    R(3,4)                  1.4173         -DE/DX =    0.0                 !
 ! R7    R(3,8)                  1.0944         -DE/DX =    0.0                 !
 ! R8    R(3,9)                  1.101          -DE/DX =    0.0                 !
 ! R9    R(4,10)                 0.9635         -DE/DX =    0.0                 !
 ! A1    A(2,1,3)              106.6972         -DE/DX =    0.0                 !
 ! A2    A(2,1,5)              110.7094         -DE/DX =    0.0                 !
 ! A3    A(2,1,6)              110.9935         -DE/DX =    0.0                 !
 ! A4    A(3,1,5)              109.5079         -DE/DX =    0.0                 !
 ! A5    A(3,1,6)              109.8581         -DE/DX =    0.0                 !
 ! A6    A(5,1,6)              109.0448         -DE/DX =    0.0                 !
 ! A7    A(1,2,7)              109.2498         -DE/DX =    0.0                 !
 ! A8    A(1,3,4)              111.8861         -DE/DX =    0.0                 !
 ! A9    A(1,3,8)              109.7298         -DE/DX =    0.0                 !
 ! A10   A(1,3,9)              109.0404         -DE/DX =    0.0                 !
 ! A11   A(4,3,8)              106.9526         -DE/DX =    0.0                 !
 ! A12   A(4,3,9)              110.96           -DE/DX =    0.0                 !
 ! A13   A(8,3,9)              108.1855         -DE/DX =    0.0                 !
 ! A14   A(3,4,10)             106.5518         -DE/DX =    0.0                 !
 ! D1    D(3,1,2,7)            166.2809         -DE/DX =    0.0                 !
 ! D2    D(5,1,2,7)             47.195          -DE/DX =    0.0                 !
 ! D3    D(6,1,2,7)            -74.0516         -DE/DX =    0.0                 !
 ! D4    D(2,1,3,4)            -61.5624         -DE/DX =    0.0                 !
 ! D5    D(2,1,3,8)            179.8896         -DE/DX =    0.0                 !
 ! D6    D(2,1,3,9)             61.5615         -DE/DX =    0.0                 !
 ! D7    D(5,1,3,4)             58.3019         -DE/DX =    0.0                 !
 ! D8    D(5,1,3,8)            -60.2462         -DE/DX =    0.0                 !
 ! D9    D(5,1,3,9)           -178.5743         -DE/DX =    0.0                 !
 ! D10   D(6,1,3,4)            178.0388         -DE/DX =    0.0                 !
 ! D11   D(6,1,3,8)             59.4907         -DE/DX =    0.0                 !
 ! D12   D(6,1,3,9)            -58.8374         -DE/DX =    0.0                 !
 ! D13   D(1,3,4,10)            52.8971         -DE/DX =    0.0                 !
 ! D14   D(8,3,4,10)           173.0816         -DE/DX =    0.0                 !
 ! D15   D(9,3,4,10)           -69.1331         -DE/DX =    0.0                 !
 --------------------------------------------------------------------------------
 Lowest energy point so far.  Saving SCF results.
 GradGradGradGradGradGradGradGradGradGradGradGradGradGradGradGradGradGrad

 Largest change from initial coordinates is atom    0       0.000 Angstoms.
 Leave Link  103 at Fri Feb 20 11:03:17 2015, MaxMem=   524288000 cpu:         0.1
 (Enter /opt/g09/l202.exe)
                          Input orientation:                          
 ---------------------------------------------------------------------
 Center     Atomic      Atomic             Coordinates (Angstroms)
 Number     Number       Type             X           Y           Z
 ---------------------------------------------------------------------
      1          6           0        1.040570    2.164490    1.623550
      2          8           0        1.633550    2.096790    2.922860
      3          6           0        1.342900    0.841520    0.935580
      4          8           0        2.736170    0.632260    0.781890
      5          1           0        1.474640    2.988730    1.040790
      6          1           0       -0.047910    2.308930    1.694050
      7          1           0        1.654740    2.976100    3.307260
      8          1           0        0.907210    0.839120   -0.068320
      9          1           0        0.883020    0.023770    1.511690
     10          1           0        3.128600    0.745010    1.654650
 ---------------------------------------------------------------------
                    Distance matrix (angstroms):
                    1          2          3          4          5
     1  C    0.000000
     2  O    1.429830   0.000000
     3  C    1.521498   2.368430   0.000000
     4  O    2.435401   2.818576   1.417255   0.000000
     5  H    1.098816   2.088779   2.153819   2.685412   0.000000
     6  H    1.100283   2.093391   2.159380   3.375553   1.790820
     7  H    1.967434   0.959895   3.206017   3.611173   2.273649
     8  H    2.153326   3.325126   1.094370   2.027497   2.484537
     9  H    2.149422   2.617653   1.100957   2.082554   3.059861
    10  H    2.525027   2.381353   1.927460   0.963548   2.854240
                    6          7          8          9         10
     6  H    0.000000
     7  H    2.438561   0.000000
     8  H    2.485668   4.064483   0.000000
     9  H    2.474236   3.540604   1.778149   0.000000
    10  H    3.540849   3.143429   2.812838   2.362891   0.000000
 Symmetry turned off by external request.
 Stoichiometry    C2H6O2
 Framework group  C1[X(C2H6O2)]
 Deg. of freedom    24
 Full point group                 C1      NOp   1
 Rotational constants (GHZ):     15.3806604      5.5572216      4.5939638
 Leave Link  202 at Fri Feb 20 11:03:17 2015, MaxMem=   524288000 cpu:         0.0
 (Enter /opt/g09/l716.exe)
 Dipole        =-5.78063748D-01 7.78780147D-01 3.22564153D-01
 Polarizability= 3.55934539D+01-8.35637449D-01 3.50950526D+01
                 8.02231383D-01 2.31081036D+00 3.53109861D+01
 Full mass-weighted force constant matrix:
 Low frequencies ---   -2.2154   -0.0003    0.0006    0.0013    2.2946    8.3522
 Low frequencies ---  162.6228  252.1415  322.4434
 Diagonal vibrational polarizability:
       52.2441050      24.5645782      15.8214731
 Harmonic frequencies (cm**-1), IR intensities (KM/Mole), Raman scattering
 activities (A**4/AMU), depolarization ratios for plane and unpolarized
 incident light, reduced masses (AMU), force constants (mDyne/A),
 and normal coordinates:
                      1                      2                      3
                      A                      A                      A
 Frequencies --    162.6224               252.1414               322.4434
 Red. masses --      3.2581                 1.1014                 2.0196
 Frc consts  --      0.0508                 0.0413                 0.1237
 IR Inten    --      9.2977               121.5085                 8.5877
  Atom  AN      X      Y      Z        X      Y      Z        X      Y      Z
     1   6    -0.13  -0.03   0.00     0.01   0.01   0.00    -0.07  -0.06   0.10
     2   8     0.19  -0.07  -0.14     0.06   0.02  -0.03     0.00   0.14   0.07
     3   6    -0.06   0.04  -0.12     0.00   0.01   0.00     0.06   0.05  -0.10
     4   8    -0.02   0.05   0.24    -0.01  -0.03   0.00     0.04  -0.12  -0.05
     5   1    -0.36   0.08  -0.01    -0.04   0.04  -0.01    -0.35   0.09   0.10
     6   1    -0.13  -0.19   0.26     0.00  -0.04   0.03    -0.11  -0.34   0.16
     7   1     0.23  -0.10  -0.08    -0.89  -0.15   0.41     0.01   0.21  -0.09
     8   1     0.18   0.19  -0.23     0.00   0.03   0.00     0.16   0.34  -0.15
     9   1    -0.21  -0.02  -0.34    -0.02   0.02   0.00    -0.09  -0.07  -0.38
    10   1    -0.25   0.27   0.32     0.03   0.03  -0.02     0.00  -0.51   0.01
                      4                      5                      6
                      A                      A                      A
 Frequencies --    433.4056               522.4567               872.8296
 Red. masses --      1.2037                 2.3072                 2.1277
 Frc consts  --      0.1332                 0.3711                 0.9550
 IR Inten    --    133.3532                18.7730                32.5707
  Atom  AN      X      Y      Z        X      Y      Z        X      Y      Z
     1   6    -0.01   0.01  -0.02    -0.12   0.15  -0.01     0.04  -0.10   0.06
     2   8     0.02  -0.02  -0.05    -0.03  -0.09  -0.09    -0.05  -0.02  -0.15
     3   6    -0.01  -0.01   0.04     0.09   0.13   0.09     0.04   0.10   0.20
     4   8     0.00   0.09   0.01     0.06  -0.12  -0.02    -0.04   0.01   0.00
     5   1     0.02  -0.03  -0.05    -0.42   0.39   0.12     0.11  -0.25  -0.12
     6   1    -0.01   0.05   0.00    -0.17  -0.21   0.09     0.02  -0.08  -0.15
     7   1    -0.04  -0.05   0.02     0.22  -0.17   0.08     0.00  -0.04  -0.13
     8   1    -0.02  -0.10   0.05    -0.02  -0.19   0.15     0.14   0.71   0.15
     9   1     0.05   0.00   0.10     0.14   0.31   0.40    -0.17  -0.11  -0.28
    10   1    -0.11  -0.95   0.19     0.19  -0.05  -0.09     0.30   0.00  -0.16
                      7                      8                      9
                      A                      A                      A
 Frequencies --    886.9918              1054.2509              1076.2422
 Red. masses --      1.9727                 2.4551                 2.9280
 Frc consts  --      0.9144                 1.6077                 1.9982
 IR Inten    --     14.8100                65.4186                77.1383
  Atom  AN      X      Y      Z        X      Y      Z        X      Y      Z
     1   6     0.16  -0.12  -0.09     0.07  -0.09   0.16     0.19   0.13   0.16
     2   8    -0.01  -0.01   0.04    -0.05   0.01  -0.11    -0.11   0.04  -0.14
     3   6     0.07   0.09  -0.02    -0.16   0.11  -0.07     0.03  -0.20  -0.03
     4   8    -0.13   0.04   0.03     0.15  -0.04   0.00    -0.05   0.03   0.00
     5   1    -0.25   0.21   0.08     0.13  -0.09   0.19    -0.30   0.36   0.11
     6   1     0.08  -0.71  -0.08     0.08   0.09   0.16     0.13  -0.28   0.35
     7   1    -0.10   0.09  -0.19    -0.20   0.11  -0.36     0.22  -0.22   0.40
     8   1    -0.16  -0.09   0.07    -0.53  -0.09   0.11     0.01   0.01  -0.03
     9   1     0.02   0.31   0.27     0.17   0.18   0.29    -0.01  -0.26  -0.15
    10   1    -0.16   0.00   0.05    -0.32   0.06   0.21    -0.18   0.05   0.06
                     10                     11                     12
                      A                      A                      A
 Frequencies --   1115.2204              1171.6590              1260.4836
 Red. masses --      2.4559                 1.0980                 1.1126
 Frc consts  --      1.7996                 0.8881                 1.0415
 IR Inten    --     38.8451                20.6515                 4.0069
  Atom  AN      X      Y      Z        X      Y      Z        X      Y      Z
     1   6    -0.07  -0.03   0.15     0.04   0.01   0.01    -0.03   0.00   0.03
     2   8     0.00   0.01  -0.07    -0.01  -0.03  -0.01     0.03   0.02  -0.02
     3   6     0.22   0.02  -0.09    -0.06  -0.03   0.01    -0.03  -0.05   0.01
     4   8    -0.16  -0.01   0.02     0.01   0.02   0.01     0.02   0.01  -0.01
     5   1     0.38  -0.11   0.36    -0.05   0.20   0.20     0.19   0.22   0.54
     6   1    -0.03   0.42  -0.08     0.06   0.06   0.26    -0.12  -0.20  -0.68
     7   1    -0.13   0.09  -0.25    -0.22   0.17  -0.44     0.07  -0.03   0.09
     8   1     0.16  -0.35  -0.06     0.37  -0.23  -0.17     0.00   0.01   0.00
     9   1     0.40   0.02   0.09    -0.33   0.12   0.01    -0.27   0.08   0.02
    10   1     0.00   0.00  -0.06     0.43  -0.07  -0.18    -0.03   0.00   0.02
                     13                     14                     15
                      A                      A                      A
 Frequencies --   1286.6743              1376.2677              1411.6385
 Red. masses --      1.2576                 1.1977                 1.2375
 Frc consts  --      1.2267                 1.3366                 1.4529
 IR Inten    --     46.9420                 1.3454                30.4787
  Atom  AN      X      Y      Z        X      Y      Z        X      Y      Z
     1   6     0.01  -0.07   0.05    -0.03  -0.03   0.00     0.01   0.07   0.07
     2   8    -0.02   0.05  -0.02    -0.01   0.01  -0.01     0.01  -0.03   0.01
     3   6    -0.05   0.06  -0.06     0.09  -0.05   0.02    -0.03   0.05   0.06
     4   8     0.00   0.01   0.02     0.01   0.01  -0.05     0.00  -0.01  -0.05
     5   1     0.06  -0.30  -0.23     0.07  -0.10  -0.03     0.04  -0.20  -0.30
     6   1     0.01  -0.10  -0.04     0.02   0.16   0.27    -0.06  -0.31  -0.23
     7   1     0.26  -0.20   0.50     0.01  -0.01   0.04    -0.10   0.07  -0.19
     8   1     0.22  -0.35  -0.17     0.16   0.18   0.00     0.50  -0.33  -0.16
     9   1    -0.15   0.27   0.16    -0.56   0.46   0.26     0.05  -0.12  -0.11
    10   1     0.34  -0.05  -0.14    -0.44   0.08   0.16    -0.46   0.09   0.16
                     16                     17                     18
                      A                      A                      A
 Frequencies --   1439.8436              1491.6353              1500.7598
 Red. masses --      1.4908                 1.0860                 1.0879
 Frc consts  --      1.8210                 1.4236                 1.4437
 IR Inten    --     15.2838                 4.0935                 5.1719
  Atom  AN      X      Y      Z        X      Y      Z        X      Y      Z
     1   6    -0.02   0.12   0.10     0.01  -0.01   0.00    -0.04   0.05  -0.05
     2   8     0.01  -0.04   0.02     0.00   0.00   0.00    -0.01   0.01  -0.01
     3   6     0.04  -0.08  -0.09    -0.06  -0.04  -0.02    -0.02  -0.01   0.00
     4   8     0.00   0.01   0.03    -0.01   0.00   0.00     0.00   0.00   0.00
     5   1     0.00  -0.28  -0.48    -0.10   0.06   0.01     0.65  -0.17   0.21
     6   1    -0.10  -0.26  -0.28     0.00   0.06  -0.10    -0.06  -0.53   0.43
     7   1    -0.13   0.10  -0.28     0.00   0.00   0.00     0.01  -0.01   0.02
     8   1    -0.35   0.23   0.07     0.43   0.50  -0.22     0.02   0.11  -0.02
     9   1    -0.18   0.23   0.19     0.45   0.08   0.52     0.11  -0.03   0.05
    10   1     0.28  -0.05  -0.10     0.00  -0.01   0.00     0.05  -0.01  -0.02
                     19                     20                     21
                      A                      A                      A
 Frequencies --   2984.4694              2987.3929              3034.4091
 Red. masses --      1.0594                 1.0677                 1.1052
 Frc consts  --      5.5599                 5.6144                 5.9956
 IR Inten    --     48.5699                41.0704                65.8428
  Atom  AN      X      Y      Z        X      Y      Z        X      Y      Z
     1   6    -0.05   0.04  -0.01     0.01  -0.03   0.01    -0.07  -0.04   0.04
     2   8     0.00   0.00   0.00     0.00   0.00   0.00     0.00   0.00   0.00
     3   6     0.02   0.02  -0.01     0.03   0.05  -0.02    -0.01  -0.01   0.00
     4   8     0.00   0.00   0.00     0.00   0.00   0.00     0.00   0.00   0.00
     5   1    -0.19  -0.32   0.23     0.17   0.31  -0.22     0.32   0.60  -0.41
     6   1     0.77  -0.09  -0.07    -0.26   0.03   0.03     0.55  -0.09  -0.05
     7   1     0.00   0.00   0.00     0.00   0.00   0.00     0.00   0.00   0.00
     8   1    -0.06   0.01  -0.14    -0.06   0.01  -0.16     0.05   0.00   0.11
     9   1    -0.16  -0.31   0.22    -0.34  -0.64   0.45     0.08   0.15  -0.10
    10   1     0.00   0.00   0.00     0.00   0.00   0.00     0.00   0.00   0.00
                     22                     23                     24
                      A                      A                      A
 Frequencies --   3082.6362              3836.8453              3889.6145
 Red. masses --      1.0946                 1.0658                 1.0670
 Frc consts  --      6.1285                 9.2444                 9.5108
 IR Inten    --     31.3652                41.6403                43.9721
  Atom  AN      X      Y      Z        X      Y      Z        X      Y      Z
     1   6     0.00   0.01   0.00     0.00   0.00   0.00     0.00   0.00   0.00
     2   8     0.00   0.00   0.00     0.00   0.00   0.00     0.00  -0.06  -0.03
     3   6    -0.02   0.01  -0.08     0.00   0.00   0.00     0.00   0.00   0.00
     4   8     0.00   0.00   0.00     0.03   0.01   0.06     0.00   0.00   0.00
     5   1    -0.04  -0.07   0.05     0.00   0.00   0.00     0.00   0.00   0.00
     6   1     0.01   0.00   0.00     0.00   0.00   0.00     0.00   0.00   0.00
     7   1     0.00   0.00   0.00     0.00   0.01   0.00     0.03   0.91   0.41
     8   1     0.37   0.01   0.89     0.00   0.00  -0.01     0.00   0.00   0.00
     9   1    -0.09  -0.17   0.11     0.00   0.00   0.00     0.00   0.00   0.00
    10   1     0.00   0.00  -0.01    -0.43  -0.11  -0.90     0.00   0.00   0.01

 -------------------
 - Thermochemistry -
 -------------------
[...]
     27  0.768948D-03  0.210611D-02 -0.283502D-02  0.132651D-02  0.117449D-01
     28  0.843646D-03 -0.567855D-02  0.700048D-02  0.396729D-02 -0.106664D-01
     29  0.917830D-04  0.859580D-02 -0.471923D-02 -0.938118D-02 -0.176697D-02
     30  0.124179D-02 -0.141018D-02 -0.359563D-03  0.138162D-02  0.120449D-01
     31  0.131648D-02 -0.919484D-02  0.947593D-02  0.402241D-02 -0.103663D-01
     32  0.564621D-03  0.507951D-02 -0.224378D-02 -0.932606D-02 -0.146689D-02
     33 -0.169693D-02  0.277993D-02 -0.511124D-02  0.379532D-02  0.122683D-01
     34 -0.162224D-02 -0.500473D-02  0.472426D-02  0.643610D-02 -0.101429D-01
     35 -0.237410D-02  0.926962D-02 -0.699545D-02 -0.691236D-02 -0.124350D-02
     36 -0.204967D-02  0.186886D-02 -0.234467D-01  0.221672D-01  0.790751D-02
     37  0.175662D-02  0.169410D-01  0.244946D-01  0.401858D-02 -0.192357D-01
     38  0.426502D-04 -0.189858D-01 -0.453645D-02 -0.234696D-01  0.146626D-01
               21            22            23            24            25 
     21  0.650165D-01
     22 -0.498461D-02  0.273275D-01
     23  0.110108D-02 -0.240080D-02  0.187390D+00
     24  0.146525D-02 -0.219608D-02 -0.149701D-02  0.166061D-01
     25 -0.208107D-03  0.119109D-02  0.814948D-03 -0.764687D-02  0.246659D-01
     26 -0.122626D-02  0.581741D-03 -0.231724D-02 -0.655409D-02 -0.159857D-01
     27 -0.128275D-01  0.585874D-03  0.551684D-02 -0.389224D-02  0.187514D-02
     28  0.855601D-03  0.476676D-02 -0.235620D-02 -0.214969D-02  0.509845D-03
     29  0.105858D-01 -0.364024D-02  0.248682D-03 -0.450984D-02  0.199970D-02
     30 -0.112383D-01 -0.201704D-03  0.330119D-02  0.696357D-03  0.617361D-03
     31  0.244484D-02  0.397918D-02 -0.457185D-02  0.243890D-02 -0.747929D-03
     32  0.121750D-01 -0.442782D-02 -0.196696D-02  0.787536D-04  0.741929D-03
     33 -0.140181D-01  0.253209D-03  0.571223D-02  0.868233D-03 -0.364181D-03
     34 -0.335004D-03  0.443409D-02 -0.216081D-02  0.261078D-02 -0.172947D-02
     35  0.939518D-02 -0.397290D-02  0.444078D-03  0.250630D-03 -0.239613D-03
     36 -0.992738D-02  0.472192D-03 -0.176792D-02  0.146758D-02 -0.731990D-03
     37 -0.135077D-01 -0.135419D-01 -0.424679D-02 -0.834132D-03 -0.132640D-03
     38  0.205457D-01  0.135121D-01  0.234375D-02 -0.773116D-03  0.981175D-03
               26            27            28            29            30 
     26  0.261185D-01
     27  0.154990D-02  0.203503D-01
     28  0.730383D-03  0.623731D-02  0.185274D-01
     29  0.167943D-02  0.639904D-02  0.629282D-02  0.190385D-01
     30 -0.392060D-03  0.577407D-02 -0.812396D-02 -0.848877D-02  0.189563D-01
     31 -0.121157D-02 -0.833890D-02  0.416611D-02 -0.859498D-02  0.505823D-02
     32 -0.262526D-03 -0.817717D-02 -0.806845D-02  0.415069D-02  0.469342D-02
     33 -0.610150D-04  0.530778D-02 -0.839509D-02 -0.796253D-02  0.568207D-02
     34 -0.880529D-03 -0.880519D-02  0.389498D-02 -0.806874D-02 -0.821596D-02
     35  0.685192D-04 -0.864347D-02 -0.833958D-02  0.467694D-02 -0.858077D-02
     36 -0.850949D-03 -0.249649D-02  0.177106D-02  0.176841D-02 -0.396355D-02
     37  0.149653D-02  0.280078D-02  0.182004D-03 -0.116040D-03  0.250175D-02
     38  0.340573D-04  0.346803D-02  0.484867D-04  0.242795D-03  0.326865D-02
               31            32            33            34            35 
     31  0.175632D-01
     32  0.480214D-02  0.170213D-01
     33 -0.802080D-02 -0.758823D-02  0.177040D-01
     34  0.448421D-02 -0.747951D-02  0.400117D-02  0.167013D-01
     35 -0.827689D-02  0.473963D-02  0.443374D-02  0.473762D-02  0.177541D-01
     36  0.303992D-03  0.301346D-03 -0.145983D-02  0.280771D-02  0.280506D-02
     37 -0.117029D-03 -0.415073D-03  0.177603D-02 -0.842746D-03 -0.114079D-02
     38 -0.150892D-03  0.434159D-04  0.170354D-02 -0.171600D-02 -0.152169D-02
               36            37            38 
     36  0.176578D-01
     37 -0.493482D-02  0.226985D-01
     38 -0.509749D-02 -0.123804D-01  0.237936D-01
 Leave Link  716 at Fri Feb 20 11:04:34 2015, MaxMem=   524288000 cpu:         0.3
 (Enter /opt/g09/l103.exe)

 GradGradGradGradGradGradGradGradGradGradGradGradGradGradGradGradGradGrad
 Berny optimization.
 Red2BG is reusing G-inverse.
 Internal  Forces:  Max     0.000004955 RMS     0.000001623
 Search for a local minimum.
 Step number   1 out of a maximum of    2
 All quantities printed in internal units (Hartrees-Bohrs-Radians)
 Second derivative matrix not updated -- analytic derivatives used.
 ITU=  0
     Eigenvalues ---    0.00222   0.00323   0.00779   0.04703   0.04827
     Eigenvalues ---    0.05494   0.06336   0.09723   0.10164   0.11914
     Eigenvalues ---    0.13315   0.15166   0.16967   0.22353   0.25037
     Eigenvalues ---    0.29748   0.31454   0.31817   0.32181   0.33435
     Eigenvalues ---    0.37564   0.38508   0.53099   0.54410
 Angle between quadratic step and forces=  59.97 degrees.
 Linear search not attempted -- first point.
 Iteration  1 RMS(Cart)=  0.00001436 RMS(Int)=  0.00000000
 Iteration  2 RMS(Cart)=  0.00000000 RMS(Int)=  0.00000000
 ITry= 1 IFail=0 DXMaxC= 3.92D-05 DCOld= 1.00D+10 DXMaxT= 3.00D-01 DXLimC= 3.00D+00 Rises=F
 Variable       Old X    -DE/DX   Delta X   Delta X   Delta X     New X
                                 (Linear)    (Quad)   (Total)
    R1        2.70199   0.00000   0.00000   0.00000   0.00000   2.70199
    R2        2.87521   0.00000   0.00000   0.00000   0.00000   2.87521
    R3        2.07646   0.00000   0.00000  -0.00001  -0.00001   2.07645
    R4        2.07923   0.00000   0.00000  -0.00001  -0.00001   2.07922
    R5        1.81394   0.00000   0.00000   0.00000   0.00000   1.81394
    R6        2.67822   0.00000   0.00000   0.00000   0.00000   2.67822
    R7        2.06806   0.00000   0.00000   0.00001   0.00001   2.06807
    R8        2.08051   0.00000   0.00000  -0.00002  -0.00002   2.08049
    R9        1.82084   0.00000   0.00000   0.00000   0.00000   1.82084
    A1        1.86222   0.00000   0.00000  -0.00001  -0.00001   1.86221
    A2        1.93224   0.00000   0.00000  -0.00001  -0.00001   1.93224
    A3        1.93720   0.00000   0.00000   0.00000   0.00000   1.93721
    A4        1.91127   0.00000   0.00000   0.00000   0.00000   1.91127
    A5        1.91739   0.00000   0.00000   0.00000   0.00000   1.91738
    A6        1.90319   0.00000   0.00000   0.00001   0.00001   1.90320
    A7        1.90677   0.00000   0.00000  -0.00001  -0.00001   1.90676
    A8        1.95278   0.00000   0.00000   0.00002   0.00002   1.95280
    A9        1.91515   0.00000   0.00000  -0.00002  -0.00002   1.91513
   A10        1.90311   0.00000   0.00000   0.00001   0.00001   1.90312
   A11        1.86668   0.00000   0.00000   0.00000   0.00000   1.86668
   A12        1.93662   0.00000   0.00000   0.00001   0.00001   1.93663
   A13        1.88819   0.00000   0.00000  -0.00002  -0.00002   1.88817
   A14        1.85968   0.00000   0.00000   0.00000   0.00000   1.85968
    D1        2.90215   0.00000   0.00000   0.00002   0.00002   2.90217
    D2        0.82371   0.00000   0.00000   0.00003   0.00003   0.82374
    D3       -1.29244   0.00000   0.00000   0.00002   0.00002  -1.29243
    D4       -1.07447   0.00000   0.00000  -0.00001  -0.00001  -1.07448
    D5        3.13967   0.00000   0.00000  -0.00001  -0.00001   3.13966
    D6        1.07445   0.00000   0.00000   0.00002   0.00002   1.07447
    D7        1.01756   0.00000   0.00000  -0.00002  -0.00002   1.01754
    D8       -1.05149   0.00000   0.00000  -0.00002  -0.00002  -1.05151
    D9       -3.11671   0.00000   0.00000   0.00001   0.00001  -3.11670
   D10        3.10736   0.00000   0.00000  -0.00001  -0.00001   3.10735
   D11        1.03831   0.00000   0.00000  -0.00001  -0.00001   1.03830
   D12       -1.02691   0.00000   0.00000   0.00002   0.00002  -1.02688
   D13        0.92323   0.00000   0.00000  -0.00002  -0.00002   0.92321
   D14        3.02084   0.00000   0.00000  -0.00004  -0.00004   3.02081
   D15       -1.20660   0.00000   0.00000  -0.00005  -0.00005  -1.20666
         Item               Value     Threshold  Converged?
 Maximum Force            0.000005     0.000015     YES
 RMS     Force            0.000002     0.000010     YES
 Maximum Displacement     0.000039     0.000060     YES
 RMS     Displacement     0.000014     0.000040     YES
 Predicted change in Energy=-2.709888D-10
 Optimization completed.
    -- Stationary point found.
                           ----------------------------
                           !   Optimized Parameters   !
                           ! (Angstroms and Degrees)  !
 --------------------------                            --------------------------
 ! Name  Definition              Value          Derivative Info.                !
 --------------------------------------------------------------------------------
 ! R1    R(1,2)                  1.4298         -DE/DX =    0.0                 !
 ! R2    R(1,3)                  1.5215         -DE/DX =    0.0                 !
 ! R3    R(1,5)                  1.0988         -DE/DX =    0.0                 !
 ! R4    R(1,6)                  1.1003         -DE/DX =    0.0                 !
 ! R5    R(2,7)                  0.9599         -DE/DX =    0.0                 !
 ! R6    R(3,4)                  1.4173         -DE/DX =    0.0                 !
 ! R7    R(3,8)                  1.0944         -DE/DX =    0.0                 !
 ! R8    R(3,9)                  1.101          -DE/DX =    0.0                 !
 ! R9    R(4,10)                 0.9635         -DE/DX =    0.0                 !
 ! A1    A(2,1,3)              106.6972         -DE/DX =    0.0                 !
 ! A2    A(2,1,5)              110.7094         -DE/DX =    0.0                 !
 ! A3    A(2,1,6)              110.9935         -DE/DX =    0.0                 !
 ! A4    A(3,1,5)              109.5079         -DE/DX =    0.0                 !
 ! A5    A(3,1,6)              109.8581         -DE/DX =    0.0                 !
 ! A6    A(5,1,6)              109.0448         -DE/DX =    0.0                 !
 ! A7    A(1,2,7)              109.2498         -DE/DX =    0.0                 !
 ! A8    A(1,3,4)              111.8861         -DE/DX =    0.0                 !
 ! A9    A(1,3,8)              109.7298         -DE/DX =    0.0                 !
 ! A10   A(1,3,9)              109.0404         -DE/DX =    0.0                 !
 ! A11   A(4,3,8)              106.9526         -DE/DX =    0.0                 !
 ! A12   A(4,3,9)              110.96           -DE/DX =    0.0                 !
 ! A13   A(8,3,9)              108.1855         -DE/DX =    0.0                 !
 ! A14   A(3,4,10)             106.5518         -DE/DX =    0.0                 !
 ! D1    D(3,1,2,7)            166.2809         -DE/DX =    0.0                 !
 ! D2    D(5,1,2,7)             47.195          -DE/DX =    0.0                 !
 ! D3    D(6,1,2,7)            -74.0516         -DE/DX =    0.0                 !
 ! D4    D(2,1,3,4)            -61.5624         -DE/DX =    0.0                 !
 ! D5    D(2,1,3,8)            179.8896         -DE/DX =    0.0                 !
 ! D6    D(2,1,3,9)             61.5615         -DE/DX =    0.0                 !
 ! D7    D(5,1,3,4)             58.3019         -DE/DX =    0.0                 !
 ! D8    D(5,1,3,8)            -60.2462         -DE/DX =    0.0                 !
 ! D9    D(5,1,3,9)           -178.5743         -DE/DX =    0.0                 !
 ! D10   D(6,1,3,4)            178.0388         -DE/DX =    0.0                 !
 ! D11   D(6,1,3,8)             59.4907         -DE/DX =    0.0                 !
 ! D12   D(6,1,3,9)            -58.8374         -DE/DX =    0.0                 !
 ! D13   D(1,3,4,10)            52.8971         -DE/DX =    0.0                 !
 ! D14   D(8,3,4,10)           173.0816         -DE/DX =    0.0                 !
 ! D15   D(9,3,4,10)           -69.1331         -DE/DX =    0.0                 !
 --------------------------------------------------------------------------------
 GradGradGradGradGradGradGradGradGradGradGradGradGradGradGradGradGradGrad

 Leave Link  103 at Fri Feb 20 11:04:34 2015, MaxMem=   524288000 cpu:         0.0
 (Enter /opt/g09/l9999.exe)
 1\1\GINC-ARP\Freq\RB971\6-311+G(d,p)\C2H6O2\PB556\20-Feb-2015\0\\#P Ge
 om=AllCheck Guess=TCheck SCRF=Check GenChk RB971/6-311+G(d,p) Freq\\fr
 eq-b971_107-21-1.gau\\0,1\C,1.04057,2.16449,1.62355\O,1.63355,2.09679,
 2.92286\C,1.3429,0.84152,0.93558\O,2.73617,0.63226,0.78189\H,1.47464,2
 .98873,1.04079\H,-0.04791,2.30893,1.69405\H,1.65474,2.9761,3.30726\H,0
 .90721,0.83912,-0.06832\H,0.88302,0.02377,1.51169\H,3.1286,0.74501,1.6
 5465\\Version=ES64L-G09RevD.01\HF=-230.2592876\RMSD=9.770e-10\RMSF=3.1
 96e-06\ZeroPoint=0.0853241\Thermal=0.0904134\Dipole=-0.5780635,0.77878
 04,0.3225641\DipoleDeriv=0.4218525,0.0523522,0.1553193,0.0907422,0.196
 9312,0.0203699,0.2057232,0.0001919,0.7554995,-0.5956964,-0.0572566,-0.
 1298371,-0.0348103,-0.3423065,-0.0846491,-0.1478485,-0.0995585,-0.9503
 478,0.8055175,-0.0911235,-0.0864299,-0.0904226,0.3449657,-0.0362214,-0
 .0466134,-0.0116423,0.2962727,-0.9461254,0.1424031,0.0859474,0.1119303
 ,-0.6095362,-0.0254691,0.0162076,-0.0008112,-0.3236633,0.006292,-0.100
 1319,0.0222093,-0.0409003,-0.0951398,0.0863901,0.0067789,0.0632914,-0.
 0914702,-0.216106,0.0511243,-0.0452505,0.0329231,0.0323068,-0.0009671,
 0.0131136,-0.0315494,-0.0209719,0.3258351,0.0435058,-0.0305217,0.02883
 89,0.1607229,-0.0193798,-0.031709,0.012344,0.2831164,-0.0047924,0.0184
 248,-0.0415652,0.0186487,0.0558636,0.0065928,-0.0926271,-0.0164428,-0.
 105627,-0.0841652,-0.0390381,0.0548697,-0.0757034,-0.1028012,0.0616617
 ,0.0955282,0.0922823,-0.0147665,0.2873884,-0.02026,0.0152588,-0.041246
 6,0.3589936,-0.008328,-0.0185536,-0.0081054,0.1719582\Polar=35.5934551
 ,-0.8356375,35.0950532,0.8022312,2.3108103,35.3109863\PG=C01 [X(C2H6O2
 )]\NImag=0\\0.57441130,0.01859095,0.54294144,-0.03564878,-0.03580044,0
 .45895199,-0.09007329,0.01627529,-0.05867201,0.10047160,0.00000209,-0.
 09315312,-0.00932655,-0.00907612,0.55077505,-0.06115004,0.03152238,-0.
 18558018,0.11590528,0.17589086,0.36753458,-0.07303585,0.01992380,0.015
 38541,-0.00203402,-0.01569554,-0.01343708,0.49125877,0.00520711,-0.176
 82927,-0.04579485,0.00006058,0.00067579,-0.00603720,0.03691751,0.50690
 030,0.00208751,-0.03005018,-0.09146363,-0.00136812,-0.04071262,-0.0343
 2587,0.04455347,-0.03564107,0.61335582,-0.03383336,0.01118150,0.003395
 14,0.00475773,-0.00126942,0.00022070,-0.22418289,0.02465039,0.03715746
 ,0.42636702,0.03989289,-0.00471028,-0.00530424,0.00112191,0.00164382,-
 0.00037930,0.01144936,-0.06649626,-0.00905425,-0.02123745,0.07228444,0
 .01784654,-0.00424901,-0.00234346,0.00268005,-0.00072562,0.00132781,-0
 .00888470,-0.00209721,-0.09575699,0.14371807,0.07238749,0.52498661,-0.
 09798922,-0.08130890,0.05486792,0.00720147,0.01432840,-0.01537392,0.00
 126301,0.00486740,-0.00201409,0.00194124,-0.00025814,-0.00087069,0.097
 63700,-0.07626045,-0.19003519,0.09339533,0.00170305,0.00392339,0.00204
 360,-0.01547739,-0.02491425,0.01475120,0.00032489,0.00474306,0.0001196
 0,0.08482329,0.20481242,0.05231554,0.09088613,-0.10889889,0.00242443,0
 .02324611,-0.03378011,-0.00674281,-0.01333612,0.00911949,-0.00079784,0
 .00150996,0.00017335,-0.05187952,-0.10439327,0.13191036,-0.28425960,0.
 02935131,0.02966806,-0.01155421,0.00160617,-0.01398813,-0.00677886,-0.
 00189109,0.00130822,0.00090687,0.00235853,0.00063078,-0.01173052,0.002
 21964,0.00316132,0.31292896,0.02810523,-0.05851446,-0.00226511,0.00178
 945,0.00345840,-0.00009216,0.02792446,0.00052684,-0.00145628,0.0036536
 4,-0.00585116,-0.00328321,-0.02396886,0.00438079,0.00323534,-0.0346318
 1,0.05454290,0.03210500,-0.00548168,-0.05088379,-0.04056478,0.00534172
 ,-0.01171520,0.01409103,0.00348015,0.00079864,0.00271377,-0.00516998,-
 0.00059407,0.01454845,-0.00267874,0.00071709,-0.02079486,0.00338115,0.
 06133691,-0.00213877,-0.01660442,-0.00728241,-0.00988345,0.00948254,-0
 .01369989,-0.00219608,0.00109372,-0.00219636,0.00018947,0.00014471,0.0
 0127821,0.00097936,0.00091017,0.00010820,-0.00051461,-0.00104157,-0.00
 087939,0.01196233,0.00284979,0.00304009,0.00941147,-0.01011254,-0.4638
 6954,-0.19978583,0.00016141,0.00015431,-0.00049227,-0.00084712,0.00053
 797,0.00004857,0.00067957,0.00127478,0.00168443,0.00068996,-0.00005772
 ,0.00086519,0.00640071,0.45828022,-0.00023494,-0.03656768,-0.01634314,
 -0.02094488,-0.15170153,-0.10423724,-0.00409640,0.00168239,-0.00822834
 ,-0.00046541,0.00076541,0.00080557,0.00132552,-0.00003302,0.00118728,-
 0.00015594,0.00005716,0.00086497,0.02365848,0.18771176,0.12631707,0.00
 285001,-0.00329274,0.00406524,0.00086350,0.00235527,0.00149596,-0.0786
 1959,0.00019275,-0.08083376,-0.02753447,0.00038416,-0.03493611,0.00002
 615,-0.00002679,-0.00032506,0.00010875,-0.00065768,-0.00014215,0.00051
 070,0.00035051,0.00060723,0.10267649,-0.01176405,0.00357937,-0.0251634
 0,0.00062021,-0.00664067,-0.00375714,-0.00077776,-0.05187460,0.0002643
 6,0.00483612,0.00167985,0.00494549,-0.00059830,0.00076457,0.00079231,0
 .00058247,0.00083121,0.00058385,-0.00044466,0.00024613,-0.00203085,-0.
 00194286,0.05036277,-0.00511402,0.00445469,-0.01214150,0.00056384,-0.0
 0395622,-0.00043846,-0.09151798,-0.00143545,-0.27590804,-0.00015523,0.
 00002652,0.00771263,-0.00021372,-0.00033116,0.00077734,0.00064855,-0.0
 0033273,-0.00004453,-0.00026532,0.00007426,-0.00060612,0.09918113,0.00
 193942,0.29312919,0.00449443,0.00483537,-0.00358020,0.00001552,-0.0005
 7317,0.00037455,-0.07933178,-0.06791718,0.04322821,-0.03583488,-0.0209
 2354,0.02032615,0.00066288,0.00173984,0.00146500,0.00045248,-0.0006508
 4,-0.00085444,-0.00005974,0.00015456,-0.00017072,0.00605158,0.00861514
 ,-0.00512615,0.10298751,-0.01033720,-0.02702204,0.01777022,0.00031295,
 0.00329158,0.00016075,-0.06838110,-0.18881691,0.09623340,0.00136875,0.
 01058251,-0.00505568,0.00133025,-0.00435404,-0.00348281,0.00047106,0.0
 0060137,-0.00006976,0.00013317,0.00065415,0.00038323,0.00062162,0.0011
 4617,-0.00058426,0.07522468,0.20372558,-0.00513238,-0.01358034,0.00649
 234,0.00012010,0.00114303,0.00200961,0.04603494,0.09833968,-0.12134551
 ,0.00696998,-0.00051328,0.00330661,-0.00009481,-0.00320239,-0.00084579
 ,-0.00031114,0.00104282,0.00051301,0.00009894,0.00011821,0.00033095,0.
 01001456,0.02315780,-0.01430388,-0.05739389,-0.10544595,0.12361625,-0.
 00042565,0.00104785,-0.00219838,0.00023514,-0.00116022,-0.00034742,-0.
 02634272,-0.00318119,-0.04192254,-0.11277673,-0.01293244,-0.14178831,0
 .00000865,0.00004374,0.00027074,0.00044075,-0.00052201,-0.00022264,0.0
 0115080,-0.00032685,0.00047705,-0.00693312,0.00087369,0.00199891,0.000
 56200,-0.00074419,-0.00030630,0.14408088,0.00371364,0.00070346,0.00307
 756,-0.00269479,-0.00010470,0.00043405,0.00395525,0.00067405,0.0061577
 1,-0.02266130,-0.01441395,-0.06209043,0.00010529,-0.00059553,-0.000142
 08,-0.00075625,0.00008184,-0.00025190,-0.00007438,-0.00026040,-0.00026
 687,0.00201577,-0.00009482,0.00014494,-0.00050486,0.00019162,-0.001059
 57,0.01690163,0.01381842,0.00292556,-0.00113387,0.00221026,-0.00014391
 ,0.00080081,-0.00079495,0.00461411,0.00083969,0.00375443,-0.19275664,-
 0.05426833,-0.43961806,-0.00029514,0.00032884,-0.00036011,-0.00016685,
 -0.00028699,-0.00099304,-0.00082046,0.00036422,-0.00009099,0.00087294,
 -0.00073184,0.00182338,0.00173149,0.00009086,0.00022640,0.18403889,0.0
 5399659,0.43384267\\0.00000436,-0.00000510,0.00000376,0.00000020,0.000
 00020,0.00000058,-0.00000491,0.00000319,-0.00001151,-0.00000184,0.0000
 0146,-0.00000112,0.00000042,0.00000361,-0.00000206,-0.00000243,0.00000
 039,0.00000149,0.00000135,-0.00000030,0.00000119,0.00000180,0.00000027
 ,0.00000324,-0.00000017,-0.00000358,0.00000400,0.00000122,-0.00000013,
 0.00000044\\\@


 HO!  SUCH BUGS AND GOBLINS IN MY LIFE!

                            -- HAMLET, ACT 5, SCENE 2
 Job cpu time:       0 days  0 hours 10 minutes 10.1 seconds.
 File lengths (MBytes):  RWF=     19 Int=      0 D2E=      0 Chk=      2 Scr=      1
 Normal termination of Gaussian 09 at Fri Feb 20 11:04:34 2015.
