 Entering Gaussian System, Link 0=g09
 Input=freq-b971_107133-43-7.gau
 Output=freq-b971_107133-43-7.log
 Initial command:
 /opt/g09/l1.exe "/scratch/pb556/g09_run/add_hco//Gau-25501.inp" -scrdir="/scratch/pb556/g09_run/add_hco//"
 Entering Link 1 = /opt/g09/l1.exe PID=     25510.
  
 Copyright (c) 1988,1990,1992,1993,1995,1998,2003,2009,2013,
            Gaussian, Inc.  All Rights Reserved.
  
 This is part of the Gaussian(R) 09 program.  It is based on
 the Gaussian(R) 03 system (copyright 2003, Gaussian, Inc.),
 the Gaussian(R) 98 system (copyright 1998, Gaussian, Inc.),
 the Gaussian(R) 94 system (copyright 1995, Gaussian, Inc.),
 the Gaussian 92(TM) system (copyright 1992, Gaussian, Inc.),
 the Gaussian 90(TM) system (copyright 1990, Gaussian, Inc.),
 the Gaussian 88(TM) system (copyright 1988, Gaussian, Inc.),
 the Gaussian 86(TM) system (copyright 1986, Carnegie Mellon
 University), and the Gaussian 82(TM) system (copyright 1983,
 Carnegie Mellon University). Gaussian is a federally registered
 trademark of Gaussian, Inc.
  
 This software contains proprietary and confidential information,
 including trade secrets, belonging to Gaussian, Inc.
  
 This software is provided under written license and may be
 used, copied, transmitted, or stored only in accord with that
 written license.
  
 The following legend is applicable only to US Government
 contracts under FAR:
  
                    RESTRICTED RIGHTS LEGEND
  
 Use, reproduction and disclosure by the US Government is
 subject to restrictions as set forth in subparagraphs (a)
 and (c) of the Commercial Computer Software - Restricted
 Rights clause in FAR 52.227-19.
  
 Gaussian, Inc.
 340 Quinnipiac St., Bldg. 40, Wallingford CT 06492
  
  
 ---------------------------------------------------------------
 Warning -- This program may not be used in any manner that
 competes with the business of Gaussian, Inc. or will provide
 assistance to any competitor of Gaussian, Inc.  The licensee
 of this program is prohibited from giving any competitor of
 Gaussian, Inc. access to this program.  By using this program,
 the user acknowledges that Gaussian, Inc. is engaged in the
 business of creating and licensing software in the field of
 computational chemistry and represents and warrants to the
 licensee that it is not a competitor of Gaussian, Inc. and that
 it will not use this program in any manner prohibited above.
 ---------------------------------------------------------------
  

 Cite this work as:
 Gaussian 09, Revision D.01,
 M. J. Frisch, G. W. Trucks, H. B. Schlegel, G. E. Scuseria, 
 M. A. Robb, J. R. Cheeseman, G. Scalmani, V. Barone, B. Mennucci, 
 G. A. Petersson, H. Nakatsuji, M. Caricato, X. Li, H. P. Hratchian, 
 A. F. Izmaylov, J. Bloino, G. Zheng, J. L. Sonnenberg, M. Hada, 
 M. Ehara, K. Toyota, R. Fukuda, J. Hasegawa, M. Ishida, T. Nakajima, 
 Y. Honda, O. Kitao, H. Nakai, T. Vreven, J. A. Montgomery, Jr., 
 J. E. Peralta, F. Ogliaro, M. Bearpark, J. J. Heyd, E. Brothers, 
 K. N. Kudin, V. N. Staroverov, T. Keith, R. Kobayashi, J. Normand, 
 K. Raghavachari, A. Rendell, J. C. Burant, S. S. Iyengar, J. Tomasi, 
 M. Cossi, N. Rega, J. M. Millam, M. Klene, J. E. Knox, J. B. Cross, 
 V. Bakken, C. Adamo, J. Jaramillo, R. Gomperts, R. E. Stratmann, 
 O. Yazyev, A. J. Austin, R. Cammi, C. Pomelli, J. W. Ochterski, 
 R. L. Martin, K. Morokuma, V. G. Zakrzewski, G. A. Voth, 
 P. Salvador, J. J. Dannenberg, S. Dapprich, A. D. Daniels, 
 O. Farkas, J. B. Foresman, J. V. Ortiz, J. Cioslowski, 
 and D. J. Fox, Gaussian, Inc., Wallingford CT, 2013.
 
 ******************************************
 Gaussian 09:  ES64L-G09RevD.01 24-Apr-2013
                20-Feb-2015 
 ******************************************
 %NProcShared=8
 Will use up to    8 processors via shared memory.
 %Mem=500MW
 ----------------------------------------------------------------------
 #p rB971/6-311+G(d,p) Opt=(Tight, CalcAll) Freq GFInput Population=Non
 e Integral(Grid=UltraFine) Guess=MIX NoSymmetry
 ----------------------------------------------------------------------
 1/7=10,10=4,14=-1,18=20,19=15,26=4,38=1/1,3;
 2/9=110,12=2,15=1,17=6,18=5,40=1/2;
 3/5=4,6=6,7=111,11=2,16=1,24=10,25=1,30=1,71=2,74=-20,75=-5,116=1,140=1/1,2,3;
 4/13=-1/1;
 5/5=2,38=5/2;
 8/6=4,10=90,11=11/1;
 11/6=1,8=1,9=11,15=111,16=1,31=1/1,2,10;
 10/6=1,31=1/2;
 7/10=1,25=1,30=1/1,2,3,16;
 1/7=10,10=4,14=-1,18=20,19=15,26=4/3(3);
 2/9=110,15=1/2;
 7/8=1,9=1,25=1,30=1,44=-1/16;
 99//99;
 2/9=110,15=1/2;
 3/5=4,6=6,7=111,11=2,16=1,25=1,30=1,71=2,74=-20,75=-5,116=1,140=1/1,2,3;
 4/5=5,16=3,69=1/1;
 5/5=2,38=5/2;
 8/6=4,10=90,11=11/1;
 11/6=1,8=1,9=11,15=111,16=1,31=1/1,2,10;
 10/6=1,31=1/2;
 7/10=1,25=1,30=1/1,2,3,16;
 1/7=10,10=4,14=-1,18=20,19=15,26=4/3(-8);
 2/9=110,15=1/2;
 7/8=1,9=1,25=1,30=1,44=-1/16;
 99//99;
 Leave Link    1 at Fri Feb 20 10:01:46 2015, MaxMem=   524288000 cpu:         0.6
 (Enter /opt/g09/l101.exe)
 -------------------------
 freq-b971_107133-43-7.gau
 -------------------------
 Symbolic Z-matrix:
 Charge =  0 Multiplicity = 1
 C                     1.29035   3.05885   2.76526 
 C                     2.81076   3.16224   3.05784 
 C                     0.97466   1.55281   2.91191 
 C                     1.14394   3.21346   1.22376 
 C                     3.44922   3.2485    4.47817 
 C                     3.37461   1.79808   2.49209 
 C                     2.94681   2.22308   5.51471 
 C                     4.83488   2.61127   4.1733 
 C                     2.10406   1.08504   1.96238 
 C                     1.69449   1.84933   0.67045 
 C                     4.23719   1.26609   3.67043 
 C                     3.4082    0.84674   4.91069 
 O                     1.55703   2.36017   5.80096 
 H                     0.66499   3.73885   3.34756 
 H                     3.21419   4.01804   2.50224 
 H                     1.02904   1.19787   3.93525 
 H                    -0.01702   1.30511   2.51336 
 H                     1.69642   4.07665   0.8369 
 H                     0.09188   3.34939   0.95128 
 H                     3.46407   4.26564   4.87958 
 H                     4.06156   1.96795   1.65341 
 H                     3.50724   2.40991   6.4423 
 H                     5.46942   2.50225   5.06075 
 H                     5.39456   3.15144   3.40315 
 H                     2.20978   0.00507   1.82104 
 H                     0.91331   1.30138   0.13251 
 H                     2.53563   1.98232  -0.01839 
 H                     4.96291   0.50871   3.35995 
 H                     4.04655   0.31017   5.62247 
 H                     2.56585   0.19299   4.67573 
 H                     1.37441   1.90651   6.62778 
 
 NAtoms=     31 NQM=       31 NQMF=       0 NMMI=      0 NMMIF=      0
                NMic=       0 NMicF=      0.
                    Isotopes and Nuclear Properties:
 (Nuclear quadrupole moments (NQMom) in fm**2, nuclear magnetic moments (NMagM)
  in nuclear magnetons)

  Atom         1           2           3           4           5           6           7           8           9          10
 IAtWgt=          12          12          12          12          12          12          12          12          12          12
 AtmWgt=  12.0000000  12.0000000  12.0000000  12.0000000  12.0000000  12.0000000  12.0000000  12.0000000  12.0000000  12.0000000
 NucSpn=           0           0           0           0           0           0           0           0           0           0
 AtZEff=   0.0000000   0.0000000   0.0000000   0.0000000   0.0000000   0.0000000   0.0000000   0.0000000   0.0000000   0.0000000
 NQMom=    0.0000000   0.0000000   0.0000000   0.0000000   0.0000000   0.0000000   0.0000000   0.0000000   0.0000000   0.0000000
 NMagM=    0.0000000   0.0000000   0.0000000   0.0000000   0.0000000   0.0000000   0.0000000   0.0000000   0.0000000   0.0000000
 AtZNuc=   6.0000000   6.0000000   6.0000000   6.0000000   6.0000000   6.0000000   6.0000000   6.0000000   6.0000000   6.0000000

  Atom        11          12          13          14          15          16          17          18          19          20
 IAtWgt=          12          12          16           1           1           1           1           1           1           1
 AtmWgt=  12.0000000  12.0000000  15.9949146   1.0078250   1.0078250   1.0078250   1.0078250   1.0078250   1.0078250   1.0078250
 NucSpn=           0           0           0           1           1           1           1           1           1           1
 AtZEff=   0.0000000   0.0000000   0.0000000   0.0000000   0.0000000   0.0000000   0.0000000   0.0000000   0.0000000   0.0000000
 NQMom=    0.0000000   0.0000000   0.0000000   0.0000000   0.0000000   0.0000000   0.0000000   0.0000000   0.0000000   0.0000000
 NMagM=    0.0000000   0.0000000   0.0000000   2.7928460   2.7928460   2.7928460   2.7928460   2.7928460   2.7928460   2.7928460
 AtZNuc=   6.0000000   6.0000000   8.0000000   1.0000000   1.0000000   1.0000000   1.0000000   1.0000000   1.0000000   1.0000000

  Atom        21          22          23          24          25          26          27          28          29          30
 IAtWgt=           1           1           1           1           1           1           1           1           1           1
 AtmWgt=   1.0078250   1.0078250   1.0078250   1.0078250   1.0078250   1.0078250   1.0078250   1.0078250   1.0078250   1.0078250
 NucSpn=           1           1           1           1           1           1           1           1           1           1
 AtZEff=   0.0000000   0.0000000   0.0000000   0.0000000   0.0000000   0.0000000   0.0000000   0.0000000   0.0000000   0.0000000
 NQMom=    0.0000000   0.0000000   0.0000000   0.0000000   0.0000000   0.0000000   0.0000000   0.0000000   0.0000000   0.0000000
 NMagM=    2.7928460   2.7928460   2.7928460   2.7928460   2.7928460   2.7928460   2.7928460   2.7928460   2.7928460   2.7928460
 AtZNuc=   1.0000000   1.0000000   1.0000000   1.0000000   1.0000000   1.0000000   1.0000000   1.0000000   1.0000000   1.0000000

  Atom        31
 IAtWgt=           1
 AtmWgt=   1.0078250
 NucSpn=           1
 AtZEff=   0.0000000
 NQMom=    0.0000000
 NMagM=    2.7928460
 AtZNuc=   1.0000000
 Leave Link  101 at Fri Feb 20 10:01:46 2015, MaxMem=   524288000 cpu:         2.0
 (Enter /opt/g09/l103.exe)

 GradGradGradGradGradGradGradGradGradGradGradGradGradGradGradGradGradGrad
 Berny optimization.
 Initialization pass.
                           ----------------------------
                           !    Initial Parameters    !
                           ! (Angstroms and Degrees)  !
 --------------------------                            --------------------------
 ! Name  Definition              Value          Derivative Info.                !
 --------------------------------------------------------------------------------
 ! R1    R(1,2)                  1.5518         calculate D2E/DX2 analytically  !
 ! R2    R(1,3)                  1.5457         calculate D2E/DX2 analytically  !
 ! R3    R(1,4)                  1.5561         calculate D2E/DX2 analytically  !
 ! R4    R(1,14)                 1.092          calculate D2E/DX2 analytically  !
 ! R5    R(2,5)                  1.5596         calculate D2E/DX2 analytically  !
 ! R6    R(2,6)                  1.5808         calculate D2E/DX2 analytically  !
 ! R7    R(2,15)                 1.0972         calculate D2E/DX2 analytically  !
 ! R8    R(3,9)                  1.5479         calculate D2E/DX2 analytically  !
 ! R9    R(3,16)                 1.0845         calculate D2E/DX2 analytically  !
 ! R10   R(3,17)                 1.0971         calculate D2E/DX2 analytically  !
 ! R11   R(4,10)                 1.5717         calculate D2E/DX2 analytically  !
 ! R12   R(4,18)                 1.0954         calculate D2E/DX2 analytically  !
 ! R13   R(4,19)                 1.0952         calculate D2E/DX2 analytically  !
 ! R14   R(5,7)                  1.5422         calculate D2E/DX2 analytically  !
 ! R15   R(5,8)                  1.5553         calculate D2E/DX2 analytically  !
 ! R16   R(5,20)                 1.0936         calculate D2E/DX2 analytically  !
 ! R17   R(6,9)                  1.5503         calculate D2E/DX2 analytically  !
 ! R18   R(6,11)                 1.5542         calculate D2E/DX2 analytically  !
 ! R19   R(6,21)                 1.0973         calculate D2E/DX2 analytically  !
 ! R20   R(7,12)                 1.5723         calculate D2E/DX2 analytically  !
 ! R21   R(7,13)                 1.4256         calculate D2E/DX2 analytically  !
 ! R22   R(7,22)                 1.0997         calculate D2E/DX2 analytically  !
 ! R23   R(8,11)                 1.5555         calculate D2E/DX2 analytically  !
 ! R24   R(8,23)                 1.0964         calculate D2E/DX2 analytically  !
 ! R25   R(8,24)                 1.0946         calculate D2E/DX2 analytically  !
 ! R26   R(9,10)                 1.5559         calculate D2E/DX2 analytically  !
 ! R27   R(9,25)                 1.0943         calculate D2E/DX2 analytically  !
 ! R28   R(10,26)                1.0954         calculate D2E/DX2 analytically  !
 ! R29   R(10,27)                1.0953         calculate D2E/DX2 analytically  !
 ! R30   R(11,12)                1.5496         calculate D2E/DX2 analytically  !
 ! R31   R(11,28)                1.0939         calculate D2E/DX2 analytically  !
 ! R32   R(12,29)                1.0964         calculate D2E/DX2 analytically  !
 ! R33   R(12,30)                1.0919         calculate D2E/DX2 analytically  !
 ! R34   R(13,31)                0.9606         calculate D2E/DX2 analytically  !
 ! A1    A(2,1,3)              104.308          calculate D2E/DX2 analytically  !
 ! A2    A(2,1,4)              105.8035         calculate D2E/DX2 analytically  !
 ! A3    A(2,1,14)             114.7753         calculate D2E/DX2 analytically  !
 ! A4    A(3,1,4)               99.879          calculate D2E/DX2 analytically  !
 ! A5    A(3,1,14)             116.0498         calculate D2E/DX2 analytically  !
 ! A6    A(4,1,14)             114.3596         calculate D2E/DX2 analytically  !
 ! A7    A(1,2,5)              125.2044         calculate D2E/DX2 analytically  !
 ! A8    A(1,2,6)              102.9738         calculate D2E/DX2 analytically  !
 ! A9    A(1,2,15)             108.4669         calculate D2E/DX2 analytically  !
 ! A10   A(5,2,6)              103.158          calculate D2E/DX2 analytically  !
 ! A11   A(5,2,15)             105.5153         calculate D2E/DX2 analytically  !
 ! A12   A(6,2,15)             111.1442         calculate D2E/DX2 analytically  !
 ! A13   A(1,3,9)               95.0038         calculate D2E/DX2 analytically  !
 ! A14   A(1,3,16)             113.463          calculate D2E/DX2 analytically  !
 ! A15   A(1,3,17)             111.723          calculate D2E/DX2 analytically  !
 ! A16   A(9,3,16)             116.3175         calculate D2E/DX2 analytically  !
 ! A17   A(9,3,17)             111.6202         calculate D2E/DX2 analytically  !
 ! A18   A(16,3,17)            108.3136         calculate D2E/DX2 analytically  !
 ! A19   A(1,4,10)             103.2706         calculate D2E/DX2 analytically  !
 ! A20   A(1,4,18)             112.3753         calculate D2E/DX2 analytically  !
 ! A21   A(1,4,19)             110.4355         calculate D2E/DX2 analytically  !
 ! A22   A(10,4,18)            112.5156         calculate D2E/DX2 analytically  !
 ! A23   A(10,4,19)            110.893          calculate D2E/DX2 analytically  !
 ! A24   A(18,4,19)            107.3858         calculate D2E/DX2 analytically  !
 ! A25   A(2,5,7)              116.229          calculate D2E/DX2 analytically  !
 ! A26   A(2,5,8)               99.4125         calculate D2E/DX2 analytically  !
 ! A27   A(2,5,20)             113.0341         calculate D2E/DX2 analytically  !
 ! A28   A(7,5,8)               98.6018         calculate D2E/DX2 analytically  !
 ! A29   A(7,5,20)             112.0955         calculate D2E/DX2 analytically  !
 ! A30   A(8,5,20)             116.1625         calculate D2E/DX2 analytically  !
 ! A31   A(2,6,9)              103.113          calculate D2E/DX2 analytically  !
 ! A32   A(2,6,11)             102.8268         calculate D2E/DX2 analytically  !
 ! A33   A(2,6,21)             111.299          calculate D2E/DX2 analytically  !
 ! A34   A(9,6,11)             123.8128         calculate D2E/DX2 analytically  !
 ! A35   A(9,6,21)             108.8515         calculate D2E/DX2 analytically  !
 ! A36   A(11,6,21)            106.5592         calculate D2E/DX2 analytically  !
 ! A37   A(5,7,12)             103.1937         calculate D2E/DX2 analytically  !
 ! A38   A(5,7,13)             112.8688         calculate D2E/DX2 analytically  !
 ! A39   A(5,7,22)             106.7346         calculate D2E/DX2 analytically  !
 ! A40   A(12,7,13)            116.5778         calculate D2E/DX2 analytically  !
 ! A41   A(12,7,22)            108.8569         calculate D2E/DX2 analytically  !
 ! A42   A(13,7,22)            108.1262         calculate D2E/DX2 analytically  !
 ! A43   A(5,8,11)              94.3215         calculate D2E/DX2 analytically  !
 ! A44   A(5,8,23)             113.4339         calculate D2E/DX2 analytically  !
 ! A45   A(5,8,24)             113.0329         calculate D2E/DX2 analytically  !
 ! A46   A(11,8,23)            113.457          calculate D2E/DX2 analytically  !
 ! A47   A(11,8,24)            113.3136         calculate D2E/DX2 analytically  !
 ! A48   A(23,8,24)            108.8232         calculate D2E/DX2 analytically  !
 ! A49   A(3,9,6)              104.4414         calculate D2E/DX2 analytically  !
 ! A50   A(3,9,10)              99.7205         calculate D2E/DX2 analytically  !
 ! A51   A(3,9,25)             116.6131         calculate D2E/DX2 analytically  !
 ! A52   A(6,9,10)             105.8737         calculate D2E/DX2 analytically  !
 ! A53   A(6,9,25)             114.7639         calculate D2E/DX2 analytically  !
 ! A54   A(10,9,25)            113.7634         calculate D2E/DX2 analytically  !
 ! A55   A(4,10,9)             103.0756         calculate D2E/DX2 analytically  !
 ! A56   A(4,10,26)            110.9318         calculate D2E/DX2 analytically  !
 ! A57   A(4,10,27)            112.6458         calculate D2E/DX2 analytically  !
 ! A58   A(9,10,26)            110.4733         calculate D2E/DX2 analytically  !
 ! A59   A(9,10,27)            112.314          calculate D2E/DX2 analytically  !
 ! A60   A(26,10,27)           107.4307         calculate D2E/DX2 analytically  !
 ! A61   A(6,11,8)              99.3431         calculate D2E/DX2 analytically  !
 ! A62   A(6,11,12)            113.7366         calculate D2E/DX2 analytically  !
 ! A63   A(6,11,28)            112.9539         calculate D2E/DX2 analytically  !
 ! A64   A(8,11,12)            100.4183         calculate D2E/DX2 analytically  !
 ! A65   A(8,11,28)            115.8219         calculate D2E/DX2 analytically  !
 ! A66   A(12,11,28)           113.2471         calculate D2E/DX2 analytically  !
 ! A67   A(7,12,11)            103.1542         calculate D2E/DX2 analytically  !
 ! A68   A(7,12,29)            110.4793         calculate D2E/DX2 analytically  !
 ! A69   A(7,12,30)            112.3592         calculate D2E/DX2 analytically  !
 ! A70   A(11,12,29)           109.9117         calculate D2E/DX2 analytically  !
 ! A71   A(11,12,30)           113.7354         calculate D2E/DX2 analytically  !
 ! A72   A(29,12,30)           107.2093         calculate D2E/DX2 analytically  !
 ! A73   A(7,13,31)            108.2251         calculate D2E/DX2 analytically  !
 ! D1    D(3,1,2,5)            -83.3726         calculate D2E/DX2 analytically  !
 ! D2    D(3,1,2,6)             33.2708         calculate D2E/DX2 analytically  !
 ! D3    D(3,1,2,15)           151.1234         calculate D2E/DX2 analytically  !
 ! D4    D(4,1,2,5)            171.7824         calculate D2E/DX2 analytically  !
 ! D5    D(4,1,2,6)            -71.5742         calculate D2E/DX2 analytically  !
 ! D6    D(4,1,2,15)            46.2785         calculate D2E/DX2 analytically  !
 ! D7    D(14,1,2,5)            44.7151         calculate D2E/DX2 analytically  !
 ! D8    D(14,1,2,6)           161.3585         calculate D2E/DX2 analytically  !
 ! D9    D(14,1,2,15)          -80.7889         calculate D2E/DX2 analytically  !
 ! D10   D(2,1,3,9)            -51.5187         calculate D2E/DX2 analytically  !
 ! D11   D(2,1,3,16)            70.0257         calculate D2E/DX2 analytically  !
 ! D12   D(2,1,3,17)          -167.178          calculate D2E/DX2 analytically  !
 ! D13   D(4,1,3,9)             57.7322         calculate D2E/DX2 analytically  !
 ! D14   D(4,1,3,16)           179.2765         calculate D2E/DX2 analytically  !
 ! D15   D(4,1,3,17)           -57.9272         calculate D2E/DX2 analytically  !
 ! D16   D(14,1,3,9)          -178.8228         calculate D2E/DX2 analytically  !
 ! D17   D(14,1,3,16)          -57.2784         calculate D2E/DX2 analytically  !
 ! D18   D(14,1,3,17)           65.5179         calculate D2E/DX2 analytically  !
 ! D19   D(2,1,4,10)            72.5054         calculate D2E/DX2 analytically  !
 ! D20   D(2,1,4,18)           -48.999          calculate D2E/DX2 analytically  !
 ! D21   D(2,1,4,19)          -168.8815         calculate D2E/DX2 analytically  !
 ! D22   D(3,1,4,10)           -35.5539         calculate D2E/DX2 analytically  !
 ! D23   D(3,1,4,18)          -157.0583         calculate D2E/DX2 analytically  !
 ! D24   D(3,1,4,19)            83.0593         calculate D2E/DX2 analytically  !
 ! D25   D(14,1,4,10)         -160.1769         calculate D2E/DX2 analytically  !
 ! D26   D(14,1,4,18)           78.3187         calculate D2E/DX2 analytically  !
 ! D27   D(14,1,4,19)          -41.5637         calculate D2E/DX2 analytically  !
 ! D28   D(1,2,5,7)             47.8832         calculate D2E/DX2 analytically  !
 ! D29   D(1,2,5,8)            152.4013         calculate D2E/DX2 analytically  !
 ! D30   D(1,2,5,20)           -83.8095         calculate D2E/DX2 analytically  !
 ! D31   D(6,2,5,7)            -68.6748         calculate D2E/DX2 analytically  !
 ! D32   D(6,2,5,8)             35.8432         calculate D2E/DX2 analytically  !
 ! D33   D(6,2,5,20)           159.6325         calculate D2E/DX2 analytically  !
 ! D34   D(15,2,5,7)           174.6232         calculate D2E/DX2 analytically  !
 ! D35   D(15,2,5,8)           -80.8587         calculate D2E/DX2 analytically  !
 ! D36   D(15,2,5,20)           42.9305         calculate D2E/DX2 analytically  !
 ! D37   D(1,2,6,9)             -0.5432         calculate D2E/DX2 analytically  !
 ! D38   D(1,2,6,11)          -130.2637         calculate D2E/DX2 analytically  !
 ! D39   D(1,2,6,21)           116.0021         calculate D2E/DX2 analytically  !
 ! D40   D(5,2,6,9)            130.864          calculate D2E/DX2 analytically  !
 ! D41   D(5,2,6,11)             1.1435         calculate D2E/DX2 analytically  !
 ! D42   D(5,2,6,21)          -112.5907         calculate D2E/DX2 analytically  !
 ! D43   D(15,2,6,9)          -116.4954         calculate D2E/DX2 analytically  !
 ! D44   D(15,2,6,11)          113.7841         calculate D2E/DX2 analytically  !
 ! D45   D(15,2,6,21)            0.05           calculate D2E/DX2 analytically  !
 ! D46   D(1,3,9,6)             51.1727         calculate D2E/DX2 analytically  !
 ! D47   D(1,3,9,10)           -58.1368         calculate D2E/DX2 analytically  !
 ! D48   D(1,3,9,25)           178.9677         calculate D2E/DX2 analytically  !
 ! D49   D(16,3,9,6)           -68.1155         calculate D2E/DX2 analytically  !
 ! D50   D(16,3,9,10)         -177.425          calculate D2E/DX2 analytically  !
 ! D51   D(16,3,9,25)           59.6795         calculate D2E/DX2 analytically  !
 ! D52   D(17,3,9,6)           166.9169         calculate D2E/DX2 analytically  !
 ! D53   D(17,3,9,10)           57.6074         calculate D2E/DX2 analytically  !
 ! D54   D(17,3,9,25)          -65.2881         calculate D2E/DX2 analytically  !
 ! D55   D(1,4,10,9)            -0.5984         calculate D2E/DX2 analytically  !
 ! D56   D(1,4,10,26)          117.6497         calculate D2E/DX2 analytically  !
 ! D57   D(1,4,10,27)         -121.8802         calculate D2E/DX2 analytically  !
 ! D58   D(18,4,10,9)          120.8113         calculate D2E/DX2 analytically  !
 ! D59   D(18,4,10,26)        -120.9406         calculate D2E/DX2 analytically  !
 ! D60   D(18,4,10,27)          -0.4705         calculate D2E/DX2 analytically  !
 ! D61   D(19,4,10,9)         -118.8931         calculate D2E/DX2 analytically  !
 ! D62   D(19,4,10,26)          -0.645          calculate D2E/DX2 analytically  !
 ! D63   D(19,4,10,27)         119.825          calculate D2E/DX2 analytically  !
 ! D64   D(2,5,7,12)            64.2795         calculate D2E/DX2 analytically  !
 ! D65   D(2,5,7,13)           -62.4203         calculate D2E/DX2 analytically  !
 ! D66   D(2,5,7,22)           178.9335         calculate D2E/DX2 analytically  !
 ! D67   D(8,5,7,12)           -40.7262         calculate D2E/DX2 analytically  !
 ! D68   D(8,5,7,13)          -167.426          calculate D2E/DX2 analytically  !
 ! D69   D(8,5,7,22)            73.9278         calculate D2E/DX2 analytically  !
 ! D70   D(20,5,7,12)         -163.5932         calculate D2E/DX2 analytically  !
 ! D71   D(20,5,7,13)           69.707          calculate D2E/DX2 analytically  !
 ! D72   D(20,5,7,22)          -48.9392         calculate D2E/DX2 analytically  !
 ! D73   D(2,5,8,11)           -58.646          calculate D2E/DX2 analytically  !
 ! D74   D(2,5,8,23)          -176.5399         calculate D2E/DX2 analytically  !
 ! D75   D(2,5,8,24)            58.9608         calculate D2E/DX2 analytically  !
 ! D76   D(7,5,8,11)            59.9196         calculate D2E/DX2 analytically  !
 ! D77   D(7,5,8,23)           -57.9743         calculate D2E/DX2 analytically  !
 ! D78   D(7,5,8,24)           177.5264         calculate D2E/DX2 analytically  !
 ! D79   D(20,5,8,11)          179.7983         calculate D2E/DX2 analytically  !
 ! D80   D(20,5,8,23)           61.9044         calculate D2E/DX2 analytically  !
 ! D81   D(20,5,8,24)          -62.5949         calculate D2E/DX2 analytically  !
 ! D82   D(2,6,9,3)            -32.3061         calculate D2E/DX2 analytically  !
 ! D83   D(2,6,9,10)            72.4375         calculate D2E/DX2 analytically  !
 ! D84   D(2,6,9,25)          -161.2252         calculate D2E/DX2 analytically  !
 ! D85   D(11,6,9,3)            83.1851         calculate D2E/DX2 analytically  !
 ! D86   D(11,6,9,10)         -172.0713         calculate D2E/DX2 analytically  !
 ! D87   D(11,6,9,25)          -45.7341         calculate D2E/DX2 analytically  !
 ! D88   D(21,6,9,3)          -150.5765         calculate D2E/DX2 analytically  !
 ! D89   D(21,6,9,10)          -45.8329         calculate D2E/DX2 analytically  !
 ! D90   D(21,6,9,25)           80.5044         calculate D2E/DX2 analytically  !
 ! D91   D(2,6,11,8)           -37.7281         calculate D2E/DX2 analytically  !
 ! D92   D(2,6,11,12)           68.0879         calculate D2E/DX2 analytically  !
 ! D93   D(2,6,11,28)         -161.0315         calculate D2E/DX2 analytically  !
 ! D94   D(9,6,11,8)          -153.3571         calculate D2E/DX2 analytically  !
 ! D95   D(9,6,11,12)          -47.5411         calculate D2E/DX2 analytically  !
 ! D96   D(9,6,11,28)           83.3395         calculate D2E/DX2 analytically  !
 ! D97   D(21,6,11,8)           79.4236         calculate D2E/DX2 analytically  !
 ! D98   D(21,6,11,12)        -174.7604         calculate D2E/DX2 analytically  !
 ! D99   D(21,6,11,28)         -43.8798         calculate D2E/DX2 analytically  !
 ! D100  D(5,7,12,11)            5.2347         calculate D2E/DX2 analytically  !
 ! D101  D(5,7,12,29)          122.6622         calculate D2E/DX2 analytically  !
 ! D102  D(5,7,12,30)         -117.66           calculate D2E/DX2 analytically  !
 ! D103  D(13,7,12,11)         129.54           calculate D2E/DX2 analytically  !
 ! D104  D(13,7,12,29)        -113.0324         calculate D2E/DX2 analytically  !
 ! D105  D(13,7,12,30)           6.6454         calculate D2E/DX2 analytically  !
 ! D106  D(22,7,12,11)        -107.8808         calculate D2E/DX2 analytically  !
 ! D107  D(22,7,12,29)           9.5467         calculate D2E/DX2 analytically  !
 ! D108  D(22,7,12,30)         129.2246         calculate D2E/DX2 analytically  !
 ! D109  D(5,7,13,31)         -162.1215         calculate D2E/DX2 analytically  !
 ! D110  D(12,7,13,31)          78.67           calculate D2E/DX2 analytically  !
 ! D111  D(22,7,13,31)         -44.2888         calculate D2E/DX2 analytically  !
 ! D112  D(5,8,11,6)            59.5722         calculate D2E/DX2 analytically  !
 ! D113  D(5,8,11,12)          -56.8533         calculate D2E/DX2 analytically  !
 ! D114  D(5,8,11,28)         -179.1835         calculate D2E/DX2 analytically  !
 ! D115  D(23,8,11,6)          177.4472         calculate D2E/DX2 analytically  !
 ! D116  D(23,8,11,12)          61.0217         calculate D2E/DX2 analytically  !
 ! D117  D(23,8,11,28)         -61.3085         calculate D2E/DX2 analytically  !
 ! D118  D(24,8,11,6)          -57.8037         calculate D2E/DX2 analytically  !
 ! D119  D(24,8,11,12)        -174.2292         calculate D2E/DX2 analytically  !
 ! D120  D(24,8,11,28)          63.4406         calculate D2E/DX2 analytically  !
 ! D121  D(3,9,10,4)            36.4724         calculate D2E/DX2 analytically  !
 ! D122  D(3,9,10,26)          -82.0962         calculate D2E/DX2 analytically  !
 ! D123  D(3,9,10,27)          157.9792         calculate D2E/DX2 analytically  !
 ! D124  D(6,9,10,4)           -71.6933         calculate D2E/DX2 analytically  !
 ! D125  D(6,9,10,26)          169.7382         calculate D2E/DX2 analytically  !
 ! D126  D(6,9,10,27)           49.8136         calculate D2E/DX2 analytically  !
 ! D127  D(25,9,10,4)          161.3631         calculate D2E/DX2 analytically  !
 ! D128  D(25,9,10,26)          42.7946         calculate D2E/DX2 analytically  !
 ! D129  D(25,9,10,27)         -77.1301         calculate D2E/DX2 analytically  !
 ! D130  D(6,11,12,7)          -72.8502         calculate D2E/DX2 analytically  !
 ! D131  D(6,11,12,29)         169.3233         calculate D2E/DX2 analytically  !
 ! D132  D(6,11,12,30)          49.123          calculate D2E/DX2 analytically  !
 ! D133  D(8,11,12,7)           32.2895         calculate D2E/DX2 analytically  !
 ! D134  D(8,11,12,29)         -85.537          calculate D2E/DX2 analytically  !
 ! D135  D(8,11,12,30)         154.2626         calculate D2E/DX2 analytically  !
 ! D136  D(28,11,12,7)         156.414          calculate D2E/DX2 analytically  !
 ! D137  D(28,11,12,29)         38.5875         calculate D2E/DX2 analytically  !
 ! D138  D(28,11,12,30)        -81.6128         calculate D2E/DX2 analytically  !
 --------------------------------------------------------------------------------
 Trust Radius=3.00D-01 FncErr=1.00D-07 GrdErr=1.00D-06
 Number of steps in this run=    186 maximum allowed number of steps=    186.
 GradGradGradGradGradGradGradGradGradGradGradGradGradGradGradGradGradGrad

 Leave Link  103 at Fri Feb 20 10:01:46 2015, MaxMem=   524288000 cpu:         0.1
 (Enter /opt/g09/l202.exe)
                          Input orientation:                          
 ---------------------------------------------------------------------
 Center     Atomic      Atomic             Coordinates (Angstroms)
 Number     Number       Type             X           Y           Z
 ---------------------------------------------------------------------
      1          6           0        1.290350    3.058850    2.765260
      2          6           0        2.810760    3.162240    3.057840
      3          6           0        0.974660    1.552810    2.911910
      4          6           0        1.143940    3.213460    1.223760
      5          6           0        3.449220    3.248500    4.478170
      6          6           0        3.374610    1.798080    2.492090
      7          6           0        2.946810    2.223080    5.514710
      8          6           0        4.834880    2.611270    4.173300
      9          6           0        2.104060    1.085040    1.962380
     10          6           0        1.694490    1.849330    0.670450
     11          6           0        4.237190    1.266090    3.670430
     12          6           0        3.408200    0.846740    4.910690
     13          8           0        1.557030    2.360170    5.800960
     14          1           0        0.664990    3.738850    3.347560
     15          1           0        3.214190    4.018040    2.502240
     16          1           0        1.029040    1.197870    3.935250
     17          1           0       -0.017020    1.305110    2.513360
     18          1           0        1.696420    4.076650    0.836900
     19          1           0        0.091880    3.349390    0.951280
     20          1           0        3.464070    4.265640    4.879580
     21          1           0        4.061560    1.967950    1.653410
     22          1           0        3.507240    2.409910    6.442300
     23          1           0        5.469420    2.502250    5.060750
     24          1           0        5.394560    3.151440    3.403150
     25          1           0        2.209780    0.005070    1.821040
     26          1           0        0.913310    1.301380    0.132510
     27          1           0        2.535630    1.982320   -0.018390
     28          1           0        4.962910    0.508710    3.359950
     29          1           0        4.046550    0.310170    5.622470
     30          1           0        2.565850    0.192990    4.675730
     31          1           0        1.374410    1.906510    6.627780
 ---------------------------------------------------------------------
                    Distance matrix (angstroms):
                    1          2          3          4          5
     1  C    0.000000
     2  C    1.551754   0.000000
     3  C    1.545743   2.445981   0.000000
     4  C    1.556137   2.478863   2.374082   0.000000
     5  C    2.762381   1.559618   3.384078   3.988324   0.000000
     6  C    2.451184   1.580801   2.448707   2.930503   2.460447
     7  C    3.316903   2.633769   3.333647   4.758513   1.542179
     8  C    3.840130   2.375896   4.196754   4.762925   1.555333
     9  C    2.280935   2.452390   1.547889   2.448992   3.580393
    10  C    2.452447   2.944388   2.372809   1.571658   4.419897
    11  C    3.566117   2.450582   3.361795   4.398482   2.281072
    12  C    3.739196   3.025149   3.227348   4.931703   2.440739
    13  O    3.126459   3.120875   3.055748   4.674346   2.473719
    14  H    1.092039   2.240702   2.250435   2.239633   3.044776
    15  H    2.165730   1.097197   3.355694   2.562771   2.133478
    16  H    2.213686   2.793407   1.084511   3.380530   3.218247
    17  H    2.201880   3.426621   1.097099   2.579282   4.433065
    18  H    2.217968   2.647730   3.346098   1.095441   4.125165
    19  H    2.193460   3.444551   2.801976   1.095241   4.870407
    20  H    3.263702   2.227789   4.174726   4.455907   1.093583
    21  H    3.178974   2.227836   3.359333   3.201312   3.161335
    22  H    4.342390   3.536333   4.428570   5.784811   2.136447
    23  H    4.800386   3.393480   5.071668   5.825641   2.231030
    24  H    4.154518   2.606795   4.725722   4.777170   2.224733
    25  H    3.326030   3.443628   2.260756   3.433151   4.372229
    26  H    3.187826   3.952300   2.791424   2.213609   5.395079
    27  H    3.233937   3.306221   3.347800   2.235049   4.759928
    28  H    4.510495   3.429904   4.146929   5.144270   3.323872
    29  H    4.828616   4.029740   4.281098   6.016884   3.209363
    30  H    3.672867   3.390279   2.737162   4.802204   3.186772
    31  H    4.031627   4.047769   3.754010   5.564590   3.275148
                    6          7          8          9         10
     6  C    0.000000
     7  C    3.082186   0.000000
     8  C    2.370682   2.348378   0.000000
     9  C    1.550263   3.824188   3.830786   0.000000
    10  C    2.478669   5.017454   4.765770   1.555947   0.000000
    11  C    1.554202   2.445870   1.555513   2.738696   3.975597
    12  C    2.599193   1.572270   2.385943   3.232661   4.682053
    13  O    3.816826   1.425560   3.668328   4.081653   5.157711
    14  H    3.440997   3.492964   4.397871   3.321499   3.434687
    15  H    2.225772   3.516866   2.719941   3.182189   3.219976
    16  H    2.818628   2.687674   4.066791   2.249581   3.395017
    17  H    3.427335   4.316834   5.291728   2.202496   2.573278
    18  H    3.278392   5.184699   4.809245   3.222205   2.233532
    19  H    3.944233   5.499463   5.781201   3.193505   2.213008
    20  H    3.434671   2.200682   2.261613   4.525030   5.165921
    21  H    1.097333   4.027083   2.713251   2.169516   2.565795
    22  H    3.999511   1.099732   2.636576   4.877897   6.075736
    23  H    3.388525   2.578290   1.096400   4.788949   5.826760
    24  H    2.596500   3.363334   1.094603   4.144058   4.780550
    25  H    2.240987   4.371039   4.383669   1.094298   2.233982
    26  H    3.445624   5.826897   5.781220   2.193881   1.095386
    27  H    2.653364   5.553578   4.822074   2.216938   1.095310
    28  H    2.222241   3.412728   2.258028   3.233942   4.439960
    29  H    3.530532   2.209132   2.831363   4.215442   5.694181
    30  H    2.828196   2.229413   3.353955   2.893315   4.420973
    31  H    4.595268   1.952328   4.300699   4.793032   5.966197
                   11         12         13         14         15
    11  C    0.000000
    12  C    1.549621   0.000000
    13  O    3.594360   2.551447   0.000000
    14  H    4.356535   4.281691   2.952231   0.000000
    15  H    3.159814   3.986905   4.046760   2.700173   0.000000
    16  H    3.219784   2.595222   2.260661   2.633342   3.844705
    17  H    4.408927   4.205880   3.794614   2.661601   4.219103
    18  H    4.731136   5.473415   5.254296   2.735209   2.253978
    19  H    5.377500   5.739178   5.161842   2.494452   3.549844
    20  H    3.325216   3.419498   2.848957   3.234106   2.403225
    21  H    2.142854   3.506261   4.860934   4.188427   2.375167
    22  H    3.086165   2.190694   2.053560   4.407026   4.265681
    23  H    2.231473   2.647992   3.984331   5.248500   3.732245
    24  H    2.228338   3.395577   4.593717   4.766233   2.513294
    25  H    3.020067   3.419146   4.670368   4.319462   4.192470
    26  H    4.854514   5.409453   5.802304   4.042211   4.276671
    27  H    4.125007   5.132909   5.913143   4.232530   3.310313
    28  H    1.093934   2.221752   4.581097   5.376437   4.013612
    29  H    2.181877   1.096371   3.229871   5.325975   4.917007
    30  H    2.226106   1.091856   2.642069   4.236794   4.446955
    31  H    4.165521   2.864928   0.960619   3.823688   4.986324
                   16         17         18         19         20
    16  H    0.000000
    17  H    1.768478   0.000000
    18  H    4.281652   3.664400   0.000000
    19  H    3.796233   2.575079   1.765372   0.000000
    20  H    4.028938   5.146040   4.416284   5.257634   0.000000
    21  H    3.872466   4.220626   3.272185   4.261423   4.005564
    22  H    3.727709   5.392361   6.121895   6.534417   2.426457
    23  H    4.762891   6.166309   5.878365   6.820801   2.676527
    24  H    4.812206   5.786697   4.595421   5.845448   2.673589
    25  H    2.699408   2.669841   4.220170   4.052957   5.392622
    26  H    3.805908   2.556164   2.968426   2.353609   6.150438
    27  H    4.303074   3.658469   2.412885   2.963284   5.483216
    28  H    4.035002   5.113773   5.455817   6.131728   4.320917
    29  H    3.569326   5.212396   6.527723   6.833468   4.066560
    30  H    1.979869   3.547375   5.529497   5.473108   4.175504
    31  H    2.805560   4.384770   6.192535   5.995785   3.603939
                   21         22         23         24         25
    21  H    0.000000
    22  H    4.841081   0.000000
    23  H    3.725253   2.401532   0.000000
    24  H    2.497825   3.653529   1.781766   0.000000
    25  H    2.703717   5.368678   5.230381   4.748214   0.000000
    26  H    3.559344   6.911640   6.818195   5.848197   2.492466
    27  H    2.263534   6.547318   5.888558   4.609475   2.720147
    28  H    2.419523   3.903129   2.668984   2.678098   3.193998
    29  H    4.301383   2.317733   2.673070   3.849068   4.232928
    30  H    3.810781   2.986925   3.729831   4.286431   2.882942
    31  H    5.654105   2.199268   4.424884   5.301858   5.236226
                   26         27         28         29         30
    26  H    0.000000
    27  H    1.765891   0.000000
    28  H    5.238698   4.413207   0.000000
    29  H    6.398387   6.074394   2.449108   0.000000
    30  H    4.959865   5.023682   2.752608   1.761397   0.000000
    31  H    6.539673   6.747278   5.050732   3.270976   2.857653
                   31
    31  H    0.000000
 Symmetry turned off by external request.
 Stoichiometry    C12H18O
 Framework group  C1[X(C12H18O)]
 Deg. of freedom    87
 Full point group                 C1      NOp   1
 Rotational constants (GHZ):      1.4476712      0.7660123      0.6806483
 Leave Link  202 at Fri Feb 20 10:01:46 2015, MaxMem=   524288000 cpu:         0.0
 (Enter /opt/g09/l301.exe)
 Standard basis: 6-311+G(d,p) (5D, 7F)
 Ernie: Thresh=  0.10000D-02 Tol=  0.10000D-05 Strict=F.
 AO basis set in the form of general basis input (Overlap normalization):
      1 0
 S   6 1.00       0.000000000000
      0.4563240000D+04  0.1966650249D-02
      0.6820240000D+03  0.1523060193D-01
      0.1549730000D+03  0.7612690966D-01
      0.4445530000D+02  0.2608010331D+00
      0.1302900000D+02  0.6164620782D+00
      0.1827730000D+01  0.2210060280D+00
 SP   3 1.00       0.000000000000
      0.2096420000D+02  0.1146600807D+00  0.4024869267D-01
      0.4803310000D+01  0.9199996477D+00  0.2375939567D+00
      0.1459330000D+01 -0.3030682134D-02  0.8158538515D+00
 SP   1 1.00       0.000000000000
      0.4834560000D+00  0.1000000000D+01  0.1000000000D+01
 SP   1 1.00       0.000000000000
      0.1455850000D+00  0.1000000000D+01  0.1000000000D+01
 SP   1 1.00       0.000000000000
      0.4380000000D-01  0.1000000000D+01  0.1000000000D+01
 D   1 1.00       0.000000000000
      0.6260000000D+00  0.1000000000D+01
 ****
      2 0
 S   6 1.00       0.000000000000
      0.4563240000D+04  0.1966650249D-02
      0.6820240000D+03  0.1523060193D-01
      0.1549730000D+03  0.7612690966D-01
      0.4445530000D+02  0.2608010331D+00
      0.1302900000D+02  0.6164620782D+00
      0.1827730000D+01  0.2210060280D+00
 SP   3 1.00       0.000000000000
      0.2096420000D+02  0.1146600807D+00  0.4024869267D-01
      0.4803310000D+01  0.9199996477D+00  0.2375939567D+00
      0.1459330000D+01 -0.3030682134D-02  0.8158538515D+00
 SP   1 1.00       0.000000000000
      0.4834560000D+00  0.1000000000D+01  0.1000000000D+01
 SP   1 1.00       0.000000000000
      0.1455850000D+00  0.1000000000D+01  0.1000000000D+01
 SP   1 1.00       0.000000000000
      0.4380000000D-01  0.1000000000D+01  0.1000000000D+01
 D   1 1.00       0.000000000000
      0.6260000000D+00  0.1000000000D+01
 ****
      3 0
 S   6 1.00       0.000000000000
      0.4563240000D+04  0.1966650249D-02
      0.6820240000D+03  0.1523060193D-01
      0.1549730000D+03  0.7612690966D-01
      0.4445530000D+02  0.2608010331D+00
      0.1302900000D+02  0.6164620782D+00
      0.1827730000D+01  0.2210060280D+00
 SP   3 1.00       0.000000000000
      0.2096420000D+02  0.1146600807D+00  0.4024869267D-01
      0.4803310000D+01  0.9199996477D+00  0.2375939567D+00
      0.1459330000D+01 -0.3030682134D-02  0.8158538515D+00
 SP   1 1.00       0.000000000000
      0.4834560000D+00  0.1000000000D+01  0.1000000000D+01
 SP   1 1.00       0.000000000000
      0.1455850000D+00  0.1000000000D+01  0.1000000000D+01
 SP   1 1.00       0.000000000000
      0.4380000000D-01  0.1000000000D+01  0.1000000000D+01
 D   1 1.00       0.000000000000
      0.6260000000D+00  0.1000000000D+01
 ****
      4 0
 S   6 1.00       0.000000000000
      0.4563240000D+04  0.1966650249D-02
      0.6820240000D+03  0.1523060193D-01
      0.1549730000D+03  0.7612690966D-01
      0.4445530000D+02  0.2608010331D+00
      0.1302900000D+02  0.6164620782D+00
      0.1827730000D+01  0.2210060280D+00
 SP   3 1.00       0.000000000000
      0.2096420000D+02  0.1146600807D+00  0.4024869267D-01
      0.4803310000D+01  0.9199996477D+00  0.2375939567D+00
      0.1459330000D+01 -0.3030682134D-02  0.8158538515D+00
 SP   1 1.00       0.000000000000
      0.4834560000D+00  0.1000000000D+01  0.1000000000D+01
 SP   1 1.00       0.000000000000
      0.1455850000D+00  0.1000000000D+01  0.1000000000D+01
 SP   1 1.00       0.000000000000
      0.4380000000D-01  0.1000000000D+01  0.1000000000D+01
 D   1 1.00       0.000000000000
      0.6260000000D+00  0.1000000000D+01
 ****
      5 0
 S   6 1.00       0.000000000000
      0.4563240000D+04  0.1966650249D-02
      0.6820240000D+03  0.1523060193D-01
      0.1549730000D+03  0.7612690966D-01
      0.4445530000D+02  0.2608010331D+00
      0.1302900000D+02  0.6164620782D+00
      0.1827730000D+01  0.2210060280D+00
 SP   3 1.00       0.000000000000
      0.2096420000D+02  0.1146600807D+00  0.4024869267D-01
      0.4803310000D+01  0.9199996477D+00  0.2375939567D+00
      0.1459330000D+01 -0.3030682134D-02  0.8158538515D+00
 SP   1 1.00       0.000000000000
      0.4834560000D+00  0.1000000000D+01  0.1000000000D+01
 SP   1 1.00       0.000000000000
      0.1455850000D+00  0.1000000000D+01  0.1000000000D+01
 SP   1 1.00       0.000000000000
      0.4380000000D-01  0.1000000000D+01  0.1000000000D+01
 D   1 1.00       0.000000000000
      0.6260000000D+00  0.1000000000D+01
 ****
      6 0
 S   6 1.00       0.000000000000
      0.4563240000D+04  0.1966650249D-02
      0.6820240000D+03  0.1523060193D-01
      0.1549730000D+03  0.7612690966D-01
      0.4445530000D+02  0.2608010331D+00
      0.1302900000D+02  0.6164620782D+00
      0.1827730000D+01  0.2210060280D+00
 SP   3 1.00       0.000000000000
      0.2096420000D+02  0.1146600807D+00  0.4024869267D-01
      0.4803310000D+01  0.9199996477D+00  0.2375939567D+00
      0.1459330000D+01 -0.3030682134D-02  0.8158538515D+00
 SP   1 1.00       0.000000000000
      0.4834560000D+00  0.1000000000D+01  0.1000000000D+01
 SP   1 1.00       0.000000000000
      0.1455850000D+00  0.1000000000D+01  0.1000000000D+01
 SP   1 1.00       0.000000000000
      0.4380000000D-01  0.1000000000D+01  0.1000000000D+01
 D   1 1.00       0.000000000000
      0.6260000000D+00  0.1000000000D+01
 ****
      7 0
 S   6 1.00       0.000000000000
      0.4563240000D+04  0.1966650249D-02
      0.6820240000D+03  0.1523060193D-01
      0.1549730000D+03  0.7612690966D-01
      0.4445530000D+02  0.2608010331D+00
      0.1302900000D+02  0.6164620782D+00
      0.1827730000D+01  0.2210060280D+00
 SP   3 1.00       0.000000000000
      0.2096420000D+02  0.1146600807D+00  0.4024869267D-01
      0.4803310000D+01  0.9199996477D+00  0.2375939567D+00
      0.1459330000D+01 -0.3030682134D-02  0.8158538515D+00
 SP   1 1.00       0.000000000000
      0.4834560000D+00  0.1000000000D+01  0.1000000000D+01
 SP   1 1.00       0.000000000000
      0.1455850000D+00  0.1000000000D+01  0.1000000000D+01
 SP   1 1.00       0.000000000000
      0.4380000000D-01  0.1000000000D+01  0.1000000000D+01
 D   1 1.00       0.000000000000
      0.6260000000D+00  0.1000000000D+01
 ****
      8 0
 S   6 1.00       0.000000000000
      0.4563240000D+04  0.1966650249D-02
      0.6820240000D+03  0.1523060193D-01
      0.1549730000D+03  0.7612690966D-01
      0.4445530000D+02  0.2608010331D+00
      0.1302900000D+02  0.6164620782D+00
      0.1827730000D+01  0.2210060280D+00
 SP   3 1.00       0.000000000000
      0.2096420000D+02  0.1146600807D+00  0.4024869267D-01
      0.4803310000D+01  0.9199996477D+00  0.2375939567D+00
      0.1459330000D+01 -0.3030682134D-02  0.8158538515D+00
 SP   1 1.00       0.000000000000
      0.4834560000D+00  0.1000000000D+01  0.1000000000D+01
 SP   1 1.00       0.000000000000
      0.1455850000D+00  0.1000000000D+01  0.1000000000D+01
 SP   1 1.00       0.000000000000
      0.4380000000D-01  0.1000000000D+01  0.1000000000D+01
 D   1 1.00       0.000000000000
      0.6260000000D+00  0.1000000000D+01
 ****
      9 0
 S   6 1.00       0.000000000000
      0.4563240000D+04  0.1966650249D-02
      0.6820240000D+03  0.1523060193D-01
      0.1549730000D+03  0.7612690966D-01
      0.4445530000D+02  0.2608010331D+00
      0.1302900000D+02  0.6164620782D+00
      0.1827730000D+01  0.2210060280D+00
 SP   3 1.00       0.000000000000
      0.2096420000D+02  0.1146600807D+00  0.4024869267D-01
      0.4803310000D+01  0.9199996477D+00  0.2375939567D+00
      0.1459330000D+01 -0.3030682134D-02  0.8158538515D+00
 SP   1 1.00       0.000000000000
      0.4834560000D+00  0.1000000000D+01  0.1000000000D+01
 SP   1 1.00       0.000000000000
      0.1455850000D+00  0.1000000000D+01  0.1000000000D+01
 SP   1 1.00       0.000000000000
      0.4380000000D-01  0.1000000000D+01  0.1000000000D+01
 D   1 1.00       0.000000000000
      0.6260000000D+00  0.1000000000D+01
 ****
     10 0
 S   6 1.00       0.000000000000
      0.4563240000D+04  0.1966650249D-02
      0.6820240000D+03  0.1523060193D-01
      0.1549730000D+03  0.7612690966D-01
      0.4445530000D+02  0.2608010331D+00
      0.1302900000D+02  0.6164620782D+00
      0.1827730000D+01  0.2210060280D+00
 SP   3 1.00       0.000000000000
      0.2096420000D+02  0.1146600807D+00  0.4024869267D-01
      0.4803310000D+01  0.9199996477D+00  0.2375939567D+00
      0.1459330000D+01 -0.3030682134D-02  0.8158538515D+00
 SP   1 1.00       0.000000000000
      0.4834560000D+00  0.1000000000D+01  0.1000000000D+01
 SP   1 1.00       0.000000000000
      0.1455850000D+00  0.1000000000D+01  0.1000000000D+01
 SP   1 1.00       0.000000000000
      0.4380000000D-01  0.1000000000D+01  0.1000000000D+01
 D   1 1.00       0.000000000000
      0.6260000000D+00  0.1000000000D+01
 ****
     11 0
 S   6 1.00       0.000000000000
      0.4563240000D+04  0.1966650249D-02
      0.6820240000D+03  0.1523060193D-01
      0.1549730000D+03  0.7612690966D-01
      0.4445530000D+02  0.2608010331D+00
      0.1302900000D+02  0.6164620782D+00
      0.1827730000D+01  0.2210060280D+00
 SP   3 1.00       0.000000000000
      0.2096420000D+02  0.1146600807D+00  0.4024869267D-01
      0.4803310000D+01  0.9199996477D+00  0.2375939567D+00
      0.1459330000D+01 -0.3030682134D-02  0.8158538515D+00
 SP   1 1.00       0.000000000000
      0.4834560000D+00  0.1000000000D+01  0.1000000000D+01
 SP   1 1.00       0.000000000000
      0.1455850000D+00  0.1000000000D+01  0.1000000000D+01
 SP   1 1.00       0.000000000000
      0.4380000000D-01  0.1000000000D+01  0.1000000000D+01
 D   1 1.00       0.000000000000
      0.6260000000D+00  0.1000000000D+01
 ****
     12 0
 S   6 1.00       0.000000000000
      0.4563240000D+04  0.1966650249D-02
      0.6820240000D+03  0.1523060193D-01
      0.1549730000D+03  0.7612690966D-01
      0.4445530000D+02  0.2608010331D+00
      0.1302900000D+02  0.6164620782D+00
      0.1827730000D+01  0.2210060280D+00
 SP   3 1.00       0.000000000000
      0.2096420000D+02  0.1146600807D+00  0.4024869267D-01
      0.4803310000D+01  0.9199996477D+00  0.2375939567D+00
      0.1459330000D+01 -0.3030682134D-02  0.8158538515D+00
 SP   1 1.00       0.000000000000
      0.4834560000D+00  0.1000000000D+01  0.1000000000D+01
 SP   1 1.00       0.000000000000
      0.1455850000D+00  0.1000000000D+01  0.1000000000D+01
 SP   1 1.00       0.000000000000
      0.4380000000D-01  0.1000000000D+01  0.1000000000D+01
 D   1 1.00       0.000000000000
      0.6260000000D+00  0.1000000000D+01
 ****
     13 0
 S   6 1.00       0.000000000000
      0.8588500000D+04  0.1895150083D-02
      0.1297230000D+04  0.1438590063D-01
      0.2992960000D+03  0.7073200310D-01
      0.8737710000D+02  0.2400010105D+00
      0.2567890000D+02  0.5947970261D+00
      0.3740040000D+01  0.2808020123D+00
 SP   3 1.00       0.000000000000
      0.4211750000D+02  0.1138890124D+00  0.3651139738D-01
      0.9628370000D+01  0.9208111006D+00  0.2371529830D+00
      0.2853320000D+01 -0.3274470358D-02  0.8197019412D+00
 SP   1 1.00       0.000000000000
      0.9056610000D+00  0.1000000000D+01  0.1000000000D+01
 SP   1 1.00       0.000000000000
      0.2556110000D+00  0.1000000000D+01  0.1000000000D+01
 SP   1 1.00       0.000000000000
      0.8450000000D-01  0.1000000000D+01  0.1000000000D+01
 D   1 1.00       0.000000000000
      0.1292000000D+01  0.1000000000D+01
 ****
     14 0
 S   3 1.00       0.000000000000
      0.3386500000D+02  0.2549381454D-01
      0.5094790000D+01  0.1903731086D+00
      0.1158790000D+01  0.8521614860D+00
 S   1 1.00       0.000000000000
      0.3258400000D+00  0.1000000000D+01
 S   1 1.00       0.000000000000
      0.1027410000D+00  0.1000000000D+01
 P   1 1.00       0.000000000000
      0.7500000000D+00  0.1000000000D+01
 ****
     15 0
 S   3 1.00       0.000000000000
      0.3386500000D+02  0.2549381454D-01
      0.5094790000D+01  0.1903731086D+00
      0.1158790000D+01  0.8521614860D+00
 S   1 1.00       0.000000000000
      0.3258400000D+00  0.1000000000D+01
 S   1 1.00       0.000000000000
      0.1027410000D+00  0.1000000000D+01
 P   1 1.00       0.000000000000
      0.7500000000D+00  0.1000000000D+01
 ****
     16 0
 S   3 1.00       0.000000000000
      0.3386500000D+02  0.2549381454D-01
      0.5094790000D+01  0.1903731086D+00
      0.1158790000D+01  0.8521614860D+00
 S   1 1.00       0.000000000000
      0.3258400000D+00  0.1000000000D+01
 S   1 1.00       0.000000000000
      0.1027410000D+00  0.1000000000D+01
 P   1 1.00       0.000000000000
      0.7500000000D+00  0.1000000000D+01
 ****
     17 0
 S   3 1.00       0.000000000000
      0.3386500000D+02  0.2549381454D-01
      0.5094790000D+01  0.1903731086D+00
      0.1158790000D+01  0.8521614860D+00
 S   1 1.00       0.000000000000
      0.3258400000D+00  0.1000000000D+01
 S   1 1.00       0.000000000000
      0.1027410000D+00  0.1000000000D+01
 P   1 1.00       0.000000000000
      0.7500000000D+00  0.1000000000D+01
 ****
     18 0
 S   3 1.00       0.000000000000
      0.3386500000D+02  0.2549381454D-01
      0.5094790000D+01  0.1903731086D+00
      0.1158790000D+01  0.8521614860D+00
 S   1 1.00       0.000000000000
      0.3258400000D+00  0.1000000000D+01
 S   1 1.00       0.000000000000
      0.1027410000D+00  0.1000000000D+01
 P   1 1.00       0.000000000000
      0.7500000000D+00  0.1000000000D+01
 ****
     19 0
 S   3 1.00       0.000000000000
      0.3386500000D+02  0.2549381454D-01
      0.5094790000D+01  0.1903731086D+00
      0.1158790000D+01  0.8521614860D+00
 S   1 1.00       0.000000000000
      0.3258400000D+00  0.1000000000D+01
 S   1 1.00       0.000000000000
      0.1027410000D+00  0.1000000000D+01
 P   1 1.00       0.000000000000
      0.7500000000D+00  0.1000000000D+01
 ****
     20 0
 S   3 1.00       0.000000000000
      0.3386500000D+02  0.2549381454D-01
      0.5094790000D+01  0.1903731086D+00
      0.1158790000D+01  0.8521614860D+00
 S   1 1.00       0.000000000000
      0.3258400000D+00  0.1000000000D+01
 S   1 1.00       0.000000000000
      0.1027410000D+00  0.1000000000D+01
 P   1 1.00       0.000000000000
      0.7500000000D+00  0.1000000000D+01
 ****
     21 0
 S   3 1.00       0.000000000000
      0.3386500000D+02  0.2549381454D-01
      0.5094790000D+01  0.1903731086D+00
      0.1158790000D+01  0.8521614860D+00
 S   1 1.00       0.000000000000
      0.3258400000D+00  0.1000000000D+01
 S   1 1.00       0.000000000000
      0.1027410000D+00  0.1000000000D+01
 P   1 1.00       0.000000000000
      0.7500000000D+00  0.1000000000D+01
 ****
     22 0
 S   3 1.00       0.000000000000
      0.3386500000D+02  0.2549381454D-01
      0.5094790000D+01  0.1903731086D+00
      0.1158790000D+01  0.8521614860D+00
 S   1 1.00       0.000000000000
      0.3258400000D+00  0.1000000000D+01
 S   1 1.00       0.000000000000
      0.1027410000D+00  0.1000000000D+01
 P   1 1.00       0.000000000000
      0.7500000000D+00  0.1000000000D+01
 ****
     23 0
 S   3 1.00       0.000000000000
      0.3386500000D+02  0.2549381454D-01
      0.5094790000D+01  0.1903731086D+00
      0.1158790000D+01  0.8521614860D+00
 S   1 1.00       0.000000000000
      0.3258400000D+00  0.1000000000D+01
 S   1 1.00       0.000000000000
      0.1027410000D+00  0.1000000000D+01
 P   1 1.00       0.000000000000
      0.7500000000D+00  0.1000000000D+01
 ****
     24 0
 S   3 1.00       0.000000000000
      0.3386500000D+02  0.2549381454D-01
      0.5094790000D+01  0.1903731086D+00
      0.1158790000D+01  0.8521614860D+00
 S   1 1.00       0.000000000000
      0.3258400000D+00  0.1000000000D+01
 S   1 1.00       0.000000000000
      0.1027410000D+00  0.1000000000D+01
 P   1 1.00       0.000000000000
      0.7500000000D+00  0.1000000000D+01
 ****
     25 0
 S   3 1.00       0.000000000000
      0.3386500000D+02  0.2549381454D-01
      0.5094790000D+01  0.1903731086D+00
      0.1158790000D+01  0.8521614860D+00
 S   1 1.00       0.000000000000
      0.3258400000D+00  0.1000000000D+01
 S   1 1.00       0.000000000000
      0.1027410000D+00  0.1000000000D+01
 P   1 1.00       0.000000000000
      0.7500000000D+00  0.1000000000D+01
 ****
     26 0
 S   3 1.00       0.000000000000
      0.3386500000D+02  0.2549381454D-01
      0.5094790000D+01  0.1903731086D+00
      0.1158790000D+01  0.8521614860D+00
 S   1 1.00       0.000000000000
      0.3258400000D+00  0.1000000000D+01
 S   1 1.00       0.000000000000
      0.1027410000D+00  0.1000000000D+01
 P   1 1.00       0.000000000000
      0.7500000000D+00  0.1000000000D+01
 ****
     27 0
 S   3 1.00       0.000000000000
      0.3386500000D+02  0.2549381454D-01
      0.5094790000D+01  0.1903731086D+00
      0.1158790000D+01  0.8521614860D+00
 S   1 1.00       0.000000000000
      0.3258400000D+00  0.1000000000D+01
 S   1 1.00       0.000000000000
      0.1027410000D+00  0.1000000000D+01
 P   1 1.00       0.000000000000
      0.7500000000D+00  0.1000000000D+01
 ****
     28 0
 S   3 1.00       0.000000000000
      0.3386500000D+02  0.2549381454D-01
      0.5094790000D+01  0.1903731086D+00
      0.1158790000D+01  0.8521614860D+00
 S   1 1.00       0.000000000000
      0.3258400000D+00  0.1000000000D+01
 S   1 1.00       0.000000000000
      0.1027410000D+00  0.1000000000D+01
 P   1 1.00       0.000000000000
      0.7500000000D+00  0.1000000000D+01
 ****
     29 0
 S   3 1.00       0.000000000000
      0.3386500000D+02  0.2549381454D-01
      0.5094790000D+01  0.1903731086D+00
      0.1158790000D+01  0.8521614860D+00
 S   1 1.00       0.000000000000
      0.3258400000D+00  0.1000000000D+01
 S   1 1.00       0.000000000000
      0.1027410000D+00  0.1000000000D+01
 P   1 1.00       0.000000000000
      0.7500000000D+00  0.1000000000D+01
 ****
     30 0
 S   3 1.00       0.000000000000
      0.3386500000D+02  0.2549381454D-01
      0.5094790000D+01  0.1903731086D+00
      0.1158790000D+01  0.8521614860D+00
 S   1 1.00       0.000000000000
      0.3258400000D+00  0.1000000000D+01
 S   1 1.00       0.000000000000
      0.1027410000D+00  0.1000000000D+01
 P   1 1.00       0.000000000000
      0.7500000000D+00  0.1000000000D+01
 ****
     31 0
 S   3 1.00       0.000000000000
      0.3386500000D+02  0.2549381454D-01
      0.5094790000D+01  0.1903731086D+00
      0.1158790000D+01  0.8521614860D+00
 S   1 1.00       0.000000000000
      0.3258400000D+00  0.1000000000D+01
 S   1 1.00       0.000000000000
      0.1027410000D+00  0.1000000000D+01
 P   1 1.00       0.000000000000
      0.7500000000D+00  0.1000000000D+01
 ****

   394 basis functions,   612 primitive gaussians,   407 cartesian basis functions
    49 alpha electrons       49 beta electrons
       nuclear repulsion energy       896.4668026184 Hartrees.
 IExCor= 1614 DFT=T Ex+Corr=B971 ExCW=0 ScaHFX=  0.210000
 ScaDFX=  1.000000  1.000000  1.000000  1.000000 ScalE2=  1.000000  1.000000
 IRadAn=      5 IRanWt=     -1 IRanGd=            0 ICorTp=0 IEmpDi=  4
 NAtoms=   31 NActive=   31 NUniq=   31 SFac= 1.00D+00 NAtFMM=   60 NAOKFM=F Big=F
 Integral buffers will be    131072 words long.
 Raffenetti 2 integral format.
 Two-electron integral symmetry is turned off.
 Leave Link  301 at Fri Feb 20 10:01:46 2015, MaxMem=   524288000 cpu:         0.5
 (Enter /opt/g09/l302.exe)
 NPDir=0 NMtPBC=     1 NCelOv=     1 NCel=       1 NClECP=     1 NCelD=      1
         NCelK=      1 NCelE2=     1 NClLst=     1 CellRange=     0.0.
 One-electron integrals computed using PRISM.
 NBasis=   394 RedAO= T EigKep=  2.34D-06  NBF=   394
 NBsUse=   394 1.00D-06 EigRej= -1.00D+00 NBFU=   394
 Precomputing XC quadrature grid using
 IXCGrd= 4 IRadAn=           5 IRanWt=          -1 IRanGd=           0 AccXCQ= 0.00D+00.
 Generated NRdTot=       0 NPtTot=           0 NUsed=           0 NTot=          32
 NSgBfM=   407   407   407   407   407 MxSgAt=    31 MxSgA2=    31.
 Leave Link  302 at Fri Feb 20 10:01:47 2015, MaxMem=   524288000 cpu:         5.7
 (Enter /opt/g09/l303.exe)
 DipDrv:  MaxL=1.
 Leave Link  303 at Fri Feb 20 10:01:47 2015, MaxMem=   524288000 cpu:         0.6
 (Enter /opt/g09/l401.exe)
 ExpMin= 4.38D-02 ExpMax= 8.59D+03 ExpMxC= 1.30D+03 IAcc=3 IRadAn=         5 AccDes= 0.00D+00
 Harris functional with IExCor= 1614 and IRadAn=       5 diagonalized for initial guess.
 HarFok:  IExCor= 1614 AccDes= 0.00D+00 IRadAn=         5 IDoV= 1 UseB2=F ITyADJ=14
 ICtDFT=  3500011 ScaDFX=  1.000000  1.000000  1.000000  1.000000
 FoFCou: FMM=F IPFlag=           0 FMFlag=      100000 FMFlg1=           0
         NFxFlg=           0 DoJE=T BraDBF=F KetDBF=T FulRan=T
         wScrn=  0.000000 ICntrl=     500 IOpCl=  0 I1Cent=   200000004 NGrid=           0
         NMat0=    1 NMatS0=      1 NMatT0=    0 NMatD0=    1 NMtDS0=    0 NMtDT0=    0
 Symmetry not used in FoFCou.
 Harris En= -527.444249974921    
 JPrj=0 DoOrth=F DoCkMO=T.
 Mixing orbitals, IMix= 1 IMixAn=  0 NRI=1 NE=   49 Coef=  7.07106781D-01  7.07106781D-01
 Leave Link  401 at Fri Feb 20 10:01:54 2015, MaxMem=   524288000 cpu:        54.2
 (Enter /opt/g09/l502.exe)
 Closed shell SCF:
 Using DIIS extrapolation, IDIIS=  1040.
 Two-electron integral symmetry not used.
 IVT=      521257 IEndB=      521257 NGot=   524288000 MDV=   523949440
 LenX=   523949440 LenY=   523783350
 Requested convergence on RMS density matrix=1.00D-08 within 128 cycles.
 Requested convergence on MAX density matrix=1.00D-06.
 Requested convergence on             energy=1.00D-06.
 No special actions if energy rises.
 Fock matrices will be formed incrementally for  20 cycles.

 Cycle   1  Pass 1  IDiag  1:
 FoFJK:  IHMeth= 1 ICntrl=       0 DoSepK=F KAlg= 0 I1Cent=   0 FoldK=F
 IRaf= 930000000 NMat=   1 IRICut=       1 DoRegI=T DoRafI=F ISym2E= 0.
 FoFCou: FMM=F IPFlag=           0 FMFlag=      100000 FMFlg1=           0
         NFxFlg=           0 DoJE=F BraDBF=F KetDBF=F FulRan=T
         wScrn=  0.000000 ICntrl=       0 IOpCl=  0 I1Cent=           0 NGrid=           0
         NMat0=    1 NMatS0=      1 NMatT0=    0 NMatD0=    1 NMtDS0=    0 NMtDT0=    0
 Symmetry not used in FoFCou.
 E= -542.717764615513    
 DIIS: error= 4.88D-02 at cycle   1 NSaved=   1.
 NSaved= 1 IEnMin= 1 EnMin= -542.717764615513     IErMin= 1 ErrMin= 4.88D-02
 ErrMax= 4.88D-02  0.00D+00 EMaxC= 1.00D-01 BMatC= 1.24D+00 BMatP= 1.24D+00
 IDIUse=3 WtCom= 5.12D-01 WtEn= 4.88D-01
 Coeff-Com:  0.100D+01
 Coeff-En:   0.100D+01
 Coeff:      0.100D+01
 Gap=     0.013 Goal=   None    Shift=    0.000
 GapD=    0.013 DampG=0.250 DampE=0.500 DampFc=0.2500 IDamp=-1.
 Damping current iteration by 2.50D-01
 RMSDP=1.20D-01 MaxDP=1.23D+01              OVMax= 4.71D-01

 Cycle   2  Pass 1  IDiag  1:
 RMSU=  5.46D-03    CP:  7.82D-01
 E= -542.911168562086     Delta-E=       -0.193403946572 Rises=F Damp=T
 DIIS: error= 3.67D-02 at cycle   2 NSaved=   2.
 NSaved= 2 IEnMin= 2 EnMin= -542.911168562086     IErMin= 2 ErrMin= 3.67D-02
 ErrMax= 3.67D-02  0.00D+00 EMaxC= 1.00D-01 BMatC= 5.51D-01 BMatP= 1.24D+00
 IDIUse=3 WtCom= 6.33D-01 WtEn= 3.67D-01
 Coeff-Com: -0.117D+01 0.217D+01
 Coeff-En:   0.000D+00 0.100D+01
 Coeff:     -0.743D+00 0.174D+01
 Gap=     0.309 Goal=   None    Shift=    0.000
 RMSDP=9.35D-02 MaxDP=9.39D+00 DE=-1.93D-01 OVMax= 1.98D-01

 Cycle   3  Pass 1  IDiag  1:
 RMSU=  1.23D-02    CP:  1.07D-01  3.00D+00
 E= -543.283238857877     Delta-E=       -0.372070295791 Rises=F Damp=F
 DIIS: error= 8.49D-03 at cycle   3 NSaved=   3.
 NSaved= 3 IEnMin= 3 EnMin= -543.283238857877     IErMin= 3 ErrMin= 8.49D-03
 ErrMax= 8.49D-03  0.00D+00 EMaxC= 1.00D-01 BMatC= 1.60D-02 BMatP= 5.51D-01
 IDIUse=3 WtCom= 9.15D-01 WtEn= 8.49D-02
 Coeff-Com: -0.274D+00 0.423D+00 0.851D+00
 Coeff-En:   0.000D+00 0.000D+00 0.100D+01
 Coeff:     -0.251D+00 0.387D+00 0.864D+00
 Gap=     0.264 Goal=   None    Shift=    0.000
 RMSDP=5.80D-03 MaxDP=6.14D-01 DE=-3.72D-01 OVMax= 3.26D-02

 Cycle   4  Pass 1  IDiag  1:
 RMSU=  3.58D-03    CP:  8.72D-02  3.00D+00  7.05D-01
 E= -543.292947722327     Delta-E=       -0.009708864450 Rises=F Damp=F
 DIIS: error= 2.09D-03 at cycle   4 NSaved=   4.
 NSaved= 4 IEnMin= 4 EnMin= -543.292947722327     IErMin= 4 ErrMin= 2.09D-03
 ErrMax= 2.09D-03  0.00D+00 EMaxC= 1.00D-01 BMatC= 2.22D-03 BMatP= 1.60D-02
 IDIUse=3 WtCom= 9.79D-01 WtEn= 2.09D-02
 Coeff-Com: -0.691D-01 0.107D+00 0.319D+00 0.642D+00
 Coeff-En:   0.000D+00 0.000D+00 0.472D-02 0.995D+00
 Coeff:     -0.676D-01 0.105D+00 0.313D+00 0.650D+00
 Gap=     0.269 Goal=   None    Shift=    0.000
 RMSDP=1.82D-03 MaxDP=1.55D-01 DE=-9.71D-03 OVMax= 8.48D-03

 Cycle   5  Pass 1  IDiag  1:
 RMSU=  7.32D-04    CP:  9.15D-02  3.00D+00  8.09D-01  7.50D-01
 E= -543.294608618370     Delta-E=       -0.001660896044 Rises=F Damp=F
 DIIS: error= 9.11D-04 at cycle   5 NSaved=   5.
 NSaved= 5 IEnMin= 5 EnMin= -543.294608618370     IErMin= 5 ErrMin= 9.11D-04
 ErrMax= 9.11D-04  0.00D+00 EMaxC= 1.00D-01 BMatC= 4.65D-04 BMatP= 2.22D-03
 IDIUse=3 WtCom= 9.91D-01 WtEn= 9.11D-03
 Coeff-Com: -0.138D-01 0.220D-01 0.844D-01 0.342D+00 0.566D+00
 Coeff-En:   0.000D+00 0.000D+00 0.000D+00 0.143D+00 0.857D+00
 Coeff:     -0.136D-01 0.218D-01 0.836D-01 0.340D+00 0.568D+00
 Gap=     0.266 Goal=   None    Shift=    0.000
 RMSDP=7.92D-04 MaxDP=6.28D-02 DE=-1.66D-03 OVMax= 3.34D-03

 Cycle   6  Pass 1  IDiag  1:
 RMSU=  2.83D-04    CP:  8.98D-02  3.00D+00  7.62D-01  8.40D-01  6.52D-01
 E= -543.295044074493     Delta-E=       -0.000435456122 Rises=F Damp=F
 DIIS: error= 2.10D-04 at cycle   6 NSaved=   6.
 NSaved= 6 IEnMin= 6 EnMin= -543.295044074493     IErMin= 6 ErrMin= 2.10D-04
 ErrMax= 2.10D-04  0.00D+00 EMaxC= 1.00D-01 BMatC= 2.18D-05 BMatP= 4.65D-04
 IDIUse=3 WtCom= 9.98D-01 WtEn= 2.10D-03
 Coeff-Com: -0.915D-04 0.375D-03 0.790D-02 0.857D-01 0.240D+00 0.666D+00
 Coeff-En:   0.000D+00 0.000D+00 0.000D+00 0.000D+00 0.000D+00 0.100D+01
 Coeff:     -0.913D-04 0.374D-03 0.788D-02 0.855D-01 0.240D+00 0.667D+00
 Gap=     0.267 Goal=   None    Shift=    0.000
 RMSDP=1.21D-04 MaxDP=1.20D-02 DE=-4.35D-04 OVMax= 1.04D-03

 Cycle   7  Pass 1  IDiag  1:
 RMSU=  4.60D-05    CP:  8.98D-02  3.00D+00  7.68D-01  8.35D-01  7.36D-01
                    CP:  7.84D-01
 E= -543.295062511717     Delta-E=       -0.000018437225 Rises=F Damp=F
 DIIS: error= 6.77D-05 at cycle   7 NSaved=   7.
 NSaved= 7 IEnMin= 7 EnMin= -543.295062511717     IErMin= 7 ErrMin= 6.77D-05
 ErrMax= 6.77D-05  0.00D+00 EMaxC= 1.00D-01 BMatC= 2.61D-06 BMatP= 2.18D-05
 IDIUse=1 WtCom= 1.00D+00 WtEn= 0.00D+00
 Coeff-Com:  0.807D-03-0.116D-02-0.957D-03 0.222D-01 0.867D-01 0.343D+00
 Coeff-Com:  0.549D+00
 Coeff:      0.807D-03-0.116D-02-0.957D-03 0.222D-01 0.867D-01 0.343D+00
 Coeff:      0.549D+00
 Gap=     0.267 Goal=   None    Shift=    0.000
 RMSDP=2.44D-05 MaxDP=2.59D-03 DE=-1.84D-05 OVMax= 2.71D-04

 Cycle   8  Pass 1  IDiag  1:
 RMSU=  1.45D-05    CP:  8.98D-02  3.00D+00  7.67D-01  8.37D-01  7.32D-01
                    CP:  8.13D-01  7.75D-01
 E= -543.295064957756     Delta-E=       -0.000002446038 Rises=F Damp=F
 DIIS: error= 1.47D-05 at cycle   8 NSaved=   8.
 NSaved= 8 IEnMin= 8 EnMin= -543.295064957756     IErMin= 8 ErrMin= 1.47D-05
 ErrMax= 1.47D-05  0.00D+00 EMaxC= 1.00D-01 BMatC= 1.36D-07 BMatP= 2.61D-06
 IDIUse=1 WtCom= 1.00D+00 WtEn= 0.00D+00
 Coeff-Com:  0.262D-03-0.409D-03-0.114D-02-0.250D-02 0.607D-03 0.371D-01
 Coeff-Com:  0.208D+00 0.758D+00
 Coeff:      0.262D-03-0.409D-03-0.114D-02-0.250D-02 0.607D-03 0.371D-01
 Coeff:      0.208D+00 0.758D+00
 Gap=     0.267 Goal=   None    Shift=    0.000
 RMSDP=5.95D-06 MaxDP=5.38D-04 DE=-2.45D-06 OVMax= 1.10D-04

 Cycle   9  Pass 1  IDiag  1:
 RMSU=  3.78D-06    CP:  8.98D-02  3.00D+00  7.67D-01  8.37D-01  7.35D-01
                    CP:  8.19D-01  8.20D-01  8.57D-01
 E= -543.295065088006     Delta-E=       -0.000000130250 Rises=F Damp=F
 DIIS: error= 3.17D-06 at cycle   9 NSaved=   9.
 NSaved= 9 IEnMin= 9 EnMin= -543.295065088006     IErMin= 9 ErrMin= 3.17D-06
 ErrMax= 3.17D-06  0.00D+00 EMaxC= 1.00D-01 BMatC= 9.11D-09 BMatP= 1.36D-07
 IDIUse=1 WtCom= 1.00D+00 WtEn= 0.00D+00
 Coeff-Com:  0.511D-04-0.895D-04-0.454D-03-0.199D-02-0.314D-02 0.196D-02
 Coeff-Com:  0.665D-01 0.312D+00 0.625D+00
 Coeff:      0.511D-04-0.895D-04-0.454D-03-0.199D-02-0.314D-02 0.196D-02
 Coeff:      0.665D-01 0.312D+00 0.625D+00
 Gap=     0.267 Goal=   None    Shift=    0.000
 RMSDP=1.87D-06 MaxDP=1.71D-04 DE=-1.30D-07 OVMax= 2.53D-05

 Cycle  10  Pass 1  IDiag  1:
 RMSU=  1.00D-06    CP:  8.98D-02  3.00D+00  7.67D-01  8.37D-01  7.36D-01
                    CP:  8.21D-01  8.23D-01  9.13D-01  7.56D-01
 E= -543.295065095777     Delta-E=       -0.000000007771 Rises=F Damp=F
 DIIS: error= 1.86D-06 at cycle  10 NSaved=  10.
 NSaved=10 IEnMin=10 EnMin= -543.295065095777     IErMin=10 ErrMin= 1.86D-06
 ErrMax= 1.86D-06  0.00D+00 EMaxC= 1.00D-01 BMatC= 1.56D-09 BMatP= 9.11D-09
 IDIUse=1 WtCom= 1.00D+00 WtEn= 0.00D+00
 Coeff-Com: -0.653D-05 0.315D-05-0.124D-03-0.763D-03-0.156D-02-0.218D-02
 Coeff-Com:  0.141D-01 0.826D-01 0.324D+00 0.584D+00
 Coeff:     -0.653D-05 0.315D-05-0.124D-03-0.763D-03-0.156D-02-0.218D-02
 Coeff:      0.141D-01 0.826D-01 0.324D+00 0.584D+00
 Gap=     0.267 Goal=   None    Shift=    0.000
 RMSDP=6.40D-07 MaxDP=7.35D-05 DE=-7.77D-09 OVMax= 8.36D-06

 Cycle  11  Pass 1  IDiag  1:
 RMSU=  3.05D-07    CP:  8.98D-02  3.00D+00  7.67D-01  8.37D-01  7.36D-01
                    CP:  8.20D-01  8.29D-01  9.05D-01  8.27D-01  8.28D-01
 E= -543.295065097319     Delta-E=       -0.000000001542 Rises=F Damp=F
 DIIS: error= 3.20D-07 at cycle  11 NSaved=  11.
 NSaved=11 IEnMin=11 EnMin= -543.295065097319     IErMin=11 ErrMin= 3.20D-07
 ErrMax= 3.20D-07  0.00D+00 EMaxC= 1.00D-01 BMatC= 6.36D-11 BMatP= 1.56D-09
 IDIUse=1 WtCom= 1.00D+00 WtEn= 0.00D+00
 Coeff-Com: -0.511D-05 0.679D-05-0.884D-06-0.947D-04-0.277D-03-0.862D-03
 Coeff-Com: -0.103D-02 0.337D-03 0.550D-01 0.210D+00 0.737D+00
 Coeff:     -0.511D-05 0.679D-05-0.884D-06-0.947D-04-0.277D-03-0.862D-03
 Coeff:     -0.103D-02 0.337D-03 0.550D-01 0.210D+00 0.737D+00
 Gap=     0.267 Goal=   None    Shift=    0.000
 RMSDP=1.67D-07 MaxDP=1.16D-05 DE=-1.54D-09 OVMax= 2.46D-06

 Cycle  12  Pass 1  IDiag  1:
 RMSU=  9.52D-08    CP:  8.98D-02  3.00D+00  7.67D-01  8.37D-01  7.36D-01
                    CP:  8.20D-01  8.29D-01  9.09D-01  8.35D-01  8.69D-01
                    CP:  7.59D-01
 E= -543.295065097366     Delta-E=       -0.000000000047 Rises=F Damp=F
 DIIS: error= 1.22D-07 at cycle  12 NSaved=  12.
 NSaved=12 IEnMin=12 EnMin= -543.295065097366     IErMin=12 ErrMin= 1.22D-07
 ErrMax= 1.22D-07  0.00D+00 EMaxC= 1.00D-01 BMatC= 9.36D-12 BMatP= 6.36D-11
 IDIUse=1 WtCom= 1.00D+00 WtEn= 0.00D+00
 Coeff-Com: -0.115D-05 0.174D-05 0.576D-05-0.651D-05-0.530D-04-0.291D-03
 Coeff-Com: -0.132D-02-0.463D-02 0.689D-02 0.655D-01 0.362D+00 0.572D+00
 Coeff:     -0.115D-05 0.174D-05 0.576D-05-0.651D-05-0.530D-04-0.291D-03
 Coeff:     -0.132D-02-0.463D-02 0.689D-02 0.655D-01 0.362D+00 0.572D+00
 Gap=     0.267 Goal=   None    Shift=    0.000
 RMSDP=5.66D-08 MaxDP=4.35D-06 DE=-4.68D-11 OVMax= 5.94D-07

 Cycle  13  Pass 1  IDiag  1:
 RMSU=  2.61D-08    CP:  8.98D-02  3.00D+00  7.67D-01  8.37D-01  7.36D-01
                    CP:  8.21D-01  8.29D-01  9.09D-01  8.37D-01  8.74D-01
                    CP:  8.16D-01  7.23D-01
 E= -543.295065097365     Delta-E=        0.000000000001 Rises=F Damp=F
 DIIS: error= 3.76D-08 at cycle  13 NSaved=  13.
 NSaved=13 IEnMin=12 EnMin= -543.295065097366     IErMin=13 ErrMin= 3.76D-08
 ErrMax= 3.76D-08  0.00D+00 EMaxC= 1.00D-01 BMatC= 8.33D-13 BMatP= 9.36D-12
 IDIUse=1 WtCom= 1.00D+00 WtEn= 0.00D+00
 Coeff-Com:  0.214D-06-0.167D-06 0.329D-05 0.899D-05 0.541D-05-0.570D-04
 Coeff-Com: -0.564D-03-0.241D-02-0.336D-02 0.634D-02 0.904D-01 0.272D+00
 Coeff-Com:  0.637D+00
 Coeff:      0.214D-06-0.167D-06 0.329D-05 0.899D-05 0.541D-05-0.570D-04
 Coeff:     -0.564D-03-0.241D-02-0.336D-02 0.634D-02 0.904D-01 0.272D+00
 Coeff:      0.637D+00
 Gap=     0.267 Goal=   None    Shift=    0.000
 RMSDP=1.68D-08 MaxDP=1.13D-06 DE= 1.14D-12 OVMax= 2.17D-07

 Cycle  14  Pass 1  IDiag  1:
 RMSU=  7.91D-09    CP:  8.98D-02  3.00D+00  7.67D-01  8.37D-01  7.36D-01
                    CP:  8.21D-01  8.29D-01  9.09D-01  8.37D-01  8.78D-01
                    CP:  8.22D-01  7.68D-01  8.05D-01
 E= -543.295065097404     Delta-E=       -0.000000000039 Rises=F Damp=F
 DIIS: error= 5.28D-09 at cycle  14 NSaved=  14.
 NSaved=14 IEnMin=14 EnMin= -543.295065097404     IErMin=14 ErrMin= 5.28D-09
 ErrMax= 5.28D-09  0.00D+00 EMaxC= 1.00D-01 BMatC= 3.22D-14 BMatP= 8.33D-13
 IDIUse=1 WtCom= 1.00D+00 WtEn= 0.00D+00
 Coeff-Com:  0.100D-06-0.993D-07 0.790D-06 0.405D-05 0.636D-05-0.875D-07
 Coeff-Com: -0.124D-03-0.602D-03-0.171D-02-0.188D-02 0.114D-01 0.639D-01
 Coeff-Com:  0.235D+00 0.694D+00
 Coeff:      0.100D-06-0.993D-07 0.790D-06 0.405D-05 0.636D-05-0.875D-07
 Coeff:     -0.124D-03-0.602D-03-0.171D-02-0.188D-02 0.114D-01 0.639D-01
 Coeff:      0.235D+00 0.694D+00
 Gap=     0.267 Goal=   None    Shift=    0.000
 RMSDP=3.25D-09 MaxDP=2.51D-07 DE=-3.91D-11 OVMax= 4.00D-08

 SCF Done:  E(RB971) =  -543.295065097     A.U. after   14 cycles
            NFock= 14  Conv=0.33D-08     -V/T= 2.0042
 KE= 5.409994452986D+02 PE=-3.056383116478D+03 EE= 1.075621803463D+03
 Leave Link  502 at Fri Feb 20 10:06:36 2015, MaxMem=   524288000 cpu:      2246.3
 (Enter /opt/g09/l801.exe)
 DoSCS=F DFT=T ScalE2(SS,OS)=  1.000000  1.000000
 Range of M.O.s used for correlation:     1   394
 NBasis=   394 NAE=    49 NBE=    49 NFC=     0 NFV=     0
 NROrb=    394 NOA=    49 NOB=    49 NVA=   345 NVB=   345

 **** Warning!!: The largest alpha MO coefficient is  0.11942261D+03

 Leave Link  801 at Fri Feb 20 10:06:37 2015, MaxMem=   524288000 cpu:         0.3
 (Enter /opt/g09/l1101.exe)
 Using compressed storage, NAtomX=    31.
 Will process     32 centers per pass.
 Leave Link 1101 at Fri Feb 20 10:06:38 2015, MaxMem=   524288000 cpu:         9.0
 (Enter /opt/g09/l1102.exe)
 Symmetrizing basis deriv contribution to polar:
 IMax=3 JMax=2 DiffMx= 0.00D+00
 Leave Link 1102 at Fri Feb 20 10:06:38 2015, MaxMem=   524288000 cpu:         0.5
 (Enter /opt/g09/l1110.exe)
 Forming Gx(P) for the SCF density, NAtomX=    31.
 Integral derivatives from FoFJK, PRISM(SPDF).
 Do as many integral derivatives as possible in FoFJK.
 G2DrvN: MDV=     524287648.
 G2DrvN: will do    32 centers at a time, making    1 passes.
 Calling FoFCou, ICntrl=  3107 FMM=F I1Cent=   0 AccDes= 0.00D+00.
 FoFJK:  IHMeth= 1 ICntrl=    3107 DoSepK=F KAlg= 0 I1Cent=   0 FoldK=F
 IRaf=         0 NMat=   1 IRICut=       1 DoRegI=T DoRafI=F ISym2E= 0.
 FoFCou: FMM=F IPFlag=           0 FMFlag=      100000 FMFlg1=           0
         NFxFlg=           0 DoJE=F BraDBF=F KetDBF=F FulRan=T
         wScrn=  0.000000 ICntrl=    3107 IOpCl=  0 I1Cent=           0 NGrid=           0
         NMat0=    1 NMatS0=      1 NMatT0=    0 NMatD0=    1 NMtDS0=    0 NMtDT0=    0
 Symmetry not used in FoFCou.
 End of G2Drv F.D. properties file   721 does not exist.
 End of G2Drv F.D. properties file   722 does not exist.
 End of G2Drv F.D. properties file   788 does not exist.
 Leave Link 1110 at Fri Feb 20 10:18:51 2015, MaxMem=   524288000 cpu:      5828.3
 (Enter /opt/g09/l1002.exe)
 Minotr:  Closed shell wavefunction.
          IDoAtm=1111111111111111111111111111111
          Direct CPHF calculation.
          Differentiating once with respect to electric field.
                with respect to dipole field.
          Differentiating once with respect to nuclear coordinates.
          Requested convergence is 1.0D-08 RMS, and 1.0D-07 maximum.
          Secondary convergence is 1.0D-12 RMS, and 1.0D-12 maximum.
          NewPWx=T KeepS1=F KeepF1=F KeepIn=T MapXYZ=F SortEE=F KeepMc=T.
          MDV=     524287292 using IRadAn=       1.
 Generate precomputed XC quadrature information.
          Solving linear equations simultaneously, MaxMat=       0.
 FoFJK:  IHMeth= 1 ICntrl=       0 DoSepK=F KAlg= 0 I1Cent=   0 FoldK=F
 IRaf= 930000000 NMat=  96 IRICut=     240 DoRegI=T DoRafI=T ISym2E= 0.
 FoFCou: FMM=F IPFlag=           0 FMFlag=      100000 FMFlg1=           0
         NFxFlg=           0 DoJE=F BraDBF=F KetDBF=F FulRan=T
         wScrn=  0.000000 ICntrl=       0 IOpCl=  0 I1Cent=           0 NGrid=           0
         NMat0=   96 NMatS0=     96 NMatT0=    0 NMatD0=   96 NMtDS0=    0 NMtDT0=    0
 Symmetry not used in FoFCou.
          There are    96 degrees of freedom in the 1st order CPHF.  IDoFFX=6 NUNeed=     3.
     93 vectors produced by pass  0 Test12= 1.76D-14 1.04D-09 XBig12= 8.93D+01 1.17D+00.
 AX will form    93 AO Fock derivatives at one time.
     93 vectors produced by pass  1 Test12= 1.76D-14 1.04D-09 XBig12= 7.95D+00 2.33D-01.
     93 vectors produced by pass  2 Test12= 1.76D-14 1.04D-09 XBig12= 9.88D-02 1.93D-02.
     93 vectors produced by pass  3 Test12= 1.76D-14 1.04D-09 XBig12= 2.18D-04 1.29D-03.
     93 vectors produced by pass  4 Test12= 1.76D-14 1.04D-09 XBig12= 3.63D-07 4.52D-05.
     77 vectors produced by pass  5 Test12= 1.76D-14 1.04D-09 XBig12= 4.59D-10 1.59D-06.
      7 vectors produced by pass  6 Test12= 1.76D-14 1.04D-09 XBig12= 5.01D-13 5.61D-08.
      3 vectors produced by pass  7 Test12= 1.76D-14 1.04D-09 XBig12= 1.46D-15 3.97D-09.
      2 vectors produced by pass  8 Test12= 1.76D-14 1.04D-09 XBig12= 1.80D-16 1.17D-09.
 InvSVY:  IOpt=1 It=  1 EMax= 1.60D-14
 Solved reduced A of dimension   554 with    96 vectors.
 FullF1:  Do perturbations    1 to     3.
 Isotropic polarizability for W=    0.000000      130.44 Bohr**3.
 End of Minotr F.D. properties file   721 does not exist.
 End of Minotr F.D. properties file   722 does not exist.
 End of Minotr F.D. properties file   788 does not exist.
 Leave Link 1002 at Fri Feb 20 10:43:23 2015, MaxMem=   524288000 cpu:     11721.0
 (Enter /opt/g09/l701.exe)
 Compute integral second derivatives.
 ... and contract with generalized density number  0.
 Leave Link  701 at Fri Feb 20 10:43:23 2015, MaxMem=   524288000 cpu:         3.7
 (Enter /opt/g09/l702.exe)
 L702 exits ... SP integral derivatives will be done elsewhere.
 Leave Link  702 at Fri Feb 20 10:43:24 2015, MaxMem=   524288000 cpu:         0.3
 (Enter /opt/g09/l703.exe)
 Compute integral second derivatives, UseDBF=F ICtDFT=           0.
 Integral derivatives from FoFJK, PRISM(SPDF).
 Calling FoFJK, ICntrl=    100127 FMM=F ISym2X=0 I1Cent= 0 IOpClX= 0 NMat=1 NMatS=1 NMatT=0.
 FoFJK:  IHMeth= 1 ICntrl=  100127 DoSepK=F KAlg= 0 I1Cent=   0 FoldK=F
 IRaf=         0 NMat=   1 IRICut=       1 DoRegI=T DoRafI=F ISym2E= 0.
 FoFCou: FMM=F IPFlag=           0 FMFlag=      100000 FMFlg1=         800
         NFxFlg=           0 DoJE=F BraDBF=F KetDBF=F FulRan=T
         wScrn=  0.000000 ICntrl=  100127 IOpCl=  0 I1Cent=           0 NGrid=           0
[...]
 0521648,0.00044081,0.00001250,0.00047085,-0.00024968,-0.00003998,-0.00
 005069,-0.00009474,0.00009942,-0.00004010,-0.00019960,-0.00128546,0.00
 051585,-0.00001888,-0.00045967,-0.00025905,-0.00060830,0.00037720,0.00
 011153,0.00003310,0.00052472,0.00050353,-0.00042109,0.00083092,0.00040
 588,-0.00035434,0.00083537,0.00025493,-0.00009954,0.00004352,-0.000189
 33,-0.00014024,0.00002268,0.00005858,-0.00002024,0.00008959,-0.0000117
 1,-0.00005024,0.00005083,-0.00003385,0.00005098,0.00006609,0.00000031,
 -0.00178038,0.03670195,0.05167848,-0.00022155,0.00168992,0.00025761,-0
 .00022063,0.00026971,0.00037992,0.00042057,-0.00010423,0.00055255,0.00
 752257,0.00810925,0.00770818,0.00006278,-0.00001944,0.00000732,-0.0012
 6863,0.00195539,-0.00234447,-0.00016743,0.00004773,0.00010441,-0.00015
 821,0.00015181,-0.00020520,-0.00748326,-0.00439595,-0.00289066,-0.1808
 4000,-0.09583577,-0.08882376,0.00031159,-0.00077357,-0.00011758,-0.000
 17625,0.00000489,-0.00007644,0.00016445,-0.00003001,-0.00006698,0.0000
 6374,-0.00001820,0.00033934,-0.00001057,0.00002473,0.00001320,0.000172
 07,0.00014965,-0.00005587,0.00039625,-0.00029710,0.00011367,0.00024285
 ,0.00139313,0.00053061,0.00196870,0.00010570,-0.00000952,-0.00000644,-
 0.00003787,-0.00005961,0.00070778,0.00027883,-0.00031052,0.00000335,-0
 .00000860,-0.00001044,-0.00005455,-0.00012325,-0.00008504,0.00002236,0
 .00000647,0.00002297,0.00016201,0.00043578,0.00010213,0.19632248,0.001
 19745,-0.00300925,0.00008654,0.00025215,-0.00003906,0.00033095,0.00009
 504,0.00002761,-0.00059719,-0.01785096,-0.01463817,-0.01231305,0.00000
 622,0.00006731,-0.00000539,0.00034569,-0.00155619,0.00328936,0.0000724
 8,-0.00008040,-0.00004605,0.00021130,-0.00014939,0.00024593,0.01374750
 ,0.00863272,0.00931004,-0.09590423,-0.10775918,-0.06178679,0.00064888,
 0.00084074,0.00035588,0.00004267,0.00006546,-0.00012361,-0.00006222,0.
 00003358,-0.00003267,-0.00016668,0.00019454,-0.00078840,0.00008104,0.0
 0016089,0.00003690,0.00012241,-0.00004283,-0.00008719,0.00006107,0.000
 19148,-0.00021940,0.00120950,-0.00282957,-0.00217574,-0.00007792,0.001
 78758,0.00046429,-0.00000509,0.00001937,0.00002598,0.00012509,-0.00019
 876,-0.00001934,-0.00000474,0.00002356,-0.00002906,0.00003438,0.000156
 34,0.00005713,0.00001319,0.00000111,-0.00001105,0.00007178,0.00082104,
 -0.00099113,0.09916911,0.11956233,0.00091379,-0.00135466,-0.00044576,0
 .00039747,0.00057145,0.00047968,-0.00153490,-0.00039665,0.00105828,-0.
 00544510,-0.00394942,-0.00404622,0.00001863,0.00007847,0.00002106,-0.0
 0021299,0.00354380,-0.00422460,-0.00016141,0.00001473,0.00008912,-0.00
 034075,0.00029109,-0.00045168,-0.01885621,-0.01320468,-0.01230211,-0.0
 8750782,-0.06159679,-0.10726573,-0.00078281,-0.00130295,0.00026104,-0.
 00004655,-0.00010038,0.00016015,0.00016907,0.00003860,-0.00001301,-0.0
 0008153,-0.00000544,-0.00047574,0.00007484,-0.00010307,-0.00002513,0.0
 0038568,0.00030370,0.00016996,0.00091736,-0.00000979,-0.00026772,0.000
 16477,-0.00040429,-0.00057505,0.00009372,0.00003033,0.00133733,0.00002
 464,-0.00002225,-0.00000837,-0.00023809,0.00017286,0.00025730,0.000005
 56,-0.00000717,-0.00000710,-0.00005468,-0.00021214,-0.00009553,-0.0000
 0327,-0.00000578,0.00002464,0.00025220,0.00017545,0.00134030,0.0972379
 8,0.06713401,0.11457531,-0.00051953,0.00029219,-0.00013041,-0.00014259
 ,-0.00014481,0.00006428,-0.00016193,0.00035656,-0.00133806,-0.00683547
 ,-0.00221911,0.00322721,0.00002745,-0.00002210,-0.00010750,0.00093677,
 0.00045245,-0.00177995,-0.00004498,0.00002274,-0.00002433,0.00006696,-
 0.00005491,0.00013647,0.00615373,0.00083350,-0.00630109,-0.20280206,-0
 .02650802,0.12468340,0.00038744,0.00016040,-0.00015203,-0.00008184,-0.
 00002151,-0.00008002,0.00002180,-0.00000028,0.00005893,0.00007569,-0.0
 0010967,0.00028153,0.00002822,0.00009139,-0.00002960,0.00048391,-0.000
 09765,-0.00021754,0.00041433,0.00008667,-0.00022294,0.00146359,0.00026
 417,-0.00028244,-0.00002698,0.00150771,0.00090020,0.00000084,0.0000065
 8,0.00001594,0.00030764,0.00024564,-0.00004442,0.00001641,-0.00000514,
 0.00001671,0.00003081,0.00001897,0.00003265,-0.00000027,0.00000002,-0.
 00001316,0.00004582,-0.00018327,0.00057814,-0.01793833,-0.00338471,0.0
 1467239,0.21800583,0.00182368,-0.00264781,-0.00112345,0.00027604,0.000
 23529,-0.00024214,0.00115816,-0.00248742,0.00326161,0.02112956,0.00295
 307,-0.01589332,-0.00010534,-0.00001462,0.00008828,-0.00115115,0.00019
 267,-0.00140655,-0.00006827,-0.00006549,0.00001930,0.00001015,0.000025
 97,-0.00007848,-0.01350062,-0.00138690,0.00960368,-0.02686900,-0.04913
 686,0.01996388,-0.00003129,-0.00006185,-0.00008095,-0.00008286,-0.0000
 6921,-0.00001167,0.00010174,0.00016323,0.00011249,-0.00026979,0.000247
 32,-0.00096052,-0.00000002,-0.00007355,-0.00004402,-0.00057990,0.00089
 185,0.00047954,0.00038465,-0.00026856,-0.00012553,-0.00032865,0.001737
 81,0.00050801,0.00157814,-0.00262779,-0.00180128,0.00001362,0.00000899
 ,-0.00000082,0.00035910,0.00045932,-0.00022894,0.00000695,0.00001122,0
 .00000652,-0.00002986,-0.00000170,0.00001538,-0.00000718,0.00000099,0.
 00000195,-0.00008271,-0.00028262,-0.00009499,-0.01222649,-0.00228133,0
 .01022146,0.02843697,0.05439771,0.00075723,-0.00027939,-0.00052316,0.0
 0037158,-0.00014712,-0.00007375,-0.00187568,0.00285758,-0.00534455,0.0
 0503515,0.00250127,-0.00455704,-0.00017052,0.00006410,0.00007554,0.003
 04718,0.00074789,0.00057213,0.00037052,0.00002557,-0.00005655,-0.00005
 542,-0.00005283,-0.00009877,0.01817999,0.00122981,-0.01530898,0.122350
 80,0.01894911,-0.14350185,-0.00040162,-0.00003730,0.00045852,0.0002708
 8,0.00005417,0.00015723,-0.00033341,-0.00016125,-0.00020769,-0.0001895
 2,-0.00008147,-0.00041280,-0.00012800,-0.00019364,-0.00008371,0.001392
 35,-0.00078812,-0.00068810,-0.00002195,0.00003981,0.00025321,-0.000283
 41,-0.00007084,0.00102653,-0.00009129,-0.00034197,-0.00045629,0.000011
 01,0.00001185,0.00004139,-0.00167886,-0.00039209,0.00033272,-0.0000495
 3,-0.00000955,-0.00000673,-0.00000470,0.00002867,0.00002608,-0.0000438
 4,-0.00003963,-0.00000082,-0.00012302,0.00044230,-0.00006353,-0.012217
 32,-0.00209330,0.01052372,-0.13396272,-0.02213504,0.15778578,0.0002023
 0,0.00040769,0.00033153,-0.00033596,0.00032130,-0.00308544,0.00009586,
 -0.00013276,0.00012950,0.00010085,-0.00009966,0.00010997,-0.00088398,-
 0.00334684,-0.00130318,-0.01061657,0.01131388,0.00614780,-0.00012419,-
 0.00264109,0.00176862,0.01136526,-0.00960731,-0.00408831,0.00028737,0.
 00088886,0.00013975,-0.00008755,-0.00019546,-0.00015591,-0.16404982,0.
 12105913,0.05053221,-0.00937847,0.01166286,0.00348700,-0.00079897,0.00
 089338,0.00024926,-0.00023980,-0.00003911,-0.00004124,-0.00037249,0.00
 060581,0.00013768,0.00007706,0.00001192,0.00000238,-0.00005129,-0.0000
 1209,-0.00005281,0.00002396,-0.00001879,0.00000743,-0.00002220,-0.0000
 3893,-0.00001624,0.00099096,-0.00016574,-0.00010908,0.00112545,-0.0005
 1239,-0.00027192,0.00001858,0.00047394,0.00026000,0.00020082,0.0008645
 7,0.00021851,0.00024843,0.00081632,0.00039539,-0.00034520,-0.00045447,
 -0.00017148,-0.00005270,0.00001140,-0.00011131,0.00004110,0.00002493,-
 0.00002019,0.17181965,-0.00008755,-0.00035477,-0.00001633,0.00047737,-
 0.00091619,0.00007193,-0.00000251,-0.00004004,0.00006415,0.00004168,0.
 00003456,-0.00005099,-0.00127703,-0.00482228,-0.00112880,0.00308354,-0
 .00445994,-0.00276510,-0.00131147,-0.00176326,0.00202450,0.01760152,-0
 .01194543,-0.00443645,0.00000404,-0.00002589,0.00028844,0.00011444,0.0
 0004990,-0.00001131,0.11904523,-0.17103637,-0.05153706,-0.00786084,0.0
 0890131,0.00438365,-0.00049428,0.00097604,0.00007064,0.00009626,0.0000
 6173,0.00008411,0.00029553,-0.00032042,-0.00002372,0.00002606,-0.00000
 236,-0.00000197,0.00003433,0.00006667,0.00000198,-0.00001432,0.0000076
 8,-0.00003118,0.00003096,0.00003116,0.00005912,0.00145733,-0.00034310,
 -0.00035527,-0.00008451,0.00001936,0.00039364,0.00018109,0.00035262,0.
 00008871,-0.00032935,0.00058937,-0.00027783,-0.00005896,0.00037011,0.0
 0060567,0.00020749,0.00011142,0.00006543,0.00003145,0.00000388,0.00004
 861,-0.00002755,-0.00000768,0.00002648,-0.13161219,0.18391804,-0.00003
 523,0.00079049,0.00056627,-0.00267504,0.00185517,-0.00325401,0.0000614
 8,0.00005148,-0.00007413,0.00010617,-0.00010992,0.00010840,-0.00101794
 ,-0.00156809,-0.00154471,-0.01545259,0.01743250,0.00695162,0.00189395,
 0.00198269,-0.00247814,0.00675403,-0.00453564,-0.00332358,0.00063923,0
 .00057840,0.00036567,-0.00000914,-0.00004691,0.00000485,0.04950432,-0.
 05110087,-0.06632339,0.01355348,-0.01709874,-0.00673805,0.00160358,-0.
 00115149,-0.00078557,-0.00040550,-0.00000929,-0.00013668,-0.00037778,0
 .00080221,0.00019637,-0.00009573,-0.00008519,-0.00006141,-0.00003063,-
 0.00005606,0.00004589,0.00001101,-0.00001221,0.00002996,-0.00001285,-0
 .00002591,-0.00000033,0.00059875,-0.00024611,0.00017683,0.00051551,-0.
 00047369,0.00102793,-0.00005599,-0.00061965,-0.00043456,0.00009802,0.0
 0013630,-0.00012036,-0.00034384,0.00021791,0.00037716,-0.00008163,-0.0
 0034518,-0.00005753,-0.00000544,-0.00001049,-0.00007681,0.00003413,0.0
 0001386,-0.00002389,-0.05439056,0.05369781,0.07479943,-0.00003886,-0.0
 0019475,-0.00020761,-0.00017642,-0.00007233,0.00016116,-0.00055297,-0.
 00008313,0.00067271,0.00002237,0.00013162,-0.00000397,0.00002101,0.000
 36390,0.00107781,-0.00247993,-0.00132939,0.00207566,-0.00503565,0.0010
 3797,-0.00805430,0.00069618,0.00072092,0.00010769,-0.00023569,0.000091
 69,0.00023192,0.00010956,0.00006991,0.00002738,0.01087375,-0.00935135,
 0.01344033,-0.13718020,0.07177102,-0.09964716,-0.00116896,0.00182594,0
 .00185606,0.00004500,0.00002174,0.00001270,0.00003922,0.00000712,-0.00
 003946,0.00025943,0.00020582,-0.00068937,-0.00007603,0.00014503,-0.000
 37072,0.00000865,0.00003275,-0.00007295,-0.00000556,-0.00000903,-0.000
 00262,0.00019608,0.00015058,-0.00025156,0.00046804,-0.00039624,0.00082
 306,0.00125511,-0.00050932,0.00049511,-0.00005075,-0.00001259,-0.00012
 257,0.00009317,0.00022498,-0.00001774,0.00007309,0.00003135,0.00006249
 ,0.00004161,-0.00001209,0.00001891,0.00002316,0.00004179,-0.00011295,0
 .00116915,0.00040032,-0.00063869,0.14614848,-0.00011942,-0.00003443,-0
 .00014082,-0.00019259,0.00043972,-0.00044984,-0.00034010,0.00012665,0.
 00014162,0.00005589,0.00009318,-0.00002204,0.00117106,-0.00322772,-0.0
 0309389,-0.00147836,0.00047840,0.00029485,0.01315676,-0.01321819,0.017
 39113,0.00091565,0.00046356,0.00063837,-0.00011021,0.00002408,0.000145
 75,0.00006368,0.00002629,0.00002573,0.00416821,-0.00346880,0.00425986,
 0.07068633,-0.10405427,0.08038406,0.00165371,-0.00238176,-0.00134152,-
 0.00001372,0.00002822,-0.00001811,0.00000514,0.00004457,0.00002658,0.0
 0011753,-0.00007180,-0.00043395,-0.00003294,0.00008493,-0.00013242,0.0
 0000270,0.00001709,-0.00004039,0.00001438,-0.00000085,0.00002277,-0.00
 047210,-0.00091107,0.00076087,0.00033073,-0.00012726,0.00027167,0.0003
 8012,0.00133884,-0.00043461,-0.00048114,-0.00032586,-0.00020254,-0.000
 22242,0.00010755,-0.00017589,0.00004268,0.00005123,0.00009347,0.000022
 63,-0.00000052,0.00002019,-0.00000248,0.00002426,-0.00004581,-0.000351
 05,0.00068187,-0.00023949,-0.07834685,0.11386044,0.00000494,0.00002112
 ,0.00002031,0.00013822,-0.00073987,-0.00021431,-0.00005371,-0.00013214
 ,0.00023204,0.00009602,-0.00001822,0.00000764,0.00074791,-0.00126563,-
 0.00032236,0.00523262,0.00100417,-0.00276934,0.00842502,-0.00846836,0.
 00941220,-0.00089615,-0.00089431,0.00053133,0.00038117,0.00015100,0.00
 036398,-0.00007251,-0.00013140,-0.00002890,-0.01712482,0.01228846,-0.0
 1946229,-0.09917587,0.08105747,-0.15240348,0.00103455,-0.00128177,-0.0
 0068124,-0.00008594,0.00004179,-0.00000183,0.00000283,0.00005956,0.000
 12217,-0.00003131,0.00002651,-0.00028486,-0.00007268,0.00004870,-0.000
 04860,0.00002765,0.00001652,-0.00001652,-0.00003040,0.00001512,0.00001
 392,-0.00015398,-0.00023458,0.00021326,-0.00086113,0.00097771,-0.00147
 392,0.00071934,0.00030028,0.00151832,0.00023279,0.00041358,0.00052976,
 0.00018339,-0.00016265,0.00014681,-0.00006913,-0.00009853,0.00001982,-
 0.00012055,0.00001162,-0.00004992,-0.00000236,0.00000947,0.00007197,-0
 .00011741,-0.00086701,0.00069324,0.10593489,-0.08545281,0.16867016,-0.
 00014176,0.00003821,0.00000445,0.00017238,0.00006399,-0.00011605,-0.00
 164955,0.00102768,-0.00104354,-0.00000214,0.00004913,-0.00002689,-0.00
 050413,0.00106160,0.00028010,0.00048038,0.00074863,-0.00096642,0.00745
 720,0.00742795,0.00289730,-0.00197963,-0.00025895,0.00340620,0.0003024
 4,-0.00061032,0.00040283,0.00001532,0.00014053,0.00018075,-0.01034195,
 -0.00883896,-0.00474708,-0.20477051,-0.12416595,-0.04639220,0.00186181
 ,-0.00106299,-0.00046416,0.00002710,0.00001067,-0.00000543,-0.00002788
 ,-0.00000166,-0.00004478,-0.00192258,0.00195562,-0.00220816,-0.0000965
 5,0.00013319,-0.00025219,0.00002228,0.00004830,-0.00001084,0.00001218,
 0.00000817,0.00002228,0.00014543,0.00016247,-0.00029460,-0.00007314,0.
 00006245,-0.00013046,-0.00014341,0.00112440,0.00096581,0.00018519,0.00
 039488,0.00015065,0.00005656,-0.00109205,-0.00034209,0.00007204,0.0001
 8010,0.00018067,0.00002815,-0.00002813,0.00005454,0.00000948,-0.000002
 96,-0.00000241,-0.00048860,-0.00003547,0.00031980,-0.01433417,-0.01073
 719,-0.00431935,0.22547512,-0.00026330,-0.00029717,-0.00029545,-0.0003
 9288,-0.00020513,-0.00011864,-0.00015423,-0.00007189,0.00125487,0.0002
 1308,0.00021449,-0.00002229,-0.00008179,-0.00151452,-0.00090051,-0.000
 69601,0.00040454,-0.00051932,-0.02163278,-0.01308051,-0.00557194,-0.00
 060729,-0.00087968,0.00161508,-0.00025559,0.00020493,0.00071634,0.0002
 0975,0.00000436,-0.00006361,-0.00334093,-0.00414984,-0.00053351,-0.120
 53170,-0.13882925,-0.03604217,-0.00022225,0.00453205,0.00145983,0.0000
 1639,0.00005130,0.00000916,0.00011564,0.00008859,0.00008662,0.00193000
 ,-0.00036160,0.00002899,-0.00013119,0.00023591,-0.00049399,0.00002400,
 0.00007229,-0.00015047,0.00001296,-0.00000062,0.00005467,-0.00014371,-
 0.00055356,0.00066813,0.00013056,0.00009361,-0.00001025,0.00088778,-0.
 00307375,-0.00074647,0.00008093,-0.00003372,-0.00021369,-0.00040399,-0
 .00039459,-0.00026989,0.00004585,-0.00002245,0.00002680,0.00001846,-0.
 00001036,0.00002587,0.00001022,0.00007280,-0.00012896,-0.00017033,-0.0
 0010993,0.00024332,0.01282353,0.00992520,0.00322099,0.13229404,0.14818
 378,0.00011179,0.00011772,0.00003647,-0.00006368,0.00008344,0.00005565
 ,-0.00125793,0.00059689,-0.00058062,-0.00005659,-0.00005996,0.00005489
 ,0.00039685,-0.00042167,-0.00056322,-0.00046037,-0.00020541,0.00193647
 ,-0.01052463,-0.00645941,-0.00563694,0.00332157,0.00189984,-0.00483926
 ,0.00001072,0.00024344,-0.00009232,-0.00005348,-0.00001149,-0.00011498
 ,0.01938573,0.01654182,0.00865574,-0.04749080,-0.03771543,-0.05786694,
 0.00007323,0.00220470,0.00110766,-0.00001619,-0.00009089,0.00000310,-0
 .00000289,-0.00006597,0.00004126,-0.00125605,0.00099369,0.00010156,-0.
 00003599,0.00000307,-0.00003151,0.00001357,-0.00003764,0.00002621,0.00
 001395,-0.00003632,-0.00001781,-0.00016600,-0.00002207,0.00017879,0.00
 015382,-0.00029318,0.00039035,0.00125157,-0.00234198,-0.00075600,0.000
 18170,-0.00004804,0.00007885,0.00060803,0.00173433,0.00058029,-0.00008
 592,-0.00025229,-0.00035822,0.00001404,-0.00001529,0.00003178,-0.00000
 794,-0.00004801,0.00007160,0.00011981,-0.00038923,-0.00006754,-0.01654
 965,-0.01249200,-0.00471368,0.05244105,0.03726499,0.06264808,-0.000071
 72,0.00010030,0.00014026,0.00005568,0.00032053,-0.00030542,-0.00011006
 ,-0.00004690,-0.00019794,0.00009335,-0.00010020,0.00002050,-0.00684229
 ,0.00275483,-0.00064868,0.00006088,0.00002145,-0.00000586,-0.01256374,
 -0.02162720,0.03933012,-0.00068037,-0.00148600,0.00160502,-0.00001163,
 -0.00003646,-0.00003679,0.00002265,0.00000434,-0.00005091,-0.00024763,
 -0.00038531,0.00016366,0.00014875,0.00008186,0.00008555,-0.05159414,-0
 .01819734,0.05075119,0.00020594,-0.00017319,0.00008517,-0.00000808,-0.
 00001408,-0.00013233,0.00035500,0.00039838,-0.00008353,-0.00009649,0.0
 0000279,-0.00023980,0.00000343,0.00000590,-0.00002565,-0.00003179,0.00
 000025,-0.00002293,0.00002964,-0.00013705,-0.00009222,-0.00000633,0.00
 001671,-0.00008333,0.00119380,-0.00088586,-0.00074229,-0.00010345,-0.0
 0001459,-0.00009731,-0.00058641,0.00041631,0.00013474,0.00002305,-0.00
 001704,-0.00001399,-0.00001477,-0.00002155,-0.00002415,0.00001301,-0.0
 0000942,-0.00002031,0.00008102,0.00006738,-0.00006490,-0.00020787,0.00
 011338,0.00002597,0.00015297,0.00021479,-0.00006930,0.07073762,0.00011
 556,-0.00012743,0.00024553,0.00016444,0.00011357,-0.00015549,-0.000278
 02,-0.00015083,-0.00060307,-0.00008345,-0.00001460,0.00001390,-0.00186
 978,0.00070385,0.00005495,-0.00010723,0.00000126,0.00003835,0.00440882
 ,0.00002550,-0.00428874,0.00005594,-0.00046164,0.00046391,0.00009291,-
 0.00005016,-0.00001095,-0.00001897,0.00000548,0.00000269,0.00013915,-0
 .00019912,-0.00037584,0.00077703,0.00072153,0.00005132,-0.04335160,-0.
 12224755,0.22217326,-0.00006327,0.00005772,0.00001864,-0.00003707,-0.0
 0005440,-0.00004630,0.00009158,0.00023376,-0.00039756,-0.00002137,0.00
 002600,-0.00008882,-0.00001567,-0.00002707,0.00004117,0.00001508,-0.00
 000515,-0.00000673,0.00020440,-0.00003728,-0.00011322,0.00000827,-0.00
 004324,0.00004724,0.00117452,0.00046438,-0.00008605,-0.00012766,0.0000
 5021,-0.00005805,-0.00007622,0.00006389,0.00001424,0.00000483,-0.00002
 140,-0.00002808,0.00000583,0.00000547,0.00000484,-0.00000496,-0.000009
 12,0.00001971,0.00004221,-0.00002804,-0.00006722,0.00021909,0.00000645
 ,0.00008322,-0.00009737,-0.00049529,-0.00067763,0.03863300,0.12149325,
 -0.00001936,0.00002697,0.00033413,-0.00042464,-0.00034375,0.00042917,-
 0.00022363,-0.00002541,-0.00037370,-0.00000138,-0.00010038,0.00005198,
 0.00100813,-0.00132015,0.00158949,-0.00005298,0.00006719,-0.00006042,-
 0.00488209,0.00403514,-0.00633871,-0.00005379,0.00047571,0.00001412,0.
 00002837,-0.00011308,-0.00006236,0.00000525,-0.00000964,-0.00003855,0.
 00001679,0.00027360,-0.00037891,-0.00024932,0.00010821,0.00015043,0.09
 579769,0.21439367,-0.39765822,0.00009342,-0.00012977,0.00001307,0.0000
 3673,-0.00001813,0.00011386,0.00006358,0.00012017,-0.00096775,0.000011
 88,-0.00003404,-0.00012019,-0.00001808,-0.00002164,0.00001735,0.000015
 05,-0.00000025,-0.00000775,0.00005170,-0.00001484,-0.00000133,-0.00000
 139,-0.00005821,0.00005683,-0.00166482,-0.00032479,0.00251033,0.000081
 63,-0.00002158,-0.00002228,0.00000571,-0.00020415,0.00007417,0.0000082
 0,-0.00002048,-0.00003308,0.00001547,-0.00000350,0.00000081,-0.0000054
 9,-0.00002974,0.00001179,-0.00010173,-0.00008260,0.00015706,-0.0002165
 7,0.00023919,-0.00009568,0.00006021,-0.00059449,-0.00035970,-0.0893845
 4,-0.21626922,0.40099404\\0.00000286,-0.00000185,-0.00000177,-0.000004
 50,-0.00000124,-0.00000388,0.00000743,0.00000220,0.00000224,0.00000021
 ,0.00000549,-0.00000171,0.00000541,-0.00000294,0.00000492,-0.00000012,
 0.00000153,0.00000363,0.00000336,-0.00000312,0.00000223,-0.00000276,0.
 00000341,-0.00000307,-0.00000200,0.00000376,-0.00000085,0.00000028,0.0
 0000126,0.00000299,-0.00000276,-0.00000126,0.00000220,-0.00000309,-0.0
 0000702,0.00000056,-0.00000693,-0.00000410,0.00000356,0.00000061,0.000
 00134,-0.00000008,0.00000217,0.00000184,0.00000225,-0.00000125,-0.0000
 0028,-0.00000358,-0.00000353,0.00000094,-0.00000551,0.00000315,0.00000
 314,0.00000142,0.00000413,0.00000241,-0.00000078,-0.00000107,-0.000001
 76,0.00000194,0.00000213,0.00000184,-0.00000010,-0.00000437,-0.0000039
 4,-0.00000080,0.00000044,-0.00000382,0.00000623,-0.00000101,-0.0000025
 7,0.00000492,0.00000121,-0.00000066,-0.00000239,0.00000099,0.00000365,
 -0.00000351,0.00000577,0.00000452,-0.00000245,0.00000058,-0.00000154,-
 0.00000013,-0.00000401,-0.00000042,-0.00000208,-0.00000108,0.00000039,
 -0.00000162,-0.00000228,-0.00000120,-0.00000479\\\@


 One man practicing sportsmanship is far better than 50 preaching it.
 -- Knute K. Rockne
 Job cpu time:       0 days  7 hours 24 minutes 49.3 seconds.
 File lengths (MBytes):  RWF=    442 Int=      0 D2E=      0 Chk=     12 Scr=      1
 Normal termination of Gaussian 09 at Fri Feb 20 11:57:38 2015.
