 Entering Gaussian System, Link 0=g09
 Input=freq-b971_112-95-8.gau
 Output=freq-b971_112-95-8.log
 Initial command:
 /opt/g09/l1.exe "/scratch/pb556/g09_run/add_hco//Gau-14052.inp" -scrdir="/scratch/pb556/g09_run/add_hco//"
 Entering Link 1 = /opt/g09/l1.exe PID=     14061.
  
 Copyright (c) 1988,1990,1992,1993,1995,1998,2003,2009,2013,
            Gaussian, Inc.  All Rights Reserved.
  
 This is part of the Gaussian(R) 09 program.  It is based on
 the Gaussian(R) 03 system (copyright 2003, Gaussian, Inc.),
 the Gaussian(R) 98 system (copyright 1998, Gaussian, Inc.),
 the Gaussian(R) 94 system (copyright 1995, Gaussian, Inc.),
 the Gaussian 92(TM) system (copyright 1992, Gaussian, Inc.),
 the Gaussian 90(TM) system (copyright 1990, Gaussian, Inc.),
 the Gaussian 88(TM) system (copyright 1988, Gaussian, Inc.),
 the Gaussian 86(TM) system (copyright 1986, Carnegie Mellon
 University), and the Gaussian 82(TM) system (copyright 1983,
 Carnegie Mellon University). Gaussian is a federally registered
 trademark of Gaussian, Inc.
  
 This software contains proprietary and confidential information,
 including trade secrets, belonging to Gaussian, Inc.
  
 This software is provided under written license and may be
 used, copied, transmitted, or stored only in accord with that
 written license.
  
 The following legend is applicable only to US Government
 contracts under FAR:
  
                    RESTRICTED RIGHTS LEGEND
  
 Use, reproduction and disclosure by the US Government is
 subject to restrictions as set forth in subparagraphs (a)
 and (c) of the Commercial Computer Software - Restricted
 Rights clause in FAR 52.227-19.
  
 Gaussian, Inc.
 340 Quinnipiac St., Bldg. 40, Wallingford CT 06492
  
  
 ---------------------------------------------------------------
 Warning -- This program may not be used in any manner that
 competes with the business of Gaussian, Inc. or will provide
 assistance to any competitor of Gaussian, Inc.  The licensee
 of this program is prohibited from giving any competitor of
 Gaussian, Inc. access to this program.  By using this program,
 the user acknowledges that Gaussian, Inc. is engaged in the
 business of creating and licensing software in the field of
 computational chemistry and represents and warrants to the
 licensee that it is not a competitor of Gaussian, Inc. and that
 it will not use this program in any manner prohibited above.
 ---------------------------------------------------------------
  

 Cite this work as:
 Gaussian 09, Revision D.01,
 M. J. Frisch, G. W. Trucks, H. B. Schlegel, G. E. Scuseria, 
 M. A. Robb, J. R. Cheeseman, G. Scalmani, V. Barone, B. Mennucci, 
 G. A. Petersson, H. Nakatsuji, M. Caricato, X. Li, H. P. Hratchian, 
 A. F. Izmaylov, J. Bloino, G. Zheng, J. L. Sonnenberg, M. Hada, 
 M. Ehara, K. Toyota, R. Fukuda, J. Hasegawa, M. Ishida, T. Nakajima, 
 Y. Honda, O. Kitao, H. Nakai, T. Vreven, J. A. Montgomery, Jr., 
 J. E. Peralta, F. Ogliaro, M. Bearpark, J. J. Heyd, E. Brothers, 
 K. N. Kudin, V. N. Staroverov, T. Keith, R. Kobayashi, J. Normand, 
 K. Raghavachari, A. Rendell, J. C. Burant, S. S. Iyengar, J. Tomasi, 
 M. Cossi, N. Rega, J. M. Millam, M. Klene, J. E. Knox, J. B. Cross, 
 V. Bakken, C. Adamo, J. Jaramillo, R. Gomperts, R. E. Stratmann, 
 O. Yazyev, A. J. Austin, R. Cammi, C. Pomelli, J. W. Ochterski, 
 R. L. Martin, K. Morokuma, V. G. Zakrzewski, G. A. Voth, 
 P. Salvador, J. J. Dannenberg, S. Dapprich, A. D. Daniels, 
 O. Farkas, J. B. Foresman, J. V. Ortiz, J. Cioslowski, 
 and D. J. Fox, Gaussian, Inc., Wallingford CT, 2013.
 
 ******************************************
 Gaussian 09:  ES64L-G09RevD.01 24-Apr-2013
                22-Feb-2015 
 ******************************************
 %NProcShared=8
 Will use up to    8 processors via shared memory.
 %Mem=500MW
 ----------------------------------------------------------------------
 #p rB971/6-311+G(d,p) Opt=(Tight, CalcAll) Freq GFInput Population=Non
 e Integral(Grid=UltraFine) Guess=MIX NoSymmetry
 ----------------------------------------------------------------------
 1/7=10,10=4,14=-1,18=20,19=15,26=4,38=1/1,3;
 2/9=110,12=2,15=1,17=6,18=5,40=1/2;
 3/5=4,6=6,7=111,11=2,16=1,24=10,25=1,30=1,71=2,74=-20,75=-5,116=1,140=1/1,2,3;
 4/13=-1/1;
 5/5=2,38=5/2;
 8/6=4,10=90,11=11/1;
 11/6=1,8=1,9=11,15=111,16=1,31=1/1,2,10;
 10/6=1,31=1/2;
 7/10=1,25=1,30=1/1,2,3,16;
 1/7=10,10=4,14=-1,18=20,19=15,26=4/3(3);
 2/9=110,15=1/2;
 7/8=1,9=1,25=1,30=1,44=-1/16;
 99//99;
 2/9=110,15=1/2;
 3/5=4,6=6,7=111,11=2,16=1,25=1,30=1,71=2,74=-20,75=-5,116=1,140=1/1,2,3;
 4/5=5,16=3,69=1/1;
 5/5=2,38=5/2;
 8/6=4,10=90,11=11/1;
 11/6=1,8=1,9=11,15=111,16=1,31=1/1,2,10;
 10/6=1,31=1/2;
 7/10=1,25=1,30=1/1,2,3,16;
 1/7=10,10=4,14=-1,18=20,19=15,26=4/3(-8);
 2/9=110,15=1/2;
 7/8=1,9=1,25=1,30=1,44=-1/16;
 99//99;
 Leave Link    1 at Sun Feb 22 17:33:16 2015, MaxMem=   524288000 cpu:         0.5
 (Enter /opt/g09/l101.exe)
 ----------------------
 freq-b971_112-95-8.gau
 ----------------------
 Symbolic Z-matrix:
 Charge =  0 Multiplicity = 1
 C                     8.37805   2.66225   7.08835 
 C                     6.86038   2.54085   6.85081 
 C                     6.04487   3.75047   7.33857 
 C                     9.06318   3.77221   6.27262 
 C                     4.51296   3.58574   7.28348 
 C                     10.58167   3.88762   6.50411 
 C                     3.90875   3.41391   5.86818 
 C                     11.40517   2.69073   6.00135 
 C                     3.69543   1.95094   5.43652 
 C                     12.91962   2.88501   6.17415 
 C                     3.193     1.77478   3.99086 
 C                     13.74392   1.69002   5.66831 
 C                     1.78315   2.33344   3.73102 
 C                     15.27078   1.87909   5.74354 
 C                     1.27837   2.1407    2.28868 
 C                     15.83129   1.96673   7.17327 
 C                     1.02507   0.67999   1.88121 
 C                     17.35986   2.14306   7.24664 
 C                     0.44894   0.54982   0.46459 
 C                     18.16477   0.93996   6.73261 
 H                     8.84217   1.69681   6.85056 
 H                     8.56343   2.83639   8.15908 
 H                     6.68197   2.37623   5.77914 
 H                     6.49613   1.64023   7.36485 
 H                     6.33177   3.96577   8.3783 
 H                     6.31823   4.64155   6.75721 
 H                     8.87226   3.60263   5.20211 
 H                     8.60317   4.73829   6.51547 
 H                     4.07066   4.47352   7.75276 
 H                     4.21439   2.73404   7.91207 
 H                     10.77312   4.03493   7.57734 
 H                     10.94474   4.79617   6.00377 
 H                     4.55247   3.92028   5.1331 
 H                     2.94489   3.93538   5.8313 
 H                     11.102    1.77638   6.52882 
 H                     11.18037   2.5206    4.93782 
 H                     2.98052   1.47888   6.12679 
 H                     4.63433   1.39585   5.54947 
 H                     13.23266   3.79188   5.63548 
 H                     13.13519   3.06898   7.2352 
 H                     3.90261   2.25526   3.30024 
 H                     3.21001   0.70444   3.74947 
 H                     13.46604   1.49061   4.62397 
 H                     13.46325   0.78961   6.23457 
 H                     1.07454   1.86122   4.42821 
 H                     1.7683    3.40621   3.96061 
 H                     15.55039   2.78867   5.19081 
 H                     15.74766   1.04285   5.21679 
 H                     0.34266   2.70383   2.16503 
 H                     1.99836   2.59173   1.58957 
 H                     15.54592   1.05985   7.72779 
 H                     15.36084   2.80753   7.69837 
 H                     1.95783   0.10564   1.944 
 H                     0.33283   0.22217   2.60193 
 H                     17.64581   3.04259   6.6835 
 H                     17.63951   2.33628   8.29042 
 H                     0.27463  -0.49803   0.19733 
 H                    -0.50649   1.08058   0.37626 
 H                     1.13305   0.97432  -0.27984 
 H                     17.89362   0.02626   7.27558 
 H                     19.23991   1.10025   6.86793 
 H                     17.99284   0.75683   5.66672 
 
 NAtoms=     62 NQM=       62 NQMF=       0 NMMI=      0 NMMIF=      0
                NMic=       0 NMicF=      0.
                    Isotopes and Nuclear Properties:
 (Nuclear quadrupole moments (NQMom) in fm**2, nuclear magnetic moments (NMagM)
  in nuclear magnetons)

  Atom         1           2           3           4           5           6           7           8           9          10
 IAtWgt=          12          12          12          12          12          12          12          12          12          12
 AtmWgt=  12.0000000  12.0000000  12.0000000  12.0000000  12.0000000  12.0000000  12.0000000  12.0000000  12.0000000  12.0000000
 NucSpn=           0           0           0           0           0           0           0           0           0           0
 AtZEff=   0.0000000   0.0000000   0.0000000   0.0000000   0.0000000   0.0000000   0.0000000   0.0000000   0.0000000   0.0000000
 NQMom=    0.0000000   0.0000000   0.0000000   0.0000000   0.0000000   0.0000000   0.0000000   0.0000000   0.0000000   0.0000000
 NMagM=    0.0000000   0.0000000   0.0000000   0.0000000   0.0000000   0.0000000   0.0000000   0.0000000   0.0000000   0.0000000
 AtZNuc=   6.0000000   6.0000000   6.0000000   6.0000000   6.0000000   6.0000000   6.0000000   6.0000000   6.0000000   6.0000000

  Atom        11          12          13          14          15          16          17          18          19          20
 IAtWgt=          12          12          12          12          12          12          12          12          12          12
 AtmWgt=  12.0000000  12.0000000  12.0000000  12.0000000  12.0000000  12.0000000  12.0000000  12.0000000  12.0000000  12.0000000
 NucSpn=           0           0           0           0           0           0           0           0           0           0
 AtZEff=   0.0000000   0.0000000   0.0000000   0.0000000   0.0000000   0.0000000   0.0000000   0.0000000   0.0000000   0.0000000
 NQMom=    0.0000000   0.0000000   0.0000000   0.0000000   0.0000000   0.0000000   0.0000000   0.0000000   0.0000000   0.0000000
 NMagM=    0.0000000   0.0000000   0.0000000   0.0000000   0.0000000   0.0000000   0.0000000   0.0000000   0.0000000   0.0000000
 AtZNuc=   6.0000000   6.0000000   6.0000000   6.0000000   6.0000000   6.0000000   6.0000000   6.0000000   6.0000000   6.0000000

  Atom        21          22          23          24          25          26          27          28          29          30
 IAtWgt=           1           1           1           1           1           1           1           1           1           1
 AtmWgt=   1.0078250   1.0078250   1.0078250   1.0078250   1.0078250   1.0078250   1.0078250   1.0078250   1.0078250   1.0078250
 NucSpn=           1           1           1           1           1           1           1           1           1           1
 AtZEff=   0.0000000   0.0000000   0.0000000   0.0000000   0.0000000   0.0000000   0.0000000   0.0000000   0.0000000   0.0000000
 NQMom=    0.0000000   0.0000000   0.0000000   0.0000000   0.0000000   0.0000000   0.0000000   0.0000000   0.0000000   0.0000000
 NMagM=    2.7928460   2.7928460   2.7928460   2.7928460   2.7928460   2.7928460   2.7928460   2.7928460   2.7928460   2.7928460
 AtZNuc=   1.0000000   1.0000000   1.0000000   1.0000000   1.0000000   1.0000000   1.0000000   1.0000000   1.0000000   1.0000000

  Atom        31          32          33          34          35          36          37          38          39          40
 IAtWgt=           1           1           1           1           1           1           1           1           1           1
 AtmWgt=   1.0078250   1.0078250   1.0078250   1.0078250   1.0078250   1.0078250   1.0078250   1.0078250   1.0078250   1.0078250
 NucSpn=           1           1           1           1           1           1           1           1           1           1
 AtZEff=   0.0000000   0.0000000   0.0000000   0.0000000   0.0000000   0.0000000   0.0000000   0.0000000   0.0000000   0.0000000
 NQMom=    0.0000000   0.0000000   0.0000000   0.0000000   0.0000000   0.0000000   0.0000000   0.0000000   0.0000000   0.0000000
 NMagM=    2.7928460   2.7928460   2.7928460   2.7928460   2.7928460   2.7928460   2.7928460   2.7928460   2.7928460   2.7928460
 AtZNuc=   1.0000000   1.0000000   1.0000000   1.0000000   1.0000000   1.0000000   1.0000000   1.0000000   1.0000000   1.0000000

  Atom        41          42          43          44          45          46          47          48          49          50
 IAtWgt=           1           1           1           1           1           1           1           1           1           1
 AtmWgt=   1.0078250   1.0078250   1.0078250   1.0078250   1.0078250   1.0078250   1.0078250   1.0078250   1.0078250   1.0078250
 NucSpn=           1           1           1           1           1           1           1           1           1           1
 AtZEff=   0.0000000   0.0000000   0.0000000   0.0000000   0.0000000   0.0000000   0.0000000   0.0000000   0.0000000   0.0000000
 NQMom=    0.0000000   0.0000000   0.0000000   0.0000000   0.0000000   0.0000000   0.0000000   0.0000000   0.0000000   0.0000000
 NMagM=    2.7928460   2.7928460   2.7928460   2.7928460   2.7928460   2.7928460   2.7928460   2.7928460   2.7928460   2.7928460
 AtZNuc=   1.0000000   1.0000000   1.0000000   1.0000000   1.0000000   1.0000000   1.0000000   1.0000000   1.0000000   1.0000000

  Atom        51          52          53          54          55          56          57          58          59          60
 IAtWgt=           1           1           1           1           1           1           1           1           1           1
 AtmWgt=   1.0078250   1.0078250   1.0078250   1.0078250   1.0078250   1.0078250   1.0078250   1.0078250   1.0078250   1.0078250
 NucSpn=           1           1           1           1           1           1           1           1           1           1
 AtZEff=   0.0000000   0.0000000   0.0000000   0.0000000   0.0000000   0.0000000   0.0000000   0.0000000   0.0000000   0.0000000
 NQMom=    0.0000000   0.0000000   0.0000000   0.0000000   0.0000000   0.0000000   0.0000000   0.0000000   0.0000000   0.0000000
 NMagM=    2.7928460   2.7928460   2.7928460   2.7928460   2.7928460   2.7928460   2.7928460   2.7928460   2.7928460   2.7928460
 AtZNuc=   1.0000000   1.0000000   1.0000000   1.0000000   1.0000000   1.0000000   1.0000000   1.0000000   1.0000000   1.0000000

  Atom        61          62
 IAtWgt=           1           1
 AtmWgt=   1.0078250   1.0078250
 NucSpn=           1           1
 AtZEff=   0.0000000   0.0000000
 NQMom=    0.0000000   0.0000000
 NMagM=    2.7928460   2.7928460
 AtZNuc=   1.0000000   1.0000000
 Leave Link  101 at Sun Feb 22 17:33:16 2015, MaxMem=   524288000 cpu:         2.2
 (Enter /opt/g09/l103.exe)

 GradGradGradGradGradGradGradGradGradGradGradGradGradGradGradGradGradGrad
 Berny optimization.
 Initialization pass.
                           ----------------------------
                           !    Initial Parameters    !
                           ! (Angstroms and Degrees)  !
 --------------------------                            --------------------------
 ! Name  Definition              Value          Derivative Info.                !
 --------------------------------------------------------------------------------
 ! R1    R(1,2)                  1.5409         calculate D2E/DX2 analytically  !
 ! R2    R(1,4)                  1.5385         calculate D2E/DX2 analytically  !
 ! R3    R(1,21)                 1.0973         calculate D2E/DX2 analytically  !
 ! R4    R(1,22)                 1.1005         calculate D2E/DX2 analytically  !
 ! R5    R(2,3)                  1.5382         calculate D2E/DX2 analytically  !
 ! R6    R(2,23)                 1.0988         calculate D2E/DX2 analytically  !
 ! R7    R(2,24)                 1.0991         calculate D2E/DX2 analytically  !
 ! R8    R(3,5)                  1.5417         calculate D2E/DX2 analytically  !
 ! R9    R(3,25)                 1.0999         calculate D2E/DX2 analytically  !
 ! R10   R(3,26)                 1.0985         calculate D2E/DX2 analytically  !
 ! R11   R(4,6)                  1.5404         calculate D2E/DX2 analytically  !
 ! R12   R(4,27)                 1.1005         calculate D2E/DX2 analytically  !
 ! R13   R(4,28)                 1.0972         calculate D2E/DX2 analytically  !
 ! R14   R(5,7)                  1.5484         calculate D2E/DX2 analytically  !
 ! R15   R(5,29)                 1.0973         calculate D2E/DX2 analytically  !
 ! R16   R(5,30)                 1.0998         calculate D2E/DX2 analytically  !
 ! R17   R(6,8)                  1.5374         calculate D2E/DX2 analytically  !
 ! R18   R(6,31)                 1.1001         calculate D2E/DX2 analytically  !
 ! R19   R(6,32)                 1.0989         calculate D2E/DX2 analytically  !
 ! R20   R(7,9)                  1.5402         calculate D2E/DX2 analytically  !
 ! R21   R(7,33)                 1.1005         calculate D2E/DX2 analytically  !
 ! R22   R(7,34)                 1.0965         calculate D2E/DX2 analytically  !
 ! R23   R(8,10)                 1.5366         calculate D2E/DX2 analytically  !
 ! R24   R(8,35)                 1.0983         calculate D2E/DX2 analytically  !
 ! R25   R(8,36)                 1.1003         calculate D2E/DX2 analytically  !
 ! R26   R(9,11)                 1.5406         calculate D2E/DX2 analytically  !
 ! R27   R(9,37)                 1.1002         calculate D2E/DX2 analytically  !
 ! R28   R(9,38)                 1.0965         calculate D2E/DX2 analytically  !
 ! R29   R(10,12)                1.5373         calculate D2E/DX2 analytically  !
 ! R30   R(10,39)                1.1003         calculate D2E/DX2 analytically  !
 ! R31   R(10,40)                1.0982         calculate D2E/DX2 analytically  !
 ! R32   R(11,13)                1.5386         calculate D2E/DX2 analytically  !
 ! R33   R(11,41)                1.1006         calculate D2E/DX2 analytically  !
 ! R34   R(11,42)                1.0974         calculate D2E/DX2 analytically  !
 ! R35   R(12,14)                1.5404         calculate D2E/DX2 analytically  !
 ! R36   R(12,43)                1.0989         calculate D2E/DX2 analytically  !
 ! R37   R(12,44)                1.1001         calculate D2E/DX2 analytically  !
 ! R38   R(13,15)                1.5402         calculate D2E/DX2 analytically  !
 ! R39   R(13,45)                1.1005         calculate D2E/DX2 analytically  !
 ! R40   R(13,46)                1.0972         calculate D2E/DX2 analytically  !
 ! R41   R(14,16)                1.5382         calculate D2E/DX2 analytically  !
 ! R42   R(14,47)                1.1005         calculate D2E/DX2 analytically  !
 ! R43   R(14,48)                1.0974         calculate D2E/DX2 analytically  !
 ! R44   R(15,17)                1.5375         calculate D2E/DX2 analytically  !
 ! R45   R(15,49)                1.0991         calculate D2E/DX2 analytically  !
 ! R46   R(15,50)                1.1003         calculate D2E/DX2 analytically  !
 ! R47   R(16,18)                1.5405         calculate D2E/DX2 analytically  !
 ! R48   R(16,51)                1.1006         calculate D2E/DX2 analytically  !
 ! R49   R(16,52)                1.0973         calculate D2E/DX2 analytically  !
 ! R50   R(17,19)                1.5348         calculate D2E/DX2 analytically  !
 ! R51   R(17,53)                1.0972         calculate D2E/DX2 analytically  !
 ! R52   R(17,54)                1.0992         calculate D2E/DX2 analytically  !
 ! R53   R(18,20)                1.5361         calculate D2E/DX2 analytically  !
 ! R54   R(18,55)                1.0991         calculate D2E/DX2 analytically  !
 ! R55   R(18,56)                1.0977         calculate D2E/DX2 analytically  !
 ! R56   R(19,57)                1.0954         calculate D2E/DX2 analytically  !
 ! R57   R(19,58)                1.0965         calculate D2E/DX2 analytically  !
 ! R58   R(19,59)                1.0965         calculate D2E/DX2 analytically  !
 ! R59   R(20,60)                1.0969         calculate D2E/DX2 analytically  !
 ! R60   R(20,61)                1.0954         calculate D2E/DX2 analytically  !
 ! R61   R(20,62)                1.0951         calculate D2E/DX2 analytically  !
 ! A1    A(2,1,4)              114.4386         calculate D2E/DX2 analytically  !
 ! A2    A(2,1,21)             108.2922         calculate D2E/DX2 analytically  !
 ! A3    A(2,1,22)             109.1686         calculate D2E/DX2 analytically  !
 ! A4    A(4,1,21)             109.3611         calculate D2E/DX2 analytically  !
 ! A5    A(4,1,22)             109.0683         calculate D2E/DX2 analytically  !
 ! A6    A(21,1,22)            106.1895         calculate D2E/DX2 analytically  !
 ! A7    A(1,2,3)              114.288          calculate D2E/DX2 analytically  !
 ! A8    A(1,2,23)             108.7876         calculate D2E/DX2 analytically  !
 ! A9    A(1,2,24)             108.5941         calculate D2E/DX2 analytically  !
 ! A10   A(3,2,23)             109.9371         calculate D2E/DX2 analytically  !
 ! A11   A(3,2,24)             108.6849         calculate D2E/DX2 analytically  !
 ! A12   A(23,2,24)            106.2342         calculate D2E/DX2 analytically  !
 ! A13   A(2,3,5)              115.5586         calculate D2E/DX2 analytically  !
 ! A14   A(2,3,25)             108.3847         calculate D2E/DX2 analytically  !
 ! A15   A(2,3,26)             109.7636         calculate D2E/DX2 analytically  !
 ! A16   A(5,3,25)             108.2934         calculate D2E/DX2 analytically  !
 ! A17   A(5,3,26)             108.3622         calculate D2E/DX2 analytically  !
 ! A18   A(25,3,26)            106.0568         calculate D2E/DX2 analytically  !
 ! A19   A(1,4,6)              114.4177         calculate D2E/DX2 analytically  !
 ! A20   A(1,4,27)             109.1069         calculate D2E/DX2 analytically  !
 ! A21   A(1,4,28)             109.3406         calculate D2E/DX2 analytically  !
 ! A22   A(6,4,27)             109.1923         calculate D2E/DX2 analytically  !
 ! A23   A(6,4,28)             108.3044         calculate D2E/DX2 analytically  !
 ! A24   A(27,4,28)            106.1547         calculate D2E/DX2 analytically  !
 ! A25   A(3,5,7)              115.6097         calculate D2E/DX2 analytically  !
 ! A26   A(3,5,29)             107.3852         calculate D2E/DX2 analytically  !
 ! A27   A(3,5,30)             109.3936         calculate D2E/DX2 analytically  !
 ! A28   A(7,5,29)             108.8687         calculate D2E/DX2 analytically  !
 ! A29   A(7,5,30)             109.3005         calculate D2E/DX2 analytically  !
 ! A30   A(29,5,30)            105.8239         calculate D2E/DX2 analytically  !
 ! A31   A(4,6,8)              114.8709         calculate D2E/DX2 analytically  !
 ! A32   A(4,6,31)             109.1601         calculate D2E/DX2 analytically  !
 ! A33   A(4,6,32)             108.6156         calculate D2E/DX2 analytically  !
 ! A34   A(8,6,31)             109.2735         calculate D2E/DX2 analytically  !
 ! A35   A(8,6,32)             108.5297         calculate D2E/DX2 analytically  !
 ! A36   A(31,6,32)            106.0204         calculate D2E/DX2 analytically  !
 ! A37   A(5,7,9)              114.5585         calculate D2E/DX2 analytically  !
 ! A38   A(5,7,33)             109.3422         calculate D2E/DX2 analytically  !
 ! A39   A(5,7,34)             108.7216         calculate D2E/DX2 analytically  !
 ! A40   A(9,7,33)             109.3216         calculate D2E/DX2 analytically  !
 ! A41   A(9,7,34)             108.6969         calculate D2E/DX2 analytically  !
 ! A42   A(33,7,34)            105.8358         calculate D2E/DX2 analytically  !
 ! A43   A(6,8,10)             113.1242         calculate D2E/DX2 analytically  !
 ! A44   A(6,8,35)             110.0742         calculate D2E/DX2 analytically  !
 ! A45   A(6,8,36)             109.0899         calculate D2E/DX2 analytically  !
 ! A46   A(10,8,35)            108.8637         calculate D2E/DX2 analytically  !
 ! A47   A(10,8,36)            109.2457         calculate D2E/DX2 analytically  !
 ! A48   A(35,8,36)            106.2071         calculate D2E/DX2 analytically  !
 ! A49   A(7,9,11)             114.6317         calculate D2E/DX2 analytically  !
 ! A50   A(7,9,37)             108.7672         calculate D2E/DX2 analytically  !
 ! A51   A(7,9,38)             109.4742         calculate D2E/DX2 analytically  !
 ! A52   A(11,9,37)            109.1334         calculate D2E/DX2 analytically  !
 ! A53   A(11,9,38)            108.5431         calculate D2E/DX2 analytically  !
 ! A54   A(37,9,38)            105.9356         calculate D2E/DX2 analytically  !
 ! A55   A(8,10,12)            113.1525         calculate D2E/DX2 analytically  !
 ! A56   A(8,10,39)            109.2425         calculate D2E/DX2 analytically  !
 ! A57   A(8,10,40)            108.8615         calculate D2E/DX2 analytically  !
 ! A58   A(12,10,39)           109.0895         calculate D2E/DX2 analytically  !
 ! A59   A(12,10,40)           110.0513         calculate D2E/DX2 analytically  !
 ! A60   A(39,10,40)           106.2058         calculate D2E/DX2 analytically  !
 ! A61   A(9,11,13)            114.5694         calculate D2E/DX2 analytically  !
 ! A62   A(9,11,41)            109.1859         calculate D2E/DX2 analytically  !
 ! A63   A(9,11,42)            108.2339         calculate D2E/DX2 analytically  !
 ! A64   A(13,11,41)           109.0446         calculate D2E/DX2 analytically  !
 ! A65   A(13,11,42)           109.3423         calculate D2E/DX2 analytically  !
 ! A66   A(41,11,42)           106.1279         calculate D2E/DX2 analytically  !
 ! A67   A(10,12,14)           114.8354         calculate D2E/DX2 analytically  !
 ! A68   A(10,12,43)           108.552          calculate D2E/DX2 analytically  !
 ! A69   A(10,12,44)           109.2725         calculate D2E/DX2 analytically  !
 ! A70   A(14,12,43)           108.6228         calculate D2E/DX2 analytically  !
 ! A71   A(14,12,44)           109.1612         calculate D2E/DX2 analytically  !
 ! A72   A(43,12,44)           106.03           calculate D2E/DX2 analytically  !
 ! A73   A(11,13,15)           114.3945         calculate D2E/DX2 analytically  !
 ! A74   A(11,13,45)           109.0996         calculate D2E/DX2 analytically  !
 ! A75   A(11,13,46)           109.3954         calculate D2E/DX2 analytically  !
 ! A76   A(15,13,45)           109.1793         calculate D2E/DX2 analytically  !
 ! A77   A(15,13,46)           108.2931         calculate D2E/DX2 analytically  !
 ! A78   A(45,13,46)           106.1564         calculate D2E/DX2 analytically  !
 ! A79   A(12,14,16)           114.4309         calculate D2E/DX2 analytically  !
 ! A80   A(12,14,47)           109.1947         calculate D2E/DX2 analytically  !
 ! A81   A(12,14,48)           108.2874         calculate D2E/DX2 analytically  !
 ! A82   A(16,14,47)           109.0975         calculate D2E/DX2 analytically  !
 ! A83   A(16,14,48)           109.344          calculate D2E/DX2 analytically  !
 ! A84   A(47,14,48)           106.1618         calculate D2E/DX2 analytically  !
 ! A85   A(13,15,17)           114.9017         calculate D2E/DX2 analytically  !
 ! A86   A(13,15,49)           108.6784         calculate D2E/DX2 analytically  !
 ! A87   A(13,15,50)           109.2241         calculate D2E/DX2 analytically  !
 ! A88   A(17,15,49)           108.4638         calculate D2E/DX2 analytically  !
 ! A89   A(17,15,50)           109.2003         calculate D2E/DX2 analytically  !
 ! A90   A(49,15,50)           105.9976         calculate D2E/DX2 analytically  !
 ! A91   A(14,16,18)           114.3545         calculate D2E/DX2 analytically  !
 ! A92   A(14,16,51)           109.0793         calculate D2E/DX2 analytically  !
 ! A93   A(14,16,52)           109.4046         calculate D2E/DX2 analytically  !
 ! A94   A(18,16,51)           109.1233         calculate D2E/DX2 analytically  !
 ! A95   A(18,16,52)           108.3568         calculate D2E/DX2 analytically  !
 ! A96   A(51,16,52)           106.2071         calculate D2E/DX2 analytically  !
 ! A97   A(15,17,19)           112.7699         calculate D2E/DX2 analytically  !
 ! A98   A(15,17,53)           110.005          calculate D2E/DX2 analytically  !
 ! A99   A(15,17,54)           109.0073         calculate D2E/DX2 analytically  !
 ! A100  A(19,17,53)           109.1193         calculate D2E/DX2 analytically  !
 ! A101  A(19,17,54)           109.4789         calculate D2E/DX2 analytically  !
 ! A102  A(53,17,54)           106.2502         calculate D2E/DX2 analytically  !
 ! A103  A(16,18,20)           114.4795         calculate D2E/DX2 analytically  !
 ! A104  A(16,18,55)           109.1132         calculate D2E/DX2 analytically  !
 ! A105  A(16,18,56)           108.5555         calculate D2E/DX2 analytically  !
 ! A106  A(20,18,55)           109.4645         calculate D2E/DX2 analytically  !
 ! A107  A(20,18,56)           108.8178         calculate D2E/DX2 analytically  !
 ! A108  A(55,18,56)           106.072          calculate D2E/DX2 analytically  !
 ! A109  A(17,19,57)           111.4735         calculate D2E/DX2 analytically  !
 ! A110  A(17,19,58)           111.123          calculate D2E/DX2 analytically  !
 ! A111  A(17,19,59)           111.0749         calculate D2E/DX2 analytically  !
 ! A112  A(57,19,58)           107.7421         calculate D2E/DX2 analytically  !
 ! A113  A(57,19,59)           107.6966         calculate D2E/DX2 analytically  !
 ! A114  A(58,19,59)           107.5498         calculate D2E/DX2 analytically  !
 ! A115  A(18,20,60)           110.9306         calculate D2E/DX2 analytically  !
 ! A116  A(18,20,61)           110.9993         calculate D2E/DX2 analytically  !
 ! A117  A(18,20,62)           111.9887         calculate D2E/DX2 analytically  !
 ! A118  A(60,20,61)           107.6596         calculate D2E/DX2 analytically  !
 ! A119  A(60,20,62)           107.6798         calculate D2E/DX2 analytically  !
 ! A120  A(61,20,62)           107.3859         calculate D2E/DX2 analytically  !
 ! D1    D(4,1,2,3)            -66.3193         calculate D2E/DX2 analytically  !
 ! D2    D(4,1,2,23)            56.9564         calculate D2E/DX2 analytically  !
 ! D3    D(4,1,2,24)           172.1709         calculate D2E/DX2 analytically  !
 ! D4    D(21,1,2,3)           171.4217         calculate D2E/DX2 analytically  !
 ! D5    D(21,1,2,23)          -65.3026         calculate D2E/DX2 analytically  !
 ! D6    D(21,1,2,24)           49.9119         calculate D2E/DX2 analytically  !
 ! D7    D(22,1,2,3)            56.2202         calculate D2E/DX2 analytically  !
 ! D8    D(22,1,2,23)          179.4959         calculate D2E/DX2 analytically  !
 ! D9    D(22,1,2,24)          -65.2896         calculate D2E/DX2 analytically  !
 ! D10   D(2,1,4,6)           -179.6522         calculate D2E/DX2 analytically  !
 ! D11   D(2,1,4,27)           -57.0127         calculate D2E/DX2 analytically  !
 ! D12   D(2,1,4,28)            58.6869         calculate D2E/DX2 analytically  !
 ! D13   D(21,1,4,6)           -57.9772         calculate D2E/DX2 analytically  !
 ! D14   D(21,1,4,27)           64.6623         calculate D2E/DX2 analytically  !
 ! D15   D(21,1,4,28)         -179.6382         calculate D2E/DX2 analytically  !
 ! D16   D(22,1,4,6)            57.7539         calculate D2E/DX2 analytically  !
 ! D17   D(22,1,4,27)         -179.6066         calculate D2E/DX2 analytically  !
 ! D18   D(22,1,4,28)          -63.9071         calculate D2E/DX2 analytically  !
 ! D19   D(1,2,3,5)           -172.4135         calculate D2E/DX2 analytically  !
 ! D20   D(1,2,3,25)           -50.7057         calculate D2E/DX2 analytically  !
 ! D21   D(1,2,3,26)            64.7066         calculate D2E/DX2 analytically  !
 ! D22   D(23,2,3,5)            64.9337         calculate D2E/DX2 analytically  !
 ! D23   D(23,2,3,25)         -173.3584         calculate D2E/DX2 analytically  !
 ! D24   D(23,2,3,26)          -57.9462         calculate D2E/DX2 analytically  !
 ! D25   D(24,2,3,5)           -50.9537         calculate D2E/DX2 analytically  !
 ! D26   D(24,2,3,25)           70.7542         calculate D2E/DX2 analytically  !
 ! D27   D(24,2,3,26)         -173.8336         calculate D2E/DX2 analytically  !
 ! D28   D(2,3,5,7)            -63.9939         calculate D2E/DX2 analytically  !
 ! D29   D(2,3,5,29)           174.2789         calculate D2E/DX2 analytically  !
 ! D30   D(2,3,5,30)            59.8766         calculate D2E/DX2 analytically  !
 ! D31   D(25,3,5,7)           174.2493         calculate D2E/DX2 analytically  !
 ! D32   D(25,3,5,29)           52.5221         calculate D2E/DX2 analytically  !
 ! D33   D(25,3,5,30)          -61.8802         calculate D2E/DX2 analytically  !
 ! D34   D(26,3,5,7)            59.6247         calculate D2E/DX2 analytically  !
 ! D35   D(26,3,5,29)          -62.1025         calculate D2E/DX2 analytically  !
 ! D36   D(26,3,5,30)         -176.5048         calculate D2E/DX2 analytically  !
 ! D37   D(1,4,6,8)             66.938          calculate D2E/DX2 analytically  !
 ! D38   D(1,4,6,31)           -56.1704         calculate D2E/DX2 analytically  !
 ! D39   D(1,4,6,32)          -171.342          calculate D2E/DX2 analytically  !
 ! D40   D(27,4,6,8)           -55.6551         calculate D2E/DX2 analytically  !
 ! D41   D(27,4,6,31)         -178.7635         calculate D2E/DX2 analytically  !
 ! D42   D(27,4,6,32)           66.0649         calculate D2E/DX2 analytically  !
 ! D43   D(28,4,6,8)          -170.8346         calculate D2E/DX2 analytically  !
 ! D44   D(28,4,6,31)           66.0571         calculate D2E/DX2 analytically  !
 ! D45   D(28,4,6,32)          -49.1145         calculate D2E/DX2 analytically  !
 ! D46   D(3,5,7,9)             94.8596         calculate D2E/DX2 analytically  !
 ! D47   D(3,5,7,33)           -28.2295         calculate D2E/DX2 analytically  !
 ! D48   D(3,5,7,34)          -143.3374         calculate D2E/DX2 analytically  !
 ! D49   D(29,5,7,9)          -144.2111         calculate D2E/DX2 analytically  !
 ! D50   D(29,5,7,33)           92.6998         calculate D2E/DX2 analytically  !
 ! D51   D(29,5,7,34)          -22.4081         calculate D2E/DX2 analytically  !
 ! D52   D(30,5,7,9)           -29.0595         calculate D2E/DX2 analytically  !
 ! D53   D(30,5,7,33)         -152.1486         calculate D2E/DX2 analytically  !
 ! D54   D(30,5,7,34)           92.7435         calculate D2E/DX2 analytically  !
 ! D55   D(4,6,8,10)           176.4762         calculate D2E/DX2 analytically  !
 ! D56   D(4,6,8,35)           -61.4942         calculate D2E/DX2 analytically  !
 ! D57   D(4,6,8,36)            54.6689         calculate D2E/DX2 analytically  !
 ! D58   D(31,6,8,10)          -60.4761         calculate D2E/DX2 analytically  !
 ! D59   D(31,6,8,35)           61.5535         calculate D2E/DX2 analytically  !
 ! D60   D(31,6,8,36)          177.7166         calculate D2E/DX2 analytically  !
 ! D61   D(32,6,8,10)           54.7096         calculate D2E/DX2 analytically  !
 ! D62   D(32,6,8,35)          176.7392         calculate D2E/DX2 analytically  !
 ! D63   D(32,6,8,36)          -67.0978         calculate D2E/DX2 analytically  !
 ! D64   D(5,7,9,11)          -175.6748         calculate D2E/DX2 analytically  !
 ! D65   D(5,7,9,37)            61.8712         calculate D2E/DX2 analytically  !
 ! D66   D(5,7,9,38)           -53.4519         calculate D2E/DX2 analytically  !
 ! D67   D(33,7,9,11)          -52.5745         calculate D2E/DX2 analytically  !
 ! D68   D(33,7,9,37)         -175.0286         calculate D2E/DX2 analytically  !
 ! D69   D(33,7,9,38)           69.6483         calculate D2E/DX2 analytically  !
 ! D70   D(34,7,9,11)           62.5088         calculate D2E/DX2 analytically  !
 ! D71   D(34,7,9,37)          -59.9453         calculate D2E/DX2 analytically  !
 ! D72   D(34,7,9,38)         -175.2684         calculate D2E/DX2 analytically  !
 ! D73   D(6,8,10,12)         -179.853          calculate D2E/DX2 analytically  !
 ! D74   D(6,8,10,39)          -58.1168         calculate D2E/DX2 analytically  !
 ! D75   D(6,8,10,40)           57.454          calculate D2E/DX2 analytically  !
 ! D76   D(35,8,10,12)          57.4423         calculate D2E/DX2 analytically  !
 ! D77   D(35,8,10,39)         179.1784         calculate D2E/DX2 analytically  !
 ! D78   D(35,8,10,40)         -65.2508         calculate D2E/DX2 analytically  !
 ! D79   D(36,8,10,12)         -58.1332         calculate D2E/DX2 analytically  !
 ! D80   D(36,8,10,39)          63.603          calculate D2E/DX2 analytically  !
 ! D81   D(36,8,10,40)         179.1738         calculate D2E/DX2 analytically  !
 ! D82   D(7,9,11,13)          -65.4147         calculate D2E/DX2 analytically  !
 ! D83   D(7,9,11,41)           57.199          calculate D2E/DX2 analytically  !
 ! D84   D(7,9,11,42)          172.3054         calculate D2E/DX2 analytically  !
 ! D85   D(37,9,11,13)          56.8408         calculate D2E/DX2 analytically  !
 ! D86   D(37,9,11,41)         179.4546         calculate D2E/DX2 analytically  !
 ! D87   D(37,9,11,42)         -65.439          calculate D2E/DX2 analytically  !
 ! D88   D(38,9,11,13)         171.8584         calculate D2E/DX2 analytically  !
 ! D89   D(38,9,11,41)         -65.5278         calculate D2E/DX2 analytically  !
 ! D90   D(38,9,11,42)          49.5786         calculate D2E/DX2 analytically  !
 ! D91   D(8,10,12,14)         176.4347         calculate D2E/DX2 analytically  !
 ! D92   D(8,10,12,43)          54.6661         calculate D2E/DX2 analytically  !
 ! D93   D(8,10,12,44)         -60.5425         calculate D2E/DX2 analytically  !
 ! D94   D(39,10,12,14)         54.6128         calculate D2E/DX2 analytically  !
 ! D95   D(39,10,12,43)        -67.1558         calculate D2E/DX2 analytically  !
 ! D96   D(39,10,12,44)        177.6356         calculate D2E/DX2 analytically  !
 ! D97   D(40,10,12,14)        -61.5355         calculate D2E/DX2 analytically  !
 ! D98   D(40,10,12,43)        176.6959         calculate D2E/DX2 analytically  !
 ! D99   D(40,10,12,44)         61.4873         calculate D2E/DX2 analytically  !
 ! D100  D(9,11,13,15)        -179.3294         calculate D2E/DX2 analytically  !
 ! D101  D(9,11,13,45)         -56.7288         calculate D2E/DX2 analytically  !
 ! D102  D(9,11,13,46)          58.9992         calculate D2E/DX2 analytically  !
 ! D103  D(41,11,13,15)         57.9804         calculate D2E/DX2 analytically  !
 ! D104  D(41,11,13,45)       -179.419          calculate D2E/DX2 analytically  !
 ! D105  D(41,11,13,46)        -63.691          calculate D2E/DX2 analytically  !
 ! D106  D(42,11,13,15)        -57.6536         calculate D2E/DX2 analytically  !
 ! D107  D(42,11,13,45)         64.9471         calculate D2E/DX2 analytically  !
 ! D108  D(42,11,13,46)       -179.325          calculate D2E/DX2 analytically  !
 ! D109  D(10,12,14,16)         66.5765         calculate D2E/DX2 analytically  !
 ! D110  D(10,12,14,47)        -56.0154         calculate D2E/DX2 analytically  !
 ! D111  D(10,12,14,48)       -171.1954         calculate D2E/DX2 analytically  !
 ! D112  D(43,12,14,16)       -171.6934         calculate D2E/DX2 analytically  !
 ! D113  D(43,12,14,47)         65.7146         calculate D2E/DX2 analytically  !
 ! D114  D(43,12,14,48)        -49.4653         calculate D2E/DX2 analytically  !
 ! D115  D(44,12,14,16)        -56.506          calculate D2E/DX2 analytically  !
 ! D116  D(44,12,14,47)       -179.0979         calculate D2E/DX2 analytically  !
 ! D117  D(44,12,14,48)         65.7221         calculate D2E/DX2 analytically  !
 ! D118  D(11,13,15,17)         66.971          calculate D2E/DX2 analytically  !
 ! D119  D(11,13,15,49)       -171.3261         calculate D2E/DX2 analytically  !
 ! D120  D(11,13,15,50)        -56.1132         calculate D2E/DX2 analytically  !
 ! D121  D(45,13,15,17)        -55.5864         calculate D2E/DX2 analytically  !
 ! D122  D(45,13,15,49)         66.1165         calculate D2E/DX2 analytically  !
 ! D123  D(45,13,15,50)       -178.6705         calculate D2E/DX2 analytically  !
 ! D124  D(46,13,15,17)       -170.7549         calculate D2E/DX2 analytically  !
 ! D125  D(46,13,15,49)        -49.052          calculate D2E/DX2 analytically  !
 ! D126  D(46,13,15,50)         66.1609         calculate D2E/DX2 analytically  !
 ! D127  D(12,14,16,18)        179.4762         calculate D2E/DX2 analytically  !
 ! D128  D(12,14,16,51)         56.9919         calculate D2E/DX2 analytically  !
 ! D129  D(12,14,16,52)        -58.7905         calculate D2E/DX2 analytically  !
 ! D130  D(47,14,16,18)        -57.8791         calculate D2E/DX2 analytically  !
 ! D131  D(47,14,16,51)        179.6365         calculate D2E/DX2 analytically  !
 ! D132  D(47,14,16,52)         63.8542         calculate D2E/DX2 analytically  !
 ! D133  D(48,14,16,18)         57.8256         calculate D2E/DX2 analytically  !
 ! D134  D(48,14,16,51)        -64.6587         calculate D2E/DX2 analytically  !
 ! D135  D(48,14,16,52)        179.5589         calculate D2E/DX2 analytically  !
 ! D136  D(13,15,17,19)        176.7484         calculate D2E/DX2 analytically  !
 ! D137  D(13,15,17,53)        -61.1891         calculate D2E/DX2 analytically  !
 ! D138  D(13,15,17,54)         54.9394         calculate D2E/DX2 analytically  !
 ! D139  D(49,15,17,19)         54.929          calculate D2E/DX2 analytically  !
 ! D140  D(49,15,17,53)        176.9916         calculate D2E/DX2 analytically  !
 ! D141  D(49,15,17,54)        -66.8799         calculate D2E/DX2 analytically  !
 ! D142  D(50,15,17,19)        -60.1547         calculate D2E/DX2 analytically  !
 ! D143  D(50,15,17,53)         61.9078         calculate D2E/DX2 analytically  !
 ! D144  D(50,15,17,54)        178.0363         calculate D2E/DX2 analytically  !
 ! D145  D(14,16,18,20)        -66.1235         calculate D2E/DX2 analytically  !
 ! D146  D(14,16,18,55)         56.9198         calculate D2E/DX2 analytically  !
 ! D147  D(14,16,18,56)        172.0949         calculate D2E/DX2 analytically  !
 ! D148  D(51,16,18,20)         56.337          calculate D2E/DX2 analytically  !
 ! D149  D(51,16,18,55)        179.3802         calculate D2E/DX2 analytically  !
 ! D150  D(51,16,18,56)        -65.4447         calculate D2E/DX2 analytically  !
 ! D151  D(52,16,18,20)        171.5702         calculate D2E/DX2 analytically  !
 ! D152  D(52,16,18,55)        -65.3865         calculate D2E/DX2 analytically  !
 ! D153  D(52,16,18,56)         49.7886         calculate D2E/DX2 analytically  !
 ! D154  D(15,17,19,57)       -179.8622         calculate D2E/DX2 analytically  !
 ! D155  D(15,17,19,58)        -59.6619         calculate D2E/DX2 analytically  !
 ! D156  D(15,17,19,59)         60.028          calculate D2E/DX2 analytically  !
 ! D157  D(53,17,19,57)         57.5777         calculate D2E/DX2 analytically  !
 ! D158  D(53,17,19,58)        177.778          calculate D2E/DX2 analytically  !
 ! D159  D(53,17,19,59)        -62.5321         calculate D2E/DX2 analytically  !
 ! D160  D(54,17,19,57)        -58.32           calculate D2E/DX2 analytically  !
 ! D161  D(54,17,19,58)         61.8803         calculate D2E/DX2 analytically  !
 ! D162  D(54,17,19,59)       -178.4298         calculate D2E/DX2 analytically  !
 ! D163  D(16,18,20,60)        -56.8298         calculate D2E/DX2 analytically  !
 ! D164  D(16,18,20,61)       -176.4806         calculate D2E/DX2 analytically  !
 ! D165  D(16,18,20,62)         63.5084         calculate D2E/DX2 analytically  !
 ! D166  D(55,18,20,60)       -179.6834         calculate D2E/DX2 analytically  !
 ! D167  D(55,18,20,61)         60.6659         calculate D2E/DX2 analytically  !
 ! D168  D(55,18,20,62)        -59.3452         calculate D2E/DX2 analytically  !
 ! D169  D(56,18,20,60)         64.8082         calculate D2E/DX2 analytically  !
 ! D170  D(56,18,20,61)        -54.8425         calculate D2E/DX2 analytically  !
 ! D171  D(56,18,20,62)       -174.8536         calculate D2E/DX2 analytically  !
 --------------------------------------------------------------------------------
 Trust Radius=3.00D-01 FncErr=1.00D-07 GrdErr=1.00D-06
 Number of steps in this run=    362 maximum allowed number of steps=    372.
 GradGradGradGradGradGradGradGradGradGradGradGradGradGradGradGradGradGrad

 Leave Link  103 at Sun Feb 22 17:33:16 2015, MaxMem=   524288000 cpu:         0.1
 (Enter /opt/g09/l202.exe)
 Symmetry turned off by external request.
 Stoichiometry    C20H42
 Framework group  C1[X(C20H42)]
 Deg. of freedom   180
 Full point group                 C1      NOp   1
                          Input orientation:                          
 ---------------------------------------------------------------------
 Center     Atomic      Atomic             Coordinates (Angstroms)
 Number     Number       Type             X           Y           Z
 ---------------------------------------------------------------------
      1          6           0        8.378050    2.662250    7.088350
      2          6           0        6.860380    2.540850    6.850810
      3          6           0        6.044870    3.750470    7.338570
      4          6           0        9.063180    3.772210    6.272620
      5          6           0        4.512960    3.585740    7.283480
      6          6           0       10.581670    3.887620    6.504110
      7          6           0        3.908750    3.413910    5.868180
      8          6           0       11.405170    2.690730    6.001350
      9          6           0        3.695430    1.950940    5.436520
     10          6           0       12.919620    2.885010    6.174150
     11          6           0        3.193000    1.774780    3.990860
     12          6           0       13.743920    1.690020    5.668310
     13          6           0        1.783150    2.333440    3.731020
     14          6           0       15.270780    1.879090    5.743540
     15          6           0        1.278370    2.140700    2.288680
     16          6           0       15.831290    1.966730    7.173270
     17          6           0        1.025070    0.679990    1.881210
     18          6           0       17.359860    2.143060    7.246640
     19          6           0        0.448940    0.549820    0.464590
     20          6           0       18.164770    0.939960    6.732610
     21          1           0        8.842170    1.696810    6.850560
     22          1           0        8.563430    2.836390    8.159080
     23          1           0        6.681970    2.376230    5.779140
     24          1           0        6.496130    1.640230    7.364850
     25          1           0        6.331770    3.965770    8.378300
     26          1           0        6.318230    4.641550    6.757210
     27          1           0        8.872260    3.602630    5.202110
     28          1           0        8.603170    4.738290    6.515470
     29          1           0        4.070660    4.473520    7.752760
     30          1           0        4.214390    2.734040    7.912070
     31          1           0       10.773120    4.034930    7.577340
     32          1           0       10.944740    4.796170    6.003770
     33          1           0        4.552470    3.920280    5.133100
     34          1           0        2.944890    3.935380    5.831300
     35          1           0       11.102000    1.776380    6.528820
     36          1           0       11.180370    2.520600    4.937820
     37          1           0        2.980520    1.478880    6.126790
     38          1           0        4.634330    1.395850    5.549470
     39          1           0       13.232660    3.791880    5.635480
     40          1           0       13.135190    3.068980    7.235200
     41          1           0        3.902610    2.255260    3.300240
     42          1           0        3.210010    0.704440    3.749470
     43          1           0       13.466040    1.490610    4.623970
     44          1           0       13.463250    0.789610    6.234570
     45          1           0        1.074540    1.861220    4.428210
     46          1           0        1.768300    3.406210    3.960610
     47          1           0       15.550390    2.788670    5.190810
     48          1           0       15.747660    1.042850    5.216790
     49          1           0        0.342660    2.703830    2.165030
     50          1           0        1.998360    2.591730    1.589570
     51          1           0       15.545920    1.059850    7.727790
     52          1           0       15.360840    2.807530    7.698370
     53          1           0        1.957830    0.105640    1.944000
     54          1           0        0.332830    0.222170    2.601930
     55          1           0       17.645810    3.042590    6.683500
     56          1           0       17.639510    2.336280    8.290420
     57          1           0        0.274630   -0.498030    0.197330
     58          1           0       -0.506490    1.080580    0.376260
     59          1           0        1.133050    0.974320   -0.279840
     60          1           0       17.893620    0.026260    7.275580
     61          1           0       19.239910    1.100250    6.867930
     62          1           0       17.992840    0.756830    5.666720
 ---------------------------------------------------------------------
 Rotational constants (GHZ):      0.5457261      0.0512161      0.0478323
 Leave Link  202 at Sun Feb 22 17:33:16 2015, MaxMem=   524288000 cpu:         0.0
 (Enter /opt/g09/l301.exe)
 Standard basis: 6-311+G(d,p) (5D, 7F)
 Ernie: Thresh=  0.10000D-02 Tol=  0.10000D-05 Strict=F.
 AO basis set in the form of general basis input (Overlap normalization):
      1 0
 S   6 1.00       0.000000000000
      0.4563240000D+04  0.1966650249D-02
      0.6820240000D+03  0.1523060193D-01
      0.1549730000D+03  0.7612690966D-01
      0.4445530000D+02  0.2608010331D+00
      0.1302900000D+02  0.6164620782D+00
      0.1827730000D+01  0.2210060280D+00
 SP   3 1.00       0.000000000000
      0.2096420000D+02  0.1146600807D+00  0.4024869267D-01
      0.4803310000D+01  0.9199996477D+00  0.2375939567D+00
      0.1459330000D+01 -0.3030682134D-02  0.8158538515D+00
 SP   1 1.00       0.000000000000
      0.4834560000D+00  0.1000000000D+01  0.1000000000D+01
 SP   1 1.00       0.000000000000
      0.1455850000D+00  0.1000000000D+01  0.1000000000D+01
 SP   1 1.00       0.000000000000
      0.4380000000D-01  0.1000000000D+01  0.1000000000D+01
 D   1 1.00       0.000000000000
      0.6260000000D+00  0.1000000000D+01
 ****
      2 0
 S   6 1.00       0.000000000000
      0.4563240000D+04  0.1966650249D-02
      0.6820240000D+03  0.1523060193D-01
      0.1549730000D+03  0.7612690966D-01
      0.4445530000D+02  0.2608010331D+00
      0.1302900000D+02  0.6164620782D+00
      0.1827730000D+01  0.2210060280D+00
 SP   3 1.00       0.000000000000
      0.2096420000D+02  0.1146600807D+00  0.4024869267D-01
      0.4803310000D+01  0.9199996477D+00  0.2375939567D+00
      0.1459330000D+01 -0.3030682134D-02  0.8158538515D+00
 SP   1 1.00       0.000000000000
      0.4834560000D+00  0.1000000000D+01  0.1000000000D+01
 SP   1 1.00       0.000000000000
      0.1455850000D+00  0.1000000000D+01  0.1000000000D+01
 SP   1 1.00       0.000000000000
      0.4380000000D-01  0.1000000000D+01  0.1000000000D+01
 D   1 1.00       0.000000000000
      0.6260000000D+00  0.1000000000D+01
 ****
      3 0
 S   6 1.00       0.000000000000
      0.4563240000D+04  0.1966650249D-02
      0.6820240000D+03  0.1523060193D-01
      0.1549730000D+03  0.7612690966D-01
      0.4445530000D+02  0.2608010331D+00
      0.1302900000D+02  0.6164620782D+00
      0.1827730000D+01  0.2210060280D+00
 SP   3 1.00       0.000000000000
      0.2096420000D+02  0.1146600807D+00  0.4024869267D-01
      0.4803310000D+01  0.9199996477D+00  0.2375939567D+00
      0.1459330000D+01 -0.3030682134D-02  0.8158538515D+00
 SP   1 1.00       0.000000000000
      0.4834560000D+00  0.1000000000D+01  0.1000000000D+01
 SP   1 1.00       0.000000000000
      0.1455850000D+00  0.1000000000D+01  0.1000000000D+01
 SP   1 1.00       0.000000000000
      0.4380000000D-01  0.1000000000D+01  0.1000000000D+01
 D   1 1.00       0.000000000000
      0.6260000000D+00  0.1000000000D+01
 ****
      4 0
 S   6 1.00       0.000000000000
      0.4563240000D+04  0.1966650249D-02
      0.6820240000D+03  0.1523060193D-01
      0.1549730000D+03  0.7612690966D-01
      0.4445530000D+02  0.2608010331D+00
      0.1302900000D+02  0.6164620782D+00
      0.1827730000D+01  0.2210060280D+00
 SP   3 1.00       0.000000000000
      0.2096420000D+02  0.1146600807D+00  0.4024869267D-01
      0.4803310000D+01  0.9199996477D+00  0.2375939567D+00
      0.1459330000D+01 -0.3030682134D-02  0.8158538515D+00
 SP   1 1.00       0.000000000000
      0.4834560000D+00  0.1000000000D+01  0.1000000000D+01
 SP   1 1.00       0.000000000000
      0.1455850000D+00  0.1000000000D+01  0.1000000000D+01
 SP   1 1.00       0.000000000000
      0.4380000000D-01  0.1000000000D+01  0.1000000000D+01
 D   1 1.00       0.000000000000
      0.6260000000D+00  0.1000000000D+01
 ****
      5 0
 S   6 1.00       0.000000000000
      0.4563240000D+04  0.1966650249D-02
      0.6820240000D+03  0.1523060193D-01
      0.1549730000D+03  0.7612690966D-01
      0.4445530000D+02  0.2608010331D+00
      0.1302900000D+02  0.6164620782D+00
      0.1827730000D+01  0.2210060280D+00
 SP   3 1.00       0.000000000000
      0.2096420000D+02  0.1146600807D+00  0.4024869267D-01
      0.4803310000D+01  0.9199996477D+00  0.2375939567D+00
      0.1459330000D+01 -0.3030682134D-02  0.8158538515D+00
 SP   1 1.00       0.000000000000
      0.4834560000D+00  0.1000000000D+01  0.1000000000D+01
 SP   1 1.00       0.000000000000
      0.1455850000D+00  0.1000000000D+01  0.1000000000D+01
 SP   1 1.00       0.000000000000
      0.4380000000D-01  0.1000000000D+01  0.1000000000D+01
 D   1 1.00       0.000000000000
      0.6260000000D+00  0.1000000000D+01
 ****
      6 0
 S   6 1.00       0.000000000000
      0.4563240000D+04  0.1966650249D-02
      0.6820240000D+03  0.1523060193D-01
      0.1549730000D+03  0.7612690966D-01
      0.4445530000D+02  0.2608010331D+00
      0.1302900000D+02  0.6164620782D+00
      0.1827730000D+01  0.2210060280D+00
 SP   3 1.00       0.000000000000
      0.2096420000D+02  0.1146600807D+00  0.4024869267D-01
      0.4803310000D+01  0.9199996477D+00  0.2375939567D+00
      0.1459330000D+01 -0.3030682134D-02  0.8158538515D+00
 SP   1 1.00       0.000000000000
      0.4834560000D+00  0.1000000000D+01  0.1000000000D+01
 SP   1 1.00       0.000000000000
      0.1455850000D+00  0.1000000000D+01  0.1000000000D+01
 SP   1 1.00       0.000000000000
      0.4380000000D-01  0.1000000000D+01  0.1000000000D+01
 D   1 1.00       0.000000000000
      0.6260000000D+00  0.1000000000D+01
 ****
      7 0
 S   6 1.00       0.000000000000
      0.4563240000D+04  0.1966650249D-02
      0.6820240000D+03  0.1523060193D-01
      0.1549730000D+03  0.7612690966D-01
      0.4445530000D+02  0.2608010331D+00
      0.1302900000D+02  0.6164620782D+00
      0.1827730000D+01  0.2210060280D+00
 SP   3 1.00       0.000000000000
      0.2096420000D+02  0.1146600807D+00  0.4024869267D-01
      0.4803310000D+01  0.9199996477D+00  0.2375939567D+00
      0.1459330000D+01 -0.3030682134D-02  0.8158538515D+00
 SP   1 1.00       0.000000000000
      0.4834560000D+00  0.1000000000D+01  0.1000000000D+01
 SP   1 1.00       0.000000000000
      0.1455850000D+00  0.1000000000D+01  0.1000000000D+01
 SP   1 1.00       0.000000000000
      0.4380000000D-01  0.1000000000D+01  0.1000000000D+01
 D   1 1.00       0.000000000000
      0.6260000000D+00  0.1000000000D+01
 ****
      8 0
 S   6 1.00       0.000000000000
      0.4563240000D+04  0.1966650249D-02
      0.6820240000D+03  0.1523060193D-01
      0.1549730000D+03  0.7612690966D-01
      0.4445530000D+02  0.2608010331D+00
      0.1302900000D+02  0.6164620782D+00
      0.1827730000D+01  0.2210060280D+00
 SP   3 1.00       0.000000000000
      0.2096420000D+02  0.1146600807D+00  0.4024869267D-01
      0.4803310000D+01  0.9199996477D+00  0.2375939567D+00
      0.1459330000D+01 -0.3030682134D-02  0.8158538515D+00
 SP   1 1.00       0.000000000000
      0.4834560000D+00  0.1000000000D+01  0.1000000000D+01
 SP   1 1.00       0.000000000000
      0.1455850000D+00  0.1000000000D+01  0.1000000000D+01
 SP   1 1.00       0.000000000000
      0.4380000000D-01  0.1000000000D+01  0.1000000000D+01
 D   1 1.00       0.000000000000
      0.6260000000D+00  0.1000000000D+01
 ****
      9 0
 S   6 1.00       0.000000000000
      0.4563240000D+04  0.1966650249D-02
      0.6820240000D+03  0.1523060193D-01
      0.1549730000D+03  0.7612690966D-01
      0.4445530000D+02  0.2608010331D+00
      0.1302900000D+02  0.6164620782D+00
      0.1827730000D+01  0.2210060280D+00
 SP   3 1.00       0.000000000000
      0.2096420000D+02  0.1146600807D+00  0.4024869267D-01
      0.4803310000D+01  0.9199996477D+00  0.2375939567D+00
      0.1459330000D+01 -0.3030682134D-02  0.8158538515D+00
 SP   1 1.00       0.000000000000
      0.4834560000D+00  0.1000000000D+01  0.1000000000D+01
 SP   1 1.00       0.000000000000
      0.1455850000D+00  0.1000000000D+01  0.1000000000D+01
 SP   1 1.00       0.000000000000
      0.4380000000D-01  0.1000000000D+01  0.1000000000D+01
 D   1 1.00       0.000000000000
      0.6260000000D+00  0.1000000000D+01
 ****
     10 0
 S   6 1.00       0.000000000000
      0.4563240000D+04  0.1966650249D-02
      0.6820240000D+03  0.1523060193D-01
      0.1549730000D+03  0.7612690966D-01
      0.4445530000D+02  0.2608010331D+00
      0.1302900000D+02  0.6164620782D+00
      0.1827730000D+01  0.2210060280D+00
 SP   3 1.00       0.000000000000
      0.2096420000D+02  0.1146600807D+00  0.4024869267D-01
      0.4803310000D+01  0.9199996477D+00  0.2375939567D+00
      0.1459330000D+01 -0.3030682134D-02  0.8158538515D+00
 SP   1 1.00       0.000000000000
      0.4834560000D+00  0.1000000000D+01  0.1000000000D+01
 SP   1 1.00       0.000000000000
      0.1455850000D+00  0.1000000000D+01  0.1000000000D+01
 SP   1 1.00       0.000000000000
      0.4380000000D-01  0.1000000000D+01  0.1000000000D+01
 D   1 1.00       0.000000000000
      0.6260000000D+00  0.1000000000D+01
 ****
     11 0
 S   6 1.00       0.000000000000
      0.4563240000D+04  0.1966650249D-02
      0.6820240000D+03  0.1523060193D-01
      0.1549730000D+03  0.7612690966D-01
      0.4445530000D+02  0.2608010331D+00
      0.1302900000D+02  0.6164620782D+00
      0.1827730000D+01  0.2210060280D+00
 SP   3 1.00       0.000000000000
      0.2096420000D+02  0.1146600807D+00  0.4024869267D-01
      0.4803310000D+01  0.9199996477D+00  0.2375939567D+00
      0.1459330000D+01 -0.3030682134D-02  0.8158538515D+00
 SP   1 1.00       0.000000000000
      0.4834560000D+00  0.1000000000D+01  0.1000000000D+01
 SP   1 1.00       0.000000000000
      0.1455850000D+00  0.1000000000D+01  0.1000000000D+01
 SP   1 1.00       0.000000000000
      0.4380000000D-01  0.1000000000D+01  0.1000000000D+01
 D   1 1.00       0.000000000000
      0.6260000000D+00  0.1000000000D+01
 ****
     12 0
 S   6 1.00       0.000000000000
      0.4563240000D+04  0.1966650249D-02
      0.6820240000D+03  0.1523060193D-01
      0.1549730000D+03  0.7612690966D-01
      0.4445530000D+02  0.2608010331D+00
      0.1302900000D+02  0.6164620782D+00
      0.1827730000D+01  0.2210060280D+00
 SP   3 1.00       0.000000000000
      0.2096420000D+02  0.1146600807D+00  0.4024869267D-01
      0.4803310000D+01  0.9199996477D+00  0.2375939567D+00
      0.1459330000D+01 -0.3030682134D-02  0.8158538515D+00
 SP   1 1.00       0.000000000000
      0.4834560000D+00  0.1000000000D+01  0.1000000000D+01
 SP   1 1.00       0.000000000000
      0.1455850000D+00  0.1000000000D+01  0.1000000000D+01
 SP   1 1.00       0.000000000000
      0.4380000000D-01  0.1000000000D+01  0.1000000000D+01
 D   1 1.00       0.000000000000
      0.6260000000D+00  0.1000000000D+01
 ****
     13 0
 S   6 1.00       0.000000000000
      0.4563240000D+04  0.1966650249D-02
      0.6820240000D+03  0.1523060193D-01
      0.1549730000D+03  0.7612690966D-01
      0.4445530000D+02  0.2608010331D+00
      0.1302900000D+02  0.6164620782D+00
      0.1827730000D+01  0.2210060280D+00
 SP   3 1.00       0.000000000000
      0.2096420000D+02  0.1146600807D+00  0.4024869267D-01
      0.4803310000D+01  0.9199996477D+00  0.2375939567D+00
      0.1459330000D+01 -0.3030682134D-02  0.8158538515D+00
 SP   1 1.00       0.000000000000
      0.4834560000D+00  0.1000000000D+01  0.1000000000D+01
 SP   1 1.00       0.000000000000
      0.1455850000D+00  0.1000000000D+01  0.1000000000D+01
 SP   1 1.00       0.000000000000
      0.4380000000D-01  0.1000000000D+01  0.1000000000D+01
 D   1 1.00       0.000000000000
      0.6260000000D+00  0.1000000000D+01
 ****
     14 0
 S   6 1.00       0.000000000000
      0.4563240000D+04  0.1966650249D-02
      0.6820240000D+03  0.1523060193D-01
      0.1549730000D+03  0.7612690966D-01
      0.4445530000D+02  0.2608010331D+00
      0.1302900000D+02  0.6164620782D+00
      0.1827730000D+01  0.2210060280D+00
 SP   3 1.00       0.000000000000
      0.2096420000D+02  0.1146600807D+00  0.4024869267D-01
      0.4803310000D+01  0.9199996477D+00  0.2375939567D+00
      0.1459330000D+01 -0.3030682134D-02  0.8158538515D+00
 SP   1 1.00       0.000000000000
      0.4834560000D+00  0.1000000000D+01  0.1000000000D+01
 SP   1 1.00       0.000000000000
      0.1455850000D+00  0.1000000000D+01  0.1000000000D+01
 SP   1 1.00       0.000000000000
      0.4380000000D-01  0.1000000000D+01  0.1000000000D+01
 D   1 1.00       0.000000000000
      0.6260000000D+00  0.1000000000D+01
 ****
     15 0
 S   6 1.00       0.000000000000
      0.4563240000D+04  0.1966650249D-02
      0.6820240000D+03  0.1523060193D-01
      0.1549730000D+03  0.7612690966D-01
      0.4445530000D+02  0.2608010331D+00
      0.1302900000D+02  0.6164620782D+00
      0.1827730000D+01  0.2210060280D+00
 SP   3 1.00       0.000000000000
      0.2096420000D+02  0.1146600807D+00  0.4024869267D-01
      0.4803310000D+01  0.9199996477D+00  0.2375939567D+00
      0.1459330000D+01 -0.3030682134D-02  0.8158538515D+00
 SP   1 1.00       0.000000000000
      0.4834560000D+00  0.1000000000D+01  0.1000000000D+01
 SP   1 1.00       0.000000000000
      0.1455850000D+00  0.1000000000D+01  0.1000000000D+01
 SP   1 1.00       0.000000000000
      0.4380000000D-01  0.1000000000D+01  0.1000000000D+01
 D   1 1.00       0.000000000000
      0.6260000000D+00  0.1000000000D+01
 ****
     16 0
 S   6 1.00       0.000000000000
      0.4563240000D+04  0.1966650249D-02
      0.6820240000D+03  0.1523060193D-01
      0.1549730000D+03  0.7612690966D-01
      0.4445530000D+02  0.2608010331D+00
      0.1302900000D+02  0.6164620782D+00
      0.1827730000D+01  0.2210060280D+00
 SP   3 1.00       0.000000000000
      0.2096420000D+02  0.1146600807D+00  0.4024869267D-01
      0.4803310000D+01  0.9199996477D+00  0.2375939567D+00
      0.1459330000D+01 -0.3030682134D-02  0.8158538515D+00
 SP   1 1.00       0.000000000000
      0.4834560000D+00  0.1000000000D+01  0.1000000000D+01
 SP   1 1.00       0.000000000000
      0.1455850000D+00  0.1000000000D+01  0.1000000000D+01
 SP   1 1.00       0.000000000000
      0.4380000000D-01  0.1000000000D+01  0.1000000000D+01
 D   1 1.00       0.000000000000
      0.6260000000D+00  0.1000000000D+01
 ****
     17 0
 S   6 1.00       0.000000000000
      0.4563240000D+04  0.1966650249D-02
      0.6820240000D+03  0.1523060193D-01
      0.1549730000D+03  0.7612690966D-01
      0.4445530000D+02  0.2608010331D+00
      0.1302900000D+02  0.6164620782D+00
      0.1827730000D+01  0.2210060280D+00
 SP   3 1.00       0.000000000000
      0.2096420000D+02  0.1146600807D+00  0.4024869267D-01
      0.4803310000D+01  0.9199996477D+00  0.2375939567D+00
      0.1459330000D+01 -0.3030682134D-02  0.8158538515D+00
 SP   1 1.00       0.000000000000
      0.4834560000D+00  0.1000000000D+01  0.1000000000D+01
 SP   1 1.00       0.000000000000
      0.1455850000D+00  0.1000000000D+01  0.1000000000D+01
 SP   1 1.00       0.000000000000
      0.4380000000D-01  0.1000000000D+01  0.1000000000D+01
 D   1 1.00       0.000000000000
      0.6260000000D+00  0.1000000000D+01
 ****
     18 0
 S   6 1.00       0.000000000000
      0.4563240000D+04  0.1966650249D-02
      0.6820240000D+03  0.1523060193D-01
      0.1549730000D+03  0.7612690966D-01
      0.4445530000D+02  0.2608010331D+00
      0.1302900000D+02  0.6164620782D+00
      0.1827730000D+01  0.2210060280D+00
 SP   3 1.00       0.000000000000
      0.2096420000D+02  0.1146600807D+00  0.4024869267D-01
      0.4803310000D+01  0.9199996477D+00  0.2375939567D+00
      0.1459330000D+01 -0.3030682134D-02  0.8158538515D+00
 SP   1 1.00       0.000000000000
      0.4834560000D+00  0.1000000000D+01  0.1000000000D+01
 SP   1 1.00       0.000000000000
      0.1455850000D+00  0.1000000000D+01  0.1000000000D+01
 SP   1 1.00       0.000000000000
      0.4380000000D-01  0.1000000000D+01  0.1000000000D+01
 D   1 1.00       0.000000000000
      0.6260000000D+00  0.1000000000D+01
 ****
     19 0
 S   6 1.00       0.000000000000
      0.4563240000D+04  0.1966650249D-02
      0.6820240000D+03  0.1523060193D-01
      0.1549730000D+03  0.7612690966D-01
      0.4445530000D+02  0.2608010331D+00
      0.1302900000D+02  0.6164620782D+00
      0.1827730000D+01  0.2210060280D+00
 SP   3 1.00       0.000000000000
      0.2096420000D+02  0.1146600807D+00  0.4024869267D-01
      0.4803310000D+01  0.9199996477D+00  0.2375939567D+00
      0.1459330000D+01 -0.3030682134D-02  0.8158538515D+00
 SP   1 1.00       0.000000000000
      0.4834560000D+00  0.1000000000D+01  0.1000000000D+01
 SP   1 1.00       0.000000000000
      0.1455850000D+00  0.1000000000D+01  0.1000000000D+01
 SP   1 1.00       0.000000000000
      0.4380000000D-01  0.1000000000D+01  0.1000000000D+01
 D   1 1.00       0.000000000000
      0.6260000000D+00  0.1000000000D+01
 ****
     20 0
 S   6 1.00       0.000000000000
      0.4563240000D+04  0.1966650249D-02
      0.6820240000D+03  0.1523060193D-01
      0.1549730000D+03  0.7612690966D-01
      0.4445530000D+02  0.2608010331D+00
      0.1302900000D+02  0.6164620782D+00
      0.1827730000D+01  0.2210060280D+00
 SP   3 1.00       0.000000000000
      0.2096420000D+02  0.1146600807D+00  0.4024869267D-01
      0.4803310000D+01  0.9199996477D+00  0.2375939567D+00
      0.1459330000D+01 -0.3030682134D-02  0.8158538515D+00
 SP   1 1.00       0.000000000000
      0.4834560000D+00  0.1000000000D+01  0.1000000000D+01
 SP   1 1.00       0.000000000000
      0.1455850000D+00  0.1000000000D+01  0.1000000000D+01
 SP   1 1.00       0.000000000000
      0.4380000000D-01  0.1000000000D+01  0.1000000000D+01
 D   1 1.00       0.000000000000
      0.6260000000D+00  0.1000000000D+01
 ****
     21 0
 S   3 1.00       0.000000000000
      0.3386500000D+02  0.2549381454D-01
      0.5094790000D+01  0.1903731086D+00
      0.1158790000D+01  0.8521614860D+00
 S   1 1.00       0.000000000000
      0.3258400000D+00  0.1000000000D+01
 S   1 1.00       0.000000000000
      0.1027410000D+00  0.1000000000D+01
 P   1 1.00       0.000000000000
      0.7500000000D+00  0.1000000000D+01
 ****
     22 0
 S   3 1.00       0.000000000000
      0.3386500000D+02  0.2549381454D-01
      0.5094790000D+01  0.1903731086D+00
      0.1158790000D+01  0.8521614860D+00
 S   1 1.00       0.000000000000
      0.3258400000D+00  0.1000000000D+01
 S   1 1.00       0.000000000000
      0.1027410000D+00  0.1000000000D+01
 P   1 1.00       0.000000000000
      0.7500000000D+00  0.1000000000D+01
 ****
     23 0
 S   3 1.00       0.000000000000
      0.3386500000D+02  0.2549381454D-01
      0.5094790000D+01  0.1903731086D+00
      0.1158790000D+01  0.8521614860D+00
 S   1 1.00       0.000000000000
      0.3258400000D+00  0.1000000000D+01
 S   1 1.00       0.000000000000
      0.1027410000D+00  0.1000000000D+01
 P   1 1.00       0.000000000000
      0.7500000000D+00  0.1000000000D+01
 ****
     24 0
 S   3 1.00       0.000000000000
      0.3386500000D+02  0.2549381454D-01
      0.5094790000D+01  0.1903731086D+00
      0.1158790000D+01  0.8521614860D+00
 S   1 1.00       0.000000000000
      0.3258400000D+00  0.1000000000D+01
 S   1 1.00       0.000000000000
      0.1027410000D+00  0.1000000000D+01
 P   1 1.00       0.000000000000
      0.7500000000D+00  0.1000000000D+01
 ****
     25 0
 S   3 1.00       0.000000000000
      0.3386500000D+02  0.2549381454D-01
      0.5094790000D+01  0.1903731086D+00
      0.1158790000D+01  0.8521614860D+00
 S   1 1.00       0.000000000000
      0.3258400000D+00  0.1000000000D+01
 S   1 1.00       0.000000000000
      0.1027410000D+00  0.1000000000D+01
 P   1 1.00       0.000000000000
      0.7500000000D+00  0.1000000000D+01
 ****
     26 0
 S   3 1.00       0.000000000000
      0.3386500000D+02  0.2549381454D-01
      0.5094790000D+01  0.1903731086D+00
      0.1158790000D+01  0.8521614860D+00
 S   1 1.00       0.000000000000
      0.3258400000D+00  0.1000000000D+01
 S   1 1.00       0.000000000000
      0.1027410000D+00  0.1000000000D+01
 P   1 1.00       0.000000000000
      0.7500000000D+00  0.1000000000D+01
 ****
     27 0
 S   3 1.00       0.000000000000
      0.3386500000D+02  0.2549381454D-01
      0.5094790000D+01  0.1903731086D+00
      0.1158790000D+01  0.8521614860D+00
 S   1 1.00       0.000000000000
      0.3258400000D+00  0.1000000000D+01
 S   1 1.00       0.000000000000
      0.1027410000D+00  0.1000000000D+01
 P   1 1.00       0.000000000000
      0.7500000000D+00  0.1000000000D+01
 ****
     28 0
 S   3 1.00       0.000000000000
      0.3386500000D+02  0.2549381454D-01
      0.5094790000D+01  0.1903731086D+00
      0.1158790000D+01  0.8521614860D+00
 S   1 1.00       0.000000000000
      0.3258400000D+00  0.1000000000D+01
 S   1 1.00       0.000000000000
      0.1027410000D+00  0.1000000000D+01
 P   1 1.00       0.000000000000
      0.7500000000D+00  0.1000000000D+01
 ****
     29 0
 S   3 1.00       0.000000000000
      0.3386500000D+02  0.2549381454D-01
      0.5094790000D+01  0.1903731086D+00
      0.1158790000D+01  0.8521614860D+00
 S   1 1.00       0.000000000000
      0.3258400000D+00  0.1000000000D+01
 S   1 1.00       0.000000000000
      0.1027410000D+00  0.1000000000D+01
 P   1 1.00       0.000000000000
      0.7500000000D+00  0.1000000000D+01
 ****
     30 0
 S   3 1.00       0.000000000000
      0.3386500000D+02  0.2549381454D-01
      0.5094790000D+01  0.1903731086D+00
      0.1158790000D+01  0.8521614860D+00
 S   1 1.00       0.000000000000
      0.3258400000D+00  0.1000000000D+01
 S   1 1.00       0.000000000000
      0.1027410000D+00  0.1000000000D+01
 P   1 1.00       0.000000000000
      0.7500000000D+00  0.1000000000D+01
 ****
     31 0
 S   3 1.00       0.000000000000
      0.3386500000D+02  0.2549381454D-01
      0.5094790000D+01  0.1903731086D+00
      0.1158790000D+01  0.8521614860D+00
 S   1 1.00       0.000000000000
      0.3258400000D+00  0.1000000000D+01
 S   1 1.00       0.000000000000
      0.1027410000D+00  0.1000000000D+01
 P   1 1.00       0.000000000000
      0.7500000000D+00  0.1000000000D+01
 ****
     32 0
 S   3 1.00       0.000000000000
      0.3386500000D+02  0.2549381454D-01
      0.5094790000D+01  0.1903731086D+00
      0.1158790000D+01  0.8521614860D+00
 S   1 1.00       0.000000000000
      0.3258400000D+00  0.1000000000D+01
 S   1 1.00       0.000000000000
      0.1027410000D+00  0.1000000000D+01
 P   1 1.00       0.000000000000
      0.7500000000D+00  0.1000000000D+01
 ****
     33 0
 S   3 1.00       0.000000000000
      0.3386500000D+02  0.2549381454D-01
      0.5094790000D+01  0.1903731086D+00
      0.1158790000D+01  0.8521614860D+00
 S   1 1.00       0.000000000000
      0.3258400000D+00  0.1000000000D+01
 S   1 1.00       0.000000000000
      0.1027410000D+00  0.1000000000D+01
 P   1 1.00       0.000000000000
      0.7500000000D+00  0.1000000000D+01
 ****
     34 0
 S   3 1.00       0.000000000000
      0.3386500000D+02  0.2549381454D-01
      0.5094790000D+01  0.1903731086D+00
      0.1158790000D+01  0.8521614860D+00
 S   1 1.00       0.000000000000
      0.3258400000D+00  0.1000000000D+01
 S   1 1.00       0.000000000000
      0.1027410000D+00  0.1000000000D+01
 P   1 1.00       0.000000000000
      0.7500000000D+00  0.1000000000D+01
 ****
     35 0
 S   3 1.00       0.000000000000
      0.3386500000D+02  0.2549381454D-01
      0.5094790000D+01  0.1903731086D+00
      0.1158790000D+01  0.8521614860D+00
 S   1 1.00       0.000000000000
      0.3258400000D+00  0.1000000000D+01
 S   1 1.00       0.000000000000
      0.1027410000D+00  0.1000000000D+01
 P   1 1.00       0.000000000000
      0.7500000000D+00  0.1000000000D+01
 ****
     36 0
 S   3 1.00       0.000000000000
      0.3386500000D+02  0.2549381454D-01
      0.5094790000D+01  0.1903731086D+00
      0.1158790000D+01  0.8521614860D+00
 S   1 1.00       0.000000000000
      0.3258400000D+00  0.1000000000D+01
 S   1 1.00       0.000000000000
      0.1027410000D+00  0.1000000000D+01
 P   1 1.00       0.000000000000
      0.7500000000D+00  0.1000000000D+01
 ****
     37 0
 S   3 1.00       0.000000000000
      0.3386500000D+02  0.2549381454D-01
      0.5094790000D+01  0.1903731086D+00
      0.1158790000D+01  0.8521614860D+00
 S   1 1.00       0.000000000000
      0.3258400000D+00  0.1000000000D+01
 S   1 1.00       0.000000000000
      0.1027410000D+00  0.1000000000D+01
 P   1 1.00       0.000000000000
      0.7500000000D+00  0.1000000000D+01
 ****
     38 0
 S   3 1.00       0.000000000000
      0.3386500000D+02  0.2549381454D-01
      0.5094790000D+01  0.1903731086D+00
      0.1158790000D+01  0.8521614860D+00
 S   1 1.00       0.000000000000
      0.3258400000D+00  0.1000000000D+01
 S   1 1.00       0.000000000000
      0.1027410000D+00  0.1000000000D+01
 P   1 1.00       0.000000000000
      0.7500000000D+00  0.1000000000D+01
 ****
     39 0
 S   3 1.00       0.000000000000
      0.3386500000D+02  0.2549381454D-01
      0.5094790000D+01  0.1903731086D+00
      0.1158790000D+01  0.8521614860D+00
 S   1 1.00       0.000000000000
      0.3258400000D+00  0.1000000000D+01
 S   1 1.00       0.000000000000
      0.1027410000D+00  0.1000000000D+01
 P   1 1.00       0.000000000000
      0.7500000000D+00  0.1000000000D+01
 ****
     40 0
 S   3 1.00       0.000000000000
      0.3386500000D+02  0.2549381454D-01
      0.5094790000D+01  0.1903731086D+00
      0.1158790000D+01  0.8521614860D+00
 S   1 1.00       0.000000000000
      0.3258400000D+00  0.1000000000D+01
 S   1 1.00       0.000000000000
      0.1027410000D+00  0.1000000000D+01
 P   1 1.00       0.000000000000
      0.7500000000D+00  0.1000000000D+01
 ****
     41 0
 S   3 1.00       0.000000000000
      0.3386500000D+02  0.2549381454D-01
      0.5094790000D+01  0.1903731086D+00
      0.1158790000D+01  0.8521614860D+00
 S   1 1.00       0.000000000000
      0.3258400000D+00  0.1000000000D+01
 S   1 1.00       0.000000000000
      0.1027410000D+00  0.1000000000D+01
 P   1 1.00       0.000000000000
      0.7500000000D+00  0.1000000000D+01
 ****
     42 0
 S   3 1.00       0.000000000000
      0.3386500000D+02  0.2549381454D-01
      0.5094790000D+01  0.1903731086D+00
      0.1158790000D+01  0.8521614860D+00
 S   1 1.00       0.000000000000
      0.3258400000D+00  0.1000000000D+01
 S   1 1.00       0.000000000000
      0.1027410000D+00  0.1000000000D+01
 P   1 1.00       0.000000000000
      0.7500000000D+00  0.1000000000D+01
 ****
     43 0
 S   3 1.00       0.000000000000
      0.3386500000D+02  0.2549381454D-01
      0.5094790000D+01  0.1903731086D+00
      0.1158790000D+01  0.8521614860D+00
 S   1 1.00       0.000000000000
      0.3258400000D+00  0.1000000000D+01
 S   1 1.00       0.000000000000
      0.1027410000D+00  0.1000000000D+01
 P   1 1.00       0.000000000000
      0.7500000000D+00  0.1000000000D+01
 ****
     44 0
 S   3 1.00       0.000000000000
      0.3386500000D+02  0.2549381454D-01
      0.5094790000D+01  0.1903731086D+00
      0.1158790000D+01  0.8521614860D+00
 S   1 1.00       0.000000000000
      0.3258400000D+00  0.1000000000D+01
 S   1 1.00       0.000000000000
      0.1027410000D+00  0.1000000000D+01
 P   1 1.00       0.000000000000
      0.7500000000D+00  0.1000000000D+01
 ****
     45 0
 S   3 1.00       0.000000000000
      0.3386500000D+02  0.2549381454D-01
      0.5094790000D+01  0.1903731086D+00
      0.1158790000D+01  0.8521614860D+00
 S   1 1.00       0.000000000000
      0.3258400000D+00  0.1000000000D+01
 S   1 1.00       0.000000000000
      0.1027410000D+00  0.1000000000D+01
 P   1 1.00       0.000000000000
      0.7500000000D+00  0.1000000000D+01
 ****
     46 0
 S   3 1.00       0.000000000000
      0.3386500000D+02  0.2549381454D-01
      0.5094790000D+01  0.1903731086D+00
      0.1158790000D+01  0.8521614860D+00
 S   1 1.00       0.000000000000
      0.3258400000D+00  0.1000000000D+01
 S   1 1.00       0.000000000000
      0.1027410000D+00  0.1000000000D+01
 P   1 1.00       0.000000000000
      0.7500000000D+00  0.1000000000D+01
 ****
     47 0
 S   3 1.00       0.000000000000
      0.3386500000D+02  0.2549381454D-01
      0.5094790000D+01  0.1903731086D+00
      0.1158790000D+01  0.8521614860D+00
 S   1 1.00       0.000000000000
      0.3258400000D+00  0.1000000000D+01
 S   1 1.00       0.000000000000
      0.1027410000D+00  0.1000000000D+01
 P   1 1.00       0.000000000000
      0.7500000000D+00  0.1000000000D+01
 ****
     48 0
 S   3 1.00       0.000000000000
      0.3386500000D+02  0.2549381454D-01
      0.5094790000D+01  0.1903731086D+00
      0.1158790000D+01  0.8521614860D+00
 S   1 1.00       0.000000000000
      0.3258400000D+00  0.1000000000D+01
 S   1 1.00       0.000000000000
      0.1027410000D+00  0.1000000000D+01
 P   1 1.00       0.000000000000
      0.7500000000D+00  0.1000000000D+01
 ****
     49 0
 S   3 1.00       0.000000000000
      0.3386500000D+02  0.2549381454D-01
      0.5094790000D+01  0.1903731086D+00
      0.1158790000D+01  0.8521614860D+00
 S   1 1.00       0.000000000000
      0.3258400000D+00  0.1000000000D+01
 S   1 1.00       0.000000000000
      0.1027410000D+00  0.1000000000D+01
 P   1 1.00       0.000000000000
      0.7500000000D+00  0.1000000000D+01
 ****
     50 0
 S   3 1.00       0.000000000000
      0.3386500000D+02  0.2549381454D-01
      0.5094790000D+01  0.1903731086D+00
      0.1158790000D+01  0.8521614860D+00
 S   1 1.00       0.000000000000
      0.3258400000D+00  0.1000000000D+01
 S   1 1.00       0.000000000000
      0.1027410000D+00  0.1000000000D+01
 P   1 1.00       0.000000000000
      0.7500000000D+00  0.1000000000D+01
 ****
     51 0
 S   3 1.00       0.000000000000
      0.3386500000D+02  0.2549381454D-01
      0.5094790000D+01  0.1903731086D+00
      0.1158790000D+01  0.8521614860D+00
 S   1 1.00       0.000000000000
      0.3258400000D+00  0.1000000000D+01
 S   1 1.00       0.000000000000
      0.1027410000D+00  0.1000000000D+01
 P   1 1.00       0.000000000000
      0.7500000000D+00  0.1000000000D+01
 ****
     52 0
 S   3 1.00       0.000000000000
      0.3386500000D+02  0.2549381454D-01
      0.5094790000D+01  0.1903731086D+00
      0.1158790000D+01  0.8521614860D+00
 S   1 1.00       0.000000000000
      0.3258400000D+00  0.1000000000D+01
 S   1 1.00       0.000000000000
      0.1027410000D+00  0.1000000000D+01
 P   1 1.00       0.000000000000
[...]
 1,0.00009595,0.00000027,-0.00000047,-0.00000007,0.00000022,0.00000014,
 -0.00000024,-0.00143142,0.00339385,0.00120690,0.00040737,-0.00091020,-
 0.00013446,0.00000004,0.00000052,0.00000031,0.00000037,-0.00000033,0.0
 0000008,-0.00000004,0.,-0.00000013,0.06567560,0.00000288,-0.00000317,0
 .00000450,-0.00000135,-0.00000010,-0.00000131,0.00000086,-0.00000037,0
 .00000189,-0.00000332,-0.00000204,-0.00000278,-0.00000115,-0.00000071,
 0.00000006,0.00000471,0.00000288,0.00000623,-0.00000055,-0.00000051,0.
 00000032,-0.00000380,-0.00001329,-0.00000334,-0.00000023,-0.00000052,0
 .00000024,0.00000939,0.00000845,0.00001728,-0.00000052,-0.00000078,0.0
 0000037,-0.00001305,-0.00000524,0.00006120,-0.00000029,-0.00000021,0.0
 0000025,0.00026050,0.00002361,-0.00002929,-0.00000040,-0.00000031,0.00
 000015,-0.00152800,0.00103549,0.00054846,-0.00000004,-0.00000036,0.000
 00019,-0.00639690,-0.02307781,0.01361293,-0.00000017,-0.00000009,0.000
 00012,-0.05428906,-0.21872376,0.10623969,-0.00000148,0.00000019,0.0000
 0153,0.00000013,-0.00000122,-0.00000201,-0.00000049,-0.00000062,0.0000
 0013,0.00000351,0.00000217,-0.00000131,-0.00000028,-0.00000057,0.00000
 011,-0.00000063,0.00000197,-0.00000132,0.00000050,0.00000094,-0.000000
 20,0.00000256,-0.00000013,-0.00000042,0.00000050,-0.00000023,0.0000002
 8,0.00000096,0.00000122,-0.00000048,-0.00000094,-0.00000294,-0.0000000
 3,-0.00000029,0.00000529,-0.00000410,0.00000033,0.00000063,-0.00000095
 ,0.00000039,0.00000007,0.00000018,0.00000744,0.00000779,-0.00000307,0.
 00000162,-0.00000015,0.00000111,0.00000095,0.00000035,-0.00000049,-0.0
 0000046,-0.00000061,0.00000010,-0.00000565,0.00001734,-0.00001046,-0.0
 0000819,-0.00000360,0.00000308,0.00000036,0.00000024,-0.00000065,0.000
 00020,0.00000068,0.00000042,0.00003720,0.00000135,0.00001599,0.0000562
 6,0.00002534,-0.00001652,0.00000046,0.00000014,-0.00000032,-0.00000022
 ,0.00000048,0.00000016,-0.00010961,0.00008081,-0.00017523,0.00002687,-
 0.00011205,0.00011109,0.00000004,0.00000005,0.00000012,0.00000032,0.00
 000020,-0.00000039,0.00113694,0.00058754,-0.00025689,-0.00015320,0.000
 44039,-0.00027719,-0.00000025,-0.00000010,0.00000004,0.00000037,0.0000
 0016,-0.00000031,0.00323717,-0.00331035,-0.00278796,-0.00048579,0.0006
 8272,-0.00037297,0.00000013,0.00000039,0.00000023,-0.00000006,-0.00000
 008,0.00000003,0.00000019,0.,-0.00000023,0.05750614,0.24184887,-0.0000
 0167,0.00000368,0.00000077,0.00000047,-0.00000023,-0.00000013,-0.00000
 017,0.00000084,0.00000015,0.00000102,0.00000091,-0.00000001,0.00000022
 ,0.00000014,-0.00000014,-0.00000376,-0.00000071,0.00000049,0.00000033,
 0.00000038,-0.00000010,-0.00000142,0.00001204,-0.00000276,-0.00000061,
 0.00000051,-0.00000006,-0.00002738,-0.00002122,0.00001387,0.00000024,0
 .00000057,-0.00000009,0.00003432,0.00007801,0.00001710,-0.00000015,0.0
 0000020,-0.00000010,-0.00018193,-0.00001893,-0.00000442,0.00000019,0.0
 0000023,-0.00000012,-0.00043596,0.00014871,0.00043681,-0.00000045,0.00
 000034,-0.00000004,-0.00307311,-0.01023457,0.00589139,0.00000006,0.000
 00011,-0.00000010,0.03273043,0.10646367,-0.11219474,0.00000113,-0.0000
 0144,-0.00000076,0.00000007,-0.00000001,-0.00000013,-0.00000013,0.0000
 0038,-0.00000057,-0.00000153,-0.00000087,0.00000093,0.,0.00000007,-0.0
 0000060,0.00000020,-0.00000103,0.00000054,-0.00000045,0.00000015,-0.00
 000030,-0.00000038,-0.00000094,0.00000011,0.00000030,-0.00000043,-0.00
 000026,-0.00000041,-0.00000028,0.00000035,0.00000071,0.00000004,-0.000
 00132,0.00000012,-0.00000294,0.00000080,-0.00000030,-0.00000016,0.0000
 0030,0.00000019,-0.00000026,-0.00000009,-0.00000310,-0.00000264,0.0000
 0466,-0.00000161,0.00000085,-0.00000212,-0.00000033,-0.00000010,0.0000
 0016,0.00000070,0.00000005,0.00000014,0.00000601,-0.00001165,-0.000003
 37,0.00000361,-0.00000270,-0.00000864,-0.00000013,0.00000013,0.0000001
 6,-0.00000034,-0.00000072,-0.00000034,-0.00000606,-0.00000020,-0.00000
 768,-0.00004974,-0.00002621,0.00003732,-0.00000006,0.00000003,0.000000
 11,0.00000017,-0.00000052,-0.00000012,0.00007418,-0.00014765,-0.000041
 69,0.00005018,0.00015723,-0.00014909,0.00000034,-0.00000020,0.00000004
 ,-0.00000025,0.,0.00000015,-0.00024157,0.00031536,0.00002289,-0.000260
 71,-0.00005630,-0.00002084,0.00000047,-0.00000014,0.00000001,-0.000000
 17,-0.00000005,0.00000012,0.00153788,-0.00236852,0.00029192,-0.0006446
 1,0.00026445,0.00068870,-0.00000022,-0.00000023,-0.00000012,0.00000031
 ,-0.00000014,-0.00000001,-0.00000017,0.00000011,0.00000008,-0.03755345
 ,-0.11610853,0.11852769,-0.00000405,-0.00000057,-0.00001266,0.00000763
 ,0.00000310,0.00000703,-0.00000470,-0.00000594,-0.00000603,0.00000826,
 0.00001650,0.00001141,0.00000583,0.00000252,0.00000187,-0.00002007,-0.
 00003902,-0.00001392,0.00000098,0.00000025,0.00000022,0.00003110,0.000
 04876,-0.00001212,0.00000472,-0.00000035,-0.00000062,-0.00008102,-0.00
 006631,0.00004049,0.00000054,0.00000130,0.00000066,0.00003597,0.000085
 87,-0.00001228,0.00000254,-0.00000087,-0.00000174,0.00032641,-0.000058
 88,0.00044118,0.00000033,0.00000038,0.00000143,0.00014088,0.00383501,0
 .00159538,0.00000183,0.00000058,-0.00000095,-0.01524673,-0.00403160,-0
 .00242372,0.00000025,-0.00000053,0.00000051,-0.29459525,-0.04064704,-0
 .03310989,0.00000273,0.00001167,0.00000174,0.00000106,-0.00000139,0.00
 000023,0.00000026,0.00000184,-0.00000320,-0.00000763,-0.00000432,0.000
 00350,0.00000051,0.00000027,-0.00000073,0.00000243,-0.00000251,0.00000
 183,-0.00000116,-0.00000657,-0.00000402,-0.00001896,0.00000927,0.00000
 370,-0.00000586,0.00000311,0.00000005,-0.00000179,-0.00000278,-0.00000
 001,0.00000315,0.00000212,0.00000052,0.00000072,0.00000340,-0.00000013
 ,0.00000144,-0.00000245,0.00000206,-0.00000511,0.00000129,-0.00000080,
 0.00000019,-0.00000629,0.00000449,-0.00002448,-0.00000343,-0.00001372,
 -0.00000218,-0.00000106,0.00000093,-0.00000227,0.00000442,-0.00000032,
 0.00000571,0.00001100,-0.00000967,0.00004179,-0.00002819,-0.00006113,-
 0.00000050,-0.00000071,0.00000157,0.00000010,-0.00000106,-0.00000075,-
 0.00006328,-0.00000938,-0.00004828,0.00000731,-0.00000009,0.00002391,-
 0.00000140,-0.00000026,0.00000067,0.00000044,-0.00000052,0.00000015,-0
 .00004681,0.00007826,-0.00006035,0.00008374,-0.00000272,0.00008943,-0.
 00000271,0.00000054,-0.00000140,0.00000047,-0.00000081,0.00000040,0.00
 041507,-0.00001617,-0.00007530,-0.00123150,-0.00000407,-0.00021208,-0.
 00000109,0.00000143,0.00000035,-0.00000032,-0.00000030,0.00000041,0.00
 042803,0.00035673,-0.00044973,0.00061237,-0.00023463,0.00059795,-0.000
 00012,-0.00000147,-0.00000087,-0.00000127,0.00000100,-0.00000025,0.000
 00039,0.00000013,0.00000011,-0.00738904,-0.00111036,-0.00114190,0.3213
 2466,0.00000181,-0.00000158,0.00000172,-0.00000148,-0.00000047,-0.0000
 0123,0.00000104,0.00000084,0.00000074,-0.00000289,-0.00000167,-0.00000
 077,-0.00000077,-0.00000038,-0.00000029,-0.00000128,0.00000827,-0.0000
 0233,-0.00000005,-0.00000004,-0.00000024,-0.00001534,0.00000463,0.0000
 4816,-0.00000030,-0.00000007,0.00000009,0.00001007,0.00000353,-0.00007
 241,0.00000009,-0.00000016,-0.00000027,-0.00000945,0.00004652,0.000145
 67,-0.00000014,0.00000009,0.00000026,-0.00005151,-0.00016600,-0.000604
 87,0.00000009,0.,-0.00000026,0.00125851,-0.00467526,-0.00201220,0.0000
 0007,-0.00000015,0.00000012,0.02740217,0.00446012,0.00390227,0.0000000
 5,0.00000010,-0.00000010,-0.04151421,-0.05231622,-0.00492973,-0.000001
 17,-0.00000147,0.00000016,-0.00000040,0.00000019,0.00000028,0.00000021
 ,-0.00000037,0.00000075,0.00000180,0.00000081,-0.00000077,-0.00000015,
 -0.00000002,0.00000029,-0.00000049,0.00000059,-0.00000030,0.00000095,0
 .00000136,0.00000103,0.00000332,-0.00000129,-0.00000107,0.00000074,-0.
 00000022,0.00000003,0.00000034,0.00000029,-0.00000002,-0.00000222,-0.0
 0000007,0.00000232,-0.00000064,-0.00000041,0.00000021,-0.00000026,0.00
 000027,-0.00000020,0.00000055,0.,0.00000013,0.00000269,0.00000207,-0.0
 0000476,0.00002248,0.00000174,0.00000514,0.00000025,0.00000007,-0.0000
 0002,0.,-0.00000056,-0.00000011,-0.00000275,-0.00000195,0.00001019,-0.
 00003971,0.00002936,0.00006725,-0.00000005,-0.00000010,-0.00000007,0.0
 0000015,0.00000031,0.00000018,0.00006147,0.00001003,0.00003306,0.00001
 074,0.00000211,-0.00002732,0.00000004,-0.00000004,0.,-0.00000009,0.000
 00017,-0.00000006,-0.00001041,0.00002428,0.00004712,-0.00007403,0.0001
 4007,0.00025024,0.00000014,0.00000003,0.00000012,-0.00000008,0.,0.0000
 0005,0.00010797,0.00016371,-0.00024723,0.00160452,0.00018659,-0.000099
 69,-0.00000004,-0.00000004,-0.00000008,-0.00000002,-0.00000001,0.00000
 003,-0.00047593,0.00078641,0.00072311,-0.00068171,0.00119295,0.0001585
 6,0.00000009,0.00000009,0.00000008,-0.00000001,0.00000001,0.00000003,-
 0.00000004,-0.00000008,0.00000006,-0.02608874,-0.00414509,-0.00480926,
 0.04270453,0.05609397,-0.00000021,-0.00000016,-0.00000149,0.00000062,0
 .00000025,0.00000089,-0.00000056,-0.00000077,-0.00000030,-0.00000111,0
 .00000825,0.00000398,0.00000050,0.00000020,0.00000034,-0.00001877,-0.0
 0001242,-0.00000833,0.00000008,-0.00000004,0.00000005,-0.00000747,0.00
 005399,0.00004441,0.00000051,-0.00000010,0.,-0.00011093,-0.00007498,-0
 .00006002,0.,0.00000005,0.00000012,0.00004818,0.00025135,0.00022539,0.
 00000028,-0.00000015,-0.00000015,-0.00008448,-0.00049450,-0.00040154,-
 0.00000005,0.00000001,0.00000025,0.00083149,-0.00239456,-0.00076385,0.
 00000024,0.00000003,-0.00000008,0.01212678,0.00243157,0.00033239,-0.00
 000003,-0.00000010,0.00000012,-0.03368460,-0.00491437,-0.05025145,0.00
 000031,0.00000132,-0.00000010,-0.00000020,0.00000005,0.00000042,0.0000
 0019,0.00000011,-0.00000033,-0.00000076,-0.00000036,0.00000030,-0.0000
 0007,0.00000001,-0.00000011,0.00000033,-0.00000022,0.00000014,0.000000
 77,-0.00000093,-0.00000041,-0.00000441,0.00000105,0.00000031,-0.000000
 61,0.00000025,0.00000004,-0.00000015,-0.00000014,-0.00000007,-0.000001
 06,0.00000081,0.00000265,0.00000044,0.00000124,-0.00000086,0.00000026,
 -0.00000023,0.00000011,-0.00000061,0.00000016,-0.00000004,0.00000170,-
 0.00000117,-0.00000082,0.00001150,-0.00000031,-0.00000030,-0.00000014,
 -0.00000007,0.00000004,-0.00000034,0.00000048,-0.00000006,0.00000435,-
 0.00000141,-0.00000186,-0.00001929,0.00001363,0.00004252,0.00000001,-0
 .00000005,0.00000011,0.00000004,-0.00000009,-0.00000006,0.00004770,0.0
 0000086,0.00001249,-0.00002894,-0.00001855,-0.00000265,-0.00000011,0.0
 0000002,0.00000001,0.00000001,-0.00000005,0.00000004,0.00000299,0.0000
 6273,0.00004637,0.00004616,0.00045793,0.00036985,-0.00000037,0.0000000
 7,-0.00000016,0.00000015,-0.00000007,-0.00000003,-0.00039656,-0.000134
 84,0.00006245,0.00082073,-0.00021831,0.00020752,-0.00000018,0.00000018
 ,0.00000007,0.00000003,0.,-0.00000003,-0.00054756,0.00019834,0.0002099
 3,0.00015955,0.00060971,0.00027770,-0.00000002,-0.00000018,-0.00000009
 ,-0.00000018,0.00000011,-0.00000003,0.00000012,0.00000006,-0.00000005,
 0.01696306,0.00208546,0.00173396,0.03551390,0.00746571,0.05148404,0.00
 000212,0.00000082,0.00000835,-0.00000379,-0.00000162,-0.00000435,0.000
 00278,0.00000340,0.00000326,-0.00000231,-0.00001654,-0.00000984,-0.000
 00287,-0.00000133,-0.00000112,0.00002693,0.00003098,0.00001639,-0.0000
 0045,-0.00000014,-0.00000008,0.00000205,-0.00007542,-0.00004005,-0.000
 00244,0.00000031,0.00000024,0.00012596,0.00011075,0.00006459,-0.000000
 18,-0.00000064,-0.00000039,-0.00004495,-0.00029040,-0.00012985,-0.0000
 0127,0.00000051,0.00000085,-0.00045827,0.00045087,-0.00009900,-0.00000
 004,-0.00000019,-0.00000080,0.00060064,-0.00051497,0.00055984,-0.00000
 091,-0.00000027,0.00000045,0.00327463,0.00187760,0.01768558,-0.0000000
 4,0.00000029,-0.00000032,-0.05322095,-0.00705465,-0.04206845,-0.000001
 60,-0.00000646,-0.00000062,-0.00000003,0.00000018,-0.00000122,-0.00000
 044,-0.00000095,0.00000142,0.00000417,0.00000228,-0.00000167,-0.000000
 24,-0.00000020,0.00000011,-0.00000136,0.00000137,-0.00000094,-0.000000
 64,0.00000385,0.00000184,0.00001321,-0.00000506,-0.00000177,0.00000310
 ,-0.00000157,-0.00000005,0.00000094,0.00000136,0.00000006,0.00000007,-
 0.00000207,-0.00000487,-0.00000058,-0.00000322,0.00000120,-0.00000081,
 0.00000125,-0.00000101,0.00000260,-0.00000066,0.00000036,-0.00000255,0
 .00000409,0.00000008,-0.00000103,0.00000145,0.00000383,0.00000108,0.00
 000050,-0.00000040,0.00000118,-0.00000228,0.00000019,-0.00000593,-0.00
 000767,0.00000568,-0.00000062,-0.00000294,-0.00001507,0.00000017,0.000
 00033,-0.00000077,-0.00000007,0.00000052,0.00000035,0.00000680,0.00001
 031,0.00001663,0.00001809,0.00002447,-0.00000517,0.00000067,0.00000008
 ,-0.00000027,-0.00000019,0.00000026,-0.00000009,0.00000446,-0.00004236
 ,-0.00003023,-0.00174437,0.00018172,-0.00065758,0.00000136,-0.00000025
 ,0.00000071,-0.00000032,0.00000037,-0.00000013,-0.00010261,0.00002333,
 0.00000611,0.00010692,-0.00009548,-0.00028566,0.00000054,-0.00000071,-
 0.00000022,0.00000011,0.00000012,-0.00000012,0.00056450,-0.00071454,-0
 .00063082,-0.00138586,0.00311650,0.00145708,0.00000010,0.00000074,0.00
 000042,0.00000061,-0.00000047,0.00000014,-0.00000026,-0.00000013,0.,0.
 00063637,0.00181686,0.00919040,-0.00474056,-0.00422054,-0.03167322,0.0
 5632642,-0.00000069,0.00000072,-0.00000304,0.00000045,0.00000006,0.000
 00103,-0.00000057,-0.00000007,-0.00000117,-0.00000073,0.00000531,0.000
 00365,0.00000023,0.00000010,0.00000014,-0.00001164,-0.00000760,-0.0000
 1132,0.00000033,0.00000028,-0.00000028,-0.00000781,0.00003467,0.000022
 05,0.00000003,0.00000002,-0.00000003,-0.00007769,-0.00005035,-0.000056
 82,0.00000026,0.00000043,-0.00000023,0.00005069,0.00009915,0.00024811,
 0.00000005,0.,-0.00000004,0.00006556,0.00021813,-0.00005846,0.00000021
 ,0.00000016,-0.00000016,-0.00061407,0.00063303,0.00043690,-0.00000005,
 0.00000010,-0.00000002,-0.00556077,-0.00443514,-0.02688922,0.00000010,
 0.00000009,-0.00000009,-0.00696704,-0.05249827,-0.03790689,0.00000068,
 0.00000061,-0.00000021,-0.00000031,0.00000011,0.00000150,0.00000031,0.
 00000040,0.00000017,-0.00000115,-0.00000061,0.00000042,0.00000014,0.00
 000007,0.00000048,0.00000025,-0.00000066,0.00000022,0.00000134,-0.0000
 0001,0.00000084,-0.00000352,0.00000048,-0.00000015,-0.00000034,0.00000
 021,-0.00000004,-0.00000027,-0.00000035,0.00000014,-0.00000094,0.00000
 017,0.00000470,0.00000010,-0.00000104,-0.00000062,-0.00000015,-0.00000
 024,0.00000032,-0.00000011,-0.00000004,-0.00000003,-0.00000052,-0.0000
 0193,0.00000100,0.00000522,0.00000204,0.00000076,-0.00000029,-0.000000
 11,0.00000018,0.00000015,0.00000022,-0.00000003,0.00000722,-0.00000772
 ,-0.00000163,-0.00000613,-0.00000060,0.00002004,-0.00000015,-0.0000001
 3,0.00000025,-0.00000007,-0.00000020,-0.00000008,0.00004892,0.00000782
 ,-0.00000034,-0.00007363,-0.00003130,0.00002006,-0.00000017,-0.0000000
 6,0.00000013,0.00000008,-0.00000011,-0.00000008,0.00006344,-0.00023632
 ,0.00004992,0.00035157,0.00036404,0.00021982,0.00000001,-0.00000004,-0
 .00000002,-0.00000016,-0.00000008,0.00000017,0.00012037,0.00002972,0.0
 0006131,-0.00012613,0.00005222,0.00012400,0.00000012,0.00000003,-0.000
 00002,-0.00000013,-0.00000007,0.00000012,-0.00085304,0.00087814,0.0003
 1278,0.00351704,-0.00410114,-0.00193292,-0.00000006,-0.00000013,-0.000
 00006,0.00000005,0.,0.,-0.00000009,0.,0.00000010,0.00556987,0.00462926
 ,0.02637060,-0.00089261,-0.00184787,-0.00537688,0.00539623,0.05626439,
 -0.00000015,-0.00000199,-0.00000835,0.00000085,0.00000078,0.00000152,-
 0.00000129,-0.00000139,-0.00000335,-0.00000157,0.00001333,0.00000721,0
 .00000077,0.00000054,0.00000015,-0.00002817,-0.00002263,-0.00002213,0.
 00000036,0.00000011,-0.00000044,-0.00000803,0.00007982,0.00005147,0.00
 000118,-0.00000051,-0.00000036,-0.00017160,-0.00011328,-0.00008150,0.0
 0000053,0.00000035,-0.00000079,0.00004986,0.00042986,0.00041394,0.0000
 0051,-0.00000023,0.00000002,-0.00020829,-0.00072302,-0.00065817,0.0000
 0047,0.00000010,-0.00000041,-0.00064992,-0.00015927,-0.00027075,0.0000
 0091,-0.00000028,-0.00000014,-0.00141652,-0.00142679,-0.00978304,0.000
 00032,0.00000013,-0.00000022,-0.04135617,-0.03844645,-0.29215860,0.000
 00038,0.00000343,-0.00000096,-0.00000060,0.00000124,0.00000452,0.00000
 125,0.00000033,0.00000168,-0.00000197,-0.00000110,0.00000007,0.0000004
 9,0.00000052,0.00000204,0.00000052,-0.00000083,0.00000022,0.00000288,-
 0.00000147,0.00000260,-0.00000926,0.00000271,0.00000026,-0.00000142,0.
 00000130,0.00000035,-0.00000045,-0.00000101,0.00000004,-0.00000189,0.0
 0000189,0.00001037,0.00000032,0.00000154,-0.00000212,-0.00000003,-0.00
 000066,0.00000067,-0.00000069,0.00000029,-0.00000001,0.00000107,-0.000
 00406,-0.00000211,0.00001190,-0.00000024,0.00000457,-0.00000075,-0.000
 00019,0.00000055,-0.00000050,0.00000066,-0.00000049,0.00000514,-0.0000
 0034,-0.00000739,-0.00001583,0.00001702,0.00005432,-0.00000040,-0.0000
 0096,0.00000075,0.00000045,0.00000072,0.00000012,0.00009151,-0.0000014
 6,0.00002136,-0.00002406,-0.00002972,-0.00000984,-0.00000064,-0.000000
 34,0.00000035,-0.00000004,0.00000057,-0.00000003,0.00001219,0.00012105
 ,-0.00001355,-0.00069657,0.00087262,0.00068973,-0.00000059,0.00000028,
 -0.00000013,-0.00000015,-0.00000040,0.00000041,0.00002246,-0.00000413,
 0.00001258,0.00016566,0.00002342,0.00015782,-0.00000047,0.00000045,-0.
 00000025,-0.00000034,-0.00000016,0.00000037,0.00010309,-0.00035574,0.0
 0084276,0.00128209,-0.00191073,0.00104615,0.00000033,0.00000006,-0.000
 00003,-0.00000051,0.00000034,0.00000004,-0.00000008,-0.00000043,0.0000
 0034,-0.00312903,-0.00265517,-0.01523089,-0.00066948,-0.00004951,-0.00
 356368,0.04663998,0.04433899,0.31849033\\-0.00000332,0.00000034,0.0000
 0343,-0.00000203,-0.00000659,0.00000421,0.00000320,0.00000397,-0.00000
 010,0.00000556,-0.00000097,0.00000309,-0.00000431,0.00000216,-0.000002
 85,-0.00000307,0.00000400,-0.00000200,-0.00000448,-0.00000210,0.000006
 29,0.00000651,-0.00000147,0.00000418,0.00000437,0.00000481,-0.00000368
 ,-0.00000557,0.00000074,0.00000048,-0.00000476,-0.00000099,0.00000337,
 0.00000077,-0.00000043,-0.00000436,0.00000089,0.00000263,0.00000115,0.
 00000100,0.00000171,-0.00000324,0.00000317,0.00000370,0.,-0.00000065,0
 .00000138,0.00000360,0.00000063,-0.00000214,-0.00000304,0.00000273,-0.
 00000176,0.00000202,-0.00000610,-0.00000351,0.00000193,-0.00000449,-0.
 00000041,0.00000457,0.00000125,-0.00000229,-0.00000146,0.00000015,0.00
 000003,-0.00000040,-0.00000041,-0.00000009,-0.00000251,0.00000223,0.00
 000243,-0.00000197,-0.00000065,-0.00000079,-0.00000101,-0.00000145,-0.
 00000182,0.00000247,-0.00000061,0.00000013,-0.00000279,-0.00000156,0.0
 0000201,0.00000073,0.00000175,-0.00000331,-0.00000068,0.,-0.00000177,0
 .00000119,-0.00000025,-0.00000060,-0.00000046,-0.00000060,-0.00000221,
 0.00000201,0.00000199,0.00000120,-0.00000210,0.00000275,-0.00000196,0.
 00000009,0.00000004,0.00000050,-0.00000071,-0.00000101,0.00000032,-0.0
 0000211,-0.00000258,-0.00000233,0.00000239,-0.00000035,-0.00000052,-0.
 00000005,0.00000080,0.00000040,0.00000036,-0.00000051,0.00000059,-0.00
 000005,0.00000196,0.00000170,-0.00000157,0.00000073,-0.00000277,-0.000
 00119,0.00000047,0.00000085,0.00000081,0.,-0.00000098,0.00000094,0.000
 00134,-0.00000016,-0.00000090,-0.00000065,-0.00000226,-0.00000040,-0.0
 0000082,-0.00000048,0.00000099,-0.00000071,0.00000028,0.,-0.00000058,0
 .00000003,-0.00000020,-0.00000215,-0.00000101,0.00000167,0.00000011,0.
 00000060,-0.00000077,0.00000051,-0.00000139,-0.00000062,0.00000026,0.0
 0000065,-0.00000013,-0.00000081,-0.00000008,-0.00000055,0.00000024,0.0
 0000183,-0.00000069,-0.00000086,0.00000037,-0.00000144,0.00000161,0.00
 000351,0.00000020,0.00000317,-0.00000016,-0.00000019,0.00000126,0.0000
 0160,-0.00000164,0.00000069,0.00000180,-0.00000173,0.00000296,0.000001
 26,-0.00000042,0.00000024,-0.00000020,-0.00000413\\\@


 SEEN ON A WALL AT THE UNIVERSITY OF ILLINOIS AT CHICAGO CIRCLE:

 TO DO IS TO BE  -- SOCRATES
 TO BE IS TO DO  -- SARTRE
 OO BE DO BE DO  -- SINATRA
 Job cpu time:       1 days 10 hours 10 minutes 15.1 seconds.
 File lengths (MBytes):  RWF=   4161 Int=      0 D2E=      0 Chk=     36 Scr=      1
 Normal termination of Gaussian 09 at Mon Feb 23 02:35:56 2015.
