 Entering Gaussian System, Link 0=g09
 Input=0_0freq-corr_b971_124-38-9.gau
 Output=0_0freq-corr_b971_124-38-9.log
 Initial command:
 /opt/g09/l1.exe "/scratch/pb556/g09_run/add_hco//Gau-5720.inp" -scrdir="/scratch/pb556/g09_run/add_hco//"
 Entering Link 1 = /opt/g09/l1.exe PID=      5732.
  
 Copyright (c) 1988,1990,1992,1993,1995,1998,2003,2009,2013,
            Gaussian, Inc.  All Rights Reserved.
  
 This is part of the Gaussian(R) 09 program.  It is based on
 the Gaussian(R) 03 system (copyright 2003, Gaussian, Inc.),
 the Gaussian(R) 98 system (copyright 1998, Gaussian, Inc.),
 the Gaussian(R) 94 system (copyright 1995, Gaussian, Inc.),
 the Gaussian 92(TM) system (copyright 1992, Gaussian, Inc.),
 the Gaussian 90(TM) system (copyright 1990, Gaussian, Inc.),
 the Gaussian 88(TM) system (copyright 1988, Gaussian, Inc.),
 the Gaussian 86(TM) system (copyright 1986, Carnegie Mellon
 University), and the Gaussian 82(TM) system (copyright 1983,
 Carnegie Mellon University). Gaussian is a federally registered
 trademark of Gaussian, Inc.
  
 This software contains proprietary and confidential information,
 including trade secrets, belonging to Gaussian, Inc.
  
 This software is provided under written license and may be
 used, copied, transmitted, or stored only in accord with that
 written license.
  
 The following legend is applicable only to US Government
 contracts under FAR:
  
                    RESTRICTED RIGHTS LEGEND
  
 Use, reproduction and disclosure by the US Government is
 subject to restrictions as set forth in subparagraphs (a)
 and (c) of the Commercial Computer Software - Restricted
 Rights clause in FAR 52.227-19.
  
 Gaussian, Inc.
 340 Quinnipiac St., Bldg. 40, Wallingford CT 06492
  
  
 ---------------------------------------------------------------
 Warning -- This program may not be used in any manner that
 competes with the business of Gaussian, Inc. or will provide
 assistance to any competitor of Gaussian, Inc.  The licensee
 of this program is prohibited from giving any competitor of
 Gaussian, Inc. access to this program.  By using this program,
 the user acknowledges that Gaussian, Inc. is engaged in the
 business of creating and licensing software in the field of
 computational chemistry and represents and warrants to the
 licensee that it is not a competitor of Gaussian, Inc. and that
 it will not use this program in any manner prohibited above.
 ---------------------------------------------------------------
  

 Cite this work as:
 Gaussian 09, Revision D.01,
 M. J. Frisch, G. W. Trucks, H. B. Schlegel, G. E. Scuseria, 
 M. A. Robb, J. R. Cheeseman, G. Scalmani, V. Barone, B. Mennucci, 
 G. A. Petersson, H. Nakatsuji, M. Caricato, X. Li, H. P. Hratchian, 
 A. F. Izmaylov, J. Bloino, G. Zheng, J. L. Sonnenberg, M. Hada, 
 M. Ehara, K. Toyota, R. Fukuda, J. Hasegawa, M. Ishida, T. Nakajima, 
 Y. Honda, O. Kitao, H. Nakai, T. Vreven, J. A. Montgomery, Jr., 
 J. E. Peralta, F. Ogliaro, M. Bearpark, J. J. Heyd, E. Brothers, 
 K. N. Kudin, V. N. Staroverov, T. Keith, R. Kobayashi, J. Normand, 
 K. Raghavachari, A. Rendell, J. C. Burant, S. S. Iyengar, J. Tomasi, 
 M. Cossi, N. Rega, J. M. Millam, M. Klene, J. E. Knox, J. B. Cross, 
 V. Bakken, C. Adamo, J. Jaramillo, R. Gomperts, R. E. Stratmann, 
 O. Yazyev, A. J. Austin, R. Cammi, C. Pomelli, J. W. Ochterski, 
 R. L. Martin, K. Morokuma, V. G. Zakrzewski, G. A. Voth, 
 P. Salvador, J. J. Dannenberg, S. Dapprich, A. D. Daniels, 
 O. Farkas, J. B. Foresman, J. V. Ortiz, J. Cioslowski, 
 and D. J. Fox, Gaussian, Inc., Wallingford CT, 2013.
 
 ******************************************
 Gaussian 09:  ES64L-G09RevD.01 24-Apr-2013
                27-Apr-2015 
 ******************************************
 %NProcShared=8
 Will use up to    8 processors via shared memory.
 %Mem=500MW
 ----------------------------------------------------------------------
 #p rB971/6-311+G(d,p) Opt=(Tight, CalcAll) Freq GFInput Population=Non
 e Integral(Grid=UltraFine) Guess=MIX NoSymmetry
 ----------------------------------------------------------------------
 1/7=10,10=4,14=-1,18=20,19=15,26=4,38=1/1,3;
 2/9=110,12=2,15=1,17=6,18=5,40=1/2;
 3/5=4,6=6,7=111,11=2,16=1,24=10,25=1,30=1,71=2,74=-20,75=-5,116=1,140=1/1,2,3;
 4/13=-1/1;
 5/5=2,38=5/2;
 8/6=4,10=90,11=11/1;
 11/6=1,8=1,9=11,15=111,16=1,31=1/1,2,10;
 10/6=1,31=1/2;
 7/10=1,25=1,30=1/1,2,3,16;
 1/7=10,10=4,14=-1,18=20,19=15,26=4/3(3);
 2/9=110,15=1/2;
 7/8=1,9=1,25=1,30=1,44=-1/16;
 99//99;
 2/9=110,15=1/2;
 3/5=4,6=6,7=111,11=2,16=1,25=1,30=1,71=2,74=-20,75=-5,116=1,140=1/1,2,3;
 4/5=5,16=3,69=1/1;
 5/5=2,38=5/2;
 8/6=4,10=90,11=11/1;
 11/6=1,8=1,9=11,15=111,16=1,31=1/1,2,10;
 10/6=1,31=1/2;
 7/10=1,25=1,30=1/1,2,3,16;
 1/7=10,10=4,14=-1,18=20,19=15,26=4/3(-8);
 2/9=110,15=1/2;
 7/8=1,9=1,25=1,30=1,44=-1/16;
 99//99;
 Leave Link    1 at Mon Apr 27 14:35:46 2015, MaxMem=   524288000 cpu:         0.5
 (Enter /opt/g09/l101.exe)
 ----------------------------------------------------------------------
 W:\Data\additional_hydrocarbons\nist\enthalpy_estimation\success\fine\
 corr_b971_124-38-9.g09
 ----------------------------------------------------------------------
 Symbolic Z-matrix:
 Charge =  0 Multiplicity = 1
 C                     17.       10.       0. 
 O                     18.01558   10.56428   0. 
 O                     15.98442   9.43572   0. 
 
 NAtoms=      3 NQM=        3 NQMF=       0 NMMI=      0 NMMIF=      0
                NMic=       0 NMicF=      0.
                    Isotopes and Nuclear Properties:
 (Nuclear quadrupole moments (NQMom) in fm**2, nuclear magnetic moments (NMagM)
  in nuclear magnetons)

  Atom         1           2           3
 IAtWgt=          12          16          16
 AtmWgt=  12.0000000  15.9949146  15.9949146
 NucSpn=           0           0           0
 AtZEff=   0.0000000   0.0000000   0.0000000
 NQMom=    0.0000000   0.0000000   0.0000000
 NMagM=    0.0000000   0.0000000   0.0000000
 AtZNuc=   6.0000000   8.0000000   8.0000000
 Leave Link  101 at Mon Apr 27 14:35:47 2015, MaxMem=   524288000 cpu:         1.9
 (Enter /opt/g09/l103.exe)

 GradGradGradGradGradGradGradGradGradGradGradGradGradGradGradGradGradGrad
 Berny optimization.
 Initialization pass.
                           ----------------------------
                           !    Initial Parameters    !
                           ! (Angstroms and Degrees)  !
 --------------------------                            --------------------------
 ! Name  Definition              Value          Derivative Info.                !
 --------------------------------------------------------------------------------
 ! R1    R(1,2)                  1.1618         calculate D2E/DX2 analytically  !
 ! R2    R(1,3)                  1.1618         calculate D2E/DX2 analytically  !
 ! A1    L(2,1,3,-3,-1)        180.0            calculate D2E/DX2 analytically  !
 ! A2    L(2,1,3,-2,-2)        180.0            calculate D2E/DX2 analytically  !
 --------------------------------------------------------------------------------
 Trust Radius=3.00D-01 FncErr=1.00D-07 GrdErr=1.00D-06
 Number of steps in this run=     20 maximum allowed number of steps=    100.
 GradGradGradGradGradGradGradGradGradGradGradGradGradGradGradGradGradGrad

 Leave Link  103 at Mon Apr 27 14:35:47 2015, MaxMem=   524288000 cpu:         0.1
 (Enter /opt/g09/l202.exe)
                          Input orientation:                          
 ---------------------------------------------------------------------
 Center     Atomic      Atomic             Coordinates (Angstroms)
 Number     Number       Type             X           Y           Z
 ---------------------------------------------------------------------
      1          6           0       17.000000   10.000000    0.000000
      2          8           0       18.015580   10.564280    0.000000
      3          8           0       15.984420    9.435720    0.000000
 ---------------------------------------------------------------------
                    Distance matrix (angstroms):
                    1          2          3
     1  C    0.000000
     2  O    1.161815   0.000000
     3  O    1.161815   2.323630   0.000000
 Symmetry turned off by external request.
 Stoichiometry    CO2
 Framework group  D*H[O(C),C*(O.O)]
 Deg. of freedom     1
 Full point group                 D*H     NOp   8
 Rotational constants (GHZ):      0.0000000     11.7039143     11.7039143
 Leave Link  202 at Mon Apr 27 14:35:47 2015, MaxMem=   524288000 cpu:         0.0
 (Enter /opt/g09/l301.exe)
 Standard basis: 6-311+G(d,p) (5D, 7F)
 Ernie: Thresh=  0.10000D-02 Tol=  0.10000D-05 Strict=F.
 AO basis set in the form of general basis input (Overlap normalization):
      1 0
 S   6 1.00       0.000000000000
      0.4563240000D+04  0.1966650249D-02
      0.6820240000D+03  0.1523060193D-01
      0.1549730000D+03  0.7612690966D-01
      0.4445530000D+02  0.2608010331D+00
      0.1302900000D+02  0.6164620782D+00
      0.1827730000D+01  0.2210060280D+00
 SP   3 1.00       0.000000000000
      0.2096420000D+02  0.1146600807D+00  0.4024869267D-01
      0.4803310000D+01  0.9199996477D+00  0.2375939567D+00
      0.1459330000D+01 -0.3030682134D-02  0.8158538515D+00
 SP   1 1.00       0.000000000000
      0.4834560000D+00  0.1000000000D+01  0.1000000000D+01
 SP   1 1.00       0.000000000000
      0.1455850000D+00  0.1000000000D+01  0.1000000000D+01
 SP   1 1.00       0.000000000000
      0.4380000000D-01  0.1000000000D+01  0.1000000000D+01
 D   1 1.00       0.000000000000
      0.6260000000D+00  0.1000000000D+01
 ****
      2 0
 S   6 1.00       0.000000000000
      0.8588500000D+04  0.1895150083D-02
      0.1297230000D+04  0.1438590063D-01
      0.2992960000D+03  0.7073200310D-01
      0.8737710000D+02  0.2400010105D+00
      0.2567890000D+02  0.5947970261D+00
      0.3740040000D+01  0.2808020123D+00
 SP   3 1.00       0.000000000000
      0.4211750000D+02  0.1138890124D+00  0.3651139738D-01
      0.9628370000D+01  0.9208111006D+00  0.2371529830D+00
      0.2853320000D+01 -0.3274470358D-02  0.8197019412D+00
 SP   1 1.00       0.000000000000
      0.9056610000D+00  0.1000000000D+01  0.1000000000D+01
 SP   1 1.00       0.000000000000
      0.2556110000D+00  0.1000000000D+01  0.1000000000D+01
 SP   1 1.00       0.000000000000
      0.8450000000D-01  0.1000000000D+01  0.1000000000D+01
 D   1 1.00       0.000000000000
      0.1292000000D+01  0.1000000000D+01
 ****
      3 0
 S   6 1.00       0.000000000000
      0.8588500000D+04  0.1895150083D-02
      0.1297230000D+04  0.1438590063D-01
      0.2992960000D+03  0.7073200310D-01
      0.8737710000D+02  0.2400010105D+00
      0.2567890000D+02  0.5947970261D+00
      0.3740040000D+01  0.2808020123D+00
 SP   3 1.00       0.000000000000
      0.4211750000D+02  0.1138890124D+00  0.3651139738D-01
      0.9628370000D+01  0.9208111006D+00  0.2371529830D+00
      0.2853320000D+01 -0.3274470358D-02  0.8197019412D+00
 SP   1 1.00       0.000000000000
      0.9056610000D+00  0.1000000000D+01  0.1000000000D+01
 SP   1 1.00       0.000000000000
      0.2556110000D+00  0.1000000000D+01  0.1000000000D+01
 SP   1 1.00       0.000000000000
      0.8450000000D-01  0.1000000000D+01  0.1000000000D+01
 D   1 1.00       0.000000000000
      0.1292000000D+01  0.1000000000D+01
 ****

    66 basis functions,   108 primitive gaussians,    69 cartesian basis functions
    11 alpha electrons       11 beta electrons
       nuclear repulsion energy        58.3007351725 Hartrees.
 IExCor= 1614 DFT=T Ex+Corr=B971 ExCW=0 ScaHFX=  0.210000
 ScaDFX=  1.000000  1.000000  1.000000  1.000000 ScalE2=  1.000000  1.000000
 IRadAn=      5 IRanWt=     -1 IRanGd=            0 ICorTp=0 IEmpDi=  4
 NAtoms=    3 NActive=    3 NUniq=    3 SFac= 1.00D+00 NAtFMM=   60 NAOKFM=F Big=F
 Integral buffers will be    131072 words long.
 Raffenetti 2 integral format.
 Two-electron integral symmetry is turned off.
 Leave Link  301 at Mon Apr 27 14:35:47 2015, MaxMem=   524288000 cpu:         0.4
 (Enter /opt/g09/l302.exe)
 NPDir=0 NMtPBC=     1 NCelOv=     1 NCel=       1 NClECP=     1 NCelD=      1
         NCelK=      1 NCelE2=     1 NClLst=     1 CellRange=     0.0.
 One-electron integrals computed using PRISM.
 NBasis=    66 RedAO= T EigKep=  1.08D-03  NBF=    66
 NBsUse=    66 1.00D-06 EigRej= -1.00D+00 NBFU=    66
 Precomputing XC quadrature grid using
 IXCGrd= 4 IRadAn=           5 IRanWt=          -1 IRanGd=           0 AccXCQ= 0.00D+00.
 Generated NRdTot=       0 NPtTot=           0 NUsed=           0 NTot=          32
 NSgBfM=    69    69    69    69    69 MxSgAt=     3 MxSgA2=     3.
 Leave Link  302 at Mon Apr 27 14:35:47 2015, MaxMem=   524288000 cpu:         1.3
 (Enter /opt/g09/l303.exe)
 DipDrv:  MaxL=1.
 Leave Link  303 at Mon Apr 27 14:35:47 2015, MaxMem=   524288000 cpu:         0.3
 (Enter /opt/g09/l401.exe)
 ExpMin= 4.38D-02 ExpMax= 8.59D+03 ExpMxC= 1.30D+03 IAcc=3 IRadAn=         5 AccDes= 0.00D+00
 Harris functional with IExCor= 1614 and IRadAn=       5 diagonalized for initial guess.
 HarFok:  IExCor= 1614 AccDes= 0.00D+00 IRadAn=         5 IDoV= 1 UseB2=F ITyADJ=14
 ICtDFT=  3500011 ScaDFX=  1.000000  1.000000  1.000000  1.000000
 FoFCou: FMM=F IPFlag=           0 FMFlag=      100000 FMFlg1=           0
         NFxFlg=           0 DoJE=T BraDBF=F KetDBF=T FulRan=T
         wScrn=  0.000000 ICntrl=     500 IOpCl=  0 I1Cent=   200000004 NGrid=           0
         NMat0=    1 NMatS0=      1 NMatT0=    0 NMatD0=    1 NMtDS0=    0 NMtDT0=    0
 Symmetry not used in FoFCou.
 Harris En= -184.096235495615    
 JPrj=0 DoOrth=F DoCkMO=T.
 Mixing orbitals, IMix= 1 IMixAn=  0 NRI=1 NE=   11 Coef=  7.07106781D-01  7.07106781D-01
 Leave Link  401 at Mon Apr 27 14:35:47 2015, MaxMem=   524288000 cpu:         1.6
 (Enter /opt/g09/l502.exe)
 Closed shell SCF:
 Using DIIS extrapolation, IDIIS=  1040.
 Two-electron integral symmetry not used.
 Keep R1 ints in memory in canonical form, NReq=3371201.
 IVT=       33805 IEndB=       33805 NGot=   524288000 MDV=   521808830
 LenX=   521808830 LenY=   521803628
 Requested convergence on RMS density matrix=1.00D-08 within 128 cycles.
 Requested convergence on MAX density matrix=1.00D-06.
 Requested convergence on             energy=1.00D-06.
 No special actions if energy rises.
 FoFCou: FMM=F IPFlag=           0 FMFlag=           0 FMFlg1=           0
         NFxFlg=           0 DoJE=F BraDBF=F KetDBF=F FulRan=T
         wScrn=  0.000000 ICntrl=     600 IOpCl=  0 I1Cent=           0 NGrid=           0
         NMat0=    1 NMatS0=   2211 NMatT0=    0 NMatD0=    1 NMtDS0=    0 NMtDT0=    0
 Symmetry not used in FoFCou.

 Cycle   1  Pass 1  IDiag  1:
 E= -188.099350471434    
 DIIS: error= 1.44D-01 at cycle   1 NSaved=   1.
 NSaved= 1 IEnMin= 1 EnMin= -188.099350471434     IErMin= 1 ErrMin= 1.44D-01
 ErrMax= 1.44D-01  0.00D+00 EMaxC= 1.00D-01 BMatC= 5.13D-01 BMatP= 5.13D-01
 IDIUse=3 WtCom= 0.00D+00 WtEn= 1.00D+00
 Coeff-Com:  0.100D+01
 Coeff-En:   0.100D+01
 Coeff:      0.100D+01
 Gap=     0.042 Goal=   None    Shift=    0.000
 GapD=    0.042 DampG=0.250 DampE=0.250 DampFc=0.2500 IDamp=-1.
 Damping current iteration by 2.50D-01
 RMSDP=5.27D-02 MaxDP=2.12D+00              OVMax= 6.83D-01

 Cycle   2  Pass 1  IDiag  1:
 E= -188.248185070334     Delta-E=       -0.148834598900 Rises=F Damp=T
 DIIS: error= 1.03D-01 at cycle   2 NSaved=   2.
 NSaved= 2 IEnMin= 2 EnMin= -188.248185070334     IErMin= 2 ErrMin= 1.03D-01
 ErrMax= 1.03D-01  0.00D+00 EMaxC= 1.00D-01 BMatC= 2.10D-01 BMatP= 5.13D-01
 IDIUse=3 WtCom= 0.00D+00 WtEn= 1.00D+00
 Coeff-Com: -0.123D+01 0.223D+01
 Coeff-En:   0.000D+00 0.100D+01
 Coeff:      0.000D+00 0.100D+01
 Gap=     0.391 Goal=   None    Shift=    0.000
 RMSDP=3.93D-02 MaxDP=1.59D+00 DE=-1.49D-01 OVMax= 6.78D-02

 Cycle   3  Pass 1  IDiag  1:
 E= -188.542348244095     Delta-E=       -0.294163173761 Rises=F Damp=F
 DIIS: error= 4.78D-02 at cycle   3 NSaved=   3.
 NSaved= 3 IEnMin= 3 EnMin= -188.542348244095     IErMin= 3 ErrMin= 4.78D-02
 ErrMax= 4.78D-02  0.00D+00 EMaxC= 1.00D-01 BMatC= 6.84D-02 BMatP= 2.10D-01
 IDIUse=3 WtCom= 5.22D-01 WtEn= 4.78D-01
 Coeff-Com:  0.940D+00-0.106D+01 0.112D+01
 Coeff-En:   0.000D+00 0.000D+00 0.100D+01
 Coeff:      0.491D+00-0.555D+00 0.106D+01
 Gap=     0.399 Goal=   None    Shift=    0.000
 RMSDP=3.49D-03 MaxDP=6.28D-02 DE=-2.94D-01 OVMax= 8.28D-02

 Cycle   4  Pass 1  IDiag  1:
 E= -188.577780078494     Delta-E=       -0.035431834399 Rises=F Damp=F
 DIIS: error= 2.86D-02 at cycle   4 NSaved=   4.
 NSaved= 4 IEnMin= 4 EnMin= -188.577780078494     IErMin= 4 ErrMin= 2.86D-02
 ErrMax= 2.86D-02  0.00D+00 EMaxC= 1.00D-01 BMatC= 2.56D-02 BMatP= 6.84D-02
 IDIUse=3 WtCom= 7.14D-01 WtEn= 2.86D-01
 Coeff-Com: -0.205D+00 0.295D+00 0.262D+00 0.648D+00
 Coeff-En:   0.000D+00 0.000D+00 0.194D+00 0.806D+00
 Coeff:     -0.147D+00 0.210D+00 0.243D+00 0.694D+00
 Gap=     0.381 Goal=   None    Shift=    0.000
 RMSDP=1.38D-03 MaxDP=2.59D-02 DE=-3.54D-02 OVMax= 3.34D-02

 Cycle   5  Pass 1  IDiag  1:
 E= -188.592902975946     Delta-E=       -0.015122897452 Rises=F Damp=F
 DIIS: error= 6.34D-03 at cycle   5 NSaved=   5.
 NSaved= 5 IEnMin= 5 EnMin= -188.592902975946     IErMin= 5 ErrMin= 6.34D-03
 ErrMax= 6.34D-03  0.00D+00 EMaxC= 1.00D-01 BMatC= 1.71D-03 BMatP= 2.56D-02
 IDIUse=3 WtCom= 9.37D-01 WtEn= 6.34D-02
 Coeff-Com:  0.416D-02-0.750D-02 0.151D+00 0.347D+00 0.505D+00
 Coeff-En:   0.000D+00 0.000D+00 0.000D+00 0.000D+00 0.100D+01
 Coeff:      0.390D-02-0.702D-02 0.142D+00 0.325D+00 0.536D+00
 Gap=     0.374 Goal=   None    Shift=    0.000
 RMSDP=3.71D-04 MaxDP=5.73D-03 DE=-1.51D-02 OVMax= 1.13D-02

 Cycle   6  Pass 1  IDiag  1:
 E= -188.593964396223     Delta-E=       -0.001061420278 Rises=F Damp=F
 DIIS: error= 1.49D-03 at cycle   6 NSaved=   6.
 NSaved= 6 IEnMin= 6 EnMin= -188.593964396223     IErMin= 6 ErrMin= 1.49D-03
 ErrMax= 1.49D-03  0.00D+00 EMaxC= 1.00D-01 BMatC= 7.54D-05 BMatP= 1.71D-03
 IDIUse=3 WtCom= 9.85D-01 WtEn= 1.49D-02
 Coeff-Com: -0.381D-02 0.492D-02-0.637D-02 0.342D-02 0.191D+00 0.811D+00
 Coeff-En:   0.000D+00 0.000D+00 0.000D+00 0.000D+00 0.000D+00 0.100D+01
 Coeff:     -0.375D-02 0.484D-02-0.628D-02 0.337D-02 0.188D+00 0.814D+00
 Gap=     0.376 Goal=   None    Shift=    0.000
 RMSDP=7.83D-05 MaxDP=1.15D-03 DE=-1.06D-03 OVMax= 2.33D-03

 Cycle   7  Pass 1  IDiag  1:
 E= -188.594016596872     Delta-E=       -0.000052200649 Rises=F Damp=F
 DIIS: error= 4.80D-05 at cycle   7 NSaved=   7.
 NSaved= 7 IEnMin= 7 EnMin= -188.594016596872     IErMin= 7 ErrMin= 4.80D-05
 ErrMax= 4.80D-05  0.00D+00 EMaxC= 1.00D-01 BMatC= 1.29D-07 BMatP= 7.54D-05
 IDIUse=1 WtCom= 1.00D+00 WtEn= 0.00D+00
 Coeff-Com: -0.298D-03 0.380D-03-0.414D-02-0.755D-02 0.429D-02 0.816D-01
 Coeff-Com:  0.926D+00
 Coeff:     -0.298D-03 0.380D-03-0.414D-02-0.755D-02 0.429D-02 0.816D-01
 Coeff:      0.926D+00
 Gap=     0.376 Goal=   None    Shift=    0.000
 RMSDP=6.20D-06 MaxDP=5.77D-05 DE=-5.22D-05 OVMax= 2.36D-04

 Cycle   8  Pass 1  IDiag  1:
 E= -188.594016716498     Delta-E=       -0.000000119625 Rises=F Damp=F
 DIIS: error= 6.67D-06 at cycle   8 NSaved=   8.
 NSaved= 8 IEnMin= 8 EnMin= -188.594016716498     IErMin= 8 ErrMin= 6.67D-06
 ErrMax= 6.67D-06  0.00D+00 EMaxC= 1.00D-01 BMatC= 2.28D-09 BMatP= 1.29D-07
 IDIUse=1 WtCom= 1.00D+00 WtEn= 0.00D+00
 Coeff-Com:  0.159D-04-0.347D-04-0.950D-04-0.119D-03-0.265D-02-0.832D-02
 Coeff-Com:  0.671D-01 0.944D+00
 Coeff:      0.159D-04-0.347D-04-0.950D-04-0.119D-03-0.265D-02-0.832D-02
 Coeff:      0.671D-01 0.944D+00
 Gap=     0.376 Goal=   None    Shift=    0.000
 RMSDP=9.39D-07 MaxDP=1.20D-05 DE=-1.20D-07 OVMax= 2.99D-05

 Cycle   9  Pass 1  IDiag  1:
 E= -188.594016718605     Delta-E=       -0.000000002108 Rises=F Damp=F
 DIIS: error= 7.40D-07 at cycle   9 NSaved=   9.
 NSaved= 9 IEnMin= 9 EnMin= -188.594016718605     IErMin= 9 ErrMin= 7.40D-07
 ErrMax= 7.40D-07  0.00D+00 EMaxC= 1.00D-01 BMatC= 3.35D-11 BMatP= 2.28D-09
 IDIUse=1 WtCom= 1.00D+00 WtEn= 0.00D+00
 Coeff-Com:  0.167D-04-0.250D-04 0.387D-04 0.545D-04-0.559D-03-0.299D-02
 Coeff-Com: -0.848D-02 0.114D+00 0.898D+00
 Coeff:      0.167D-04-0.250D-04 0.387D-04 0.545D-04-0.559D-03-0.299D-02
 Coeff:     -0.848D-02 0.114D+00 0.898D+00
 Gap=     0.376 Goal=   None    Shift=    0.000
 RMSDP=9.28D-08 MaxDP=7.78D-07 DE=-2.11D-09 OVMax= 2.75D-06

 Cycle  10  Pass 1  IDiag  1:
 E= -188.594016718635     Delta-E=       -0.000000000030 Rises=F Damp=F
 DIIS: error= 1.07D-07 at cycle  10 NSaved=  10.
 NSaved=10 IEnMin=10 EnMin= -188.594016718635     IErMin=10 ErrMin= 1.07D-07
 ErrMax= 1.07D-07  0.00D+00 EMaxC= 1.00D-01 BMatC= 7.50D-13 BMatP= 3.35D-11
 IDIUse=1 WtCom= 1.00D+00 WtEn= 0.00D+00
 Coeff-Com: -0.900D-07 0.656D-06 0.399D-05 0.518D-05 0.695D-04 0.195D-03
 Coeff-Com: -0.843D-03-0.185D-01 0.374D-01 0.982D+00
 Coeff:     -0.900D-07 0.656D-06 0.399D-05 0.518D-05 0.695D-04 0.195D-03
 Coeff:     -0.843D-03-0.185D-01 0.374D-01 0.982D+00
 Gap=     0.376 Goal=   None    Shift=    0.000
 RMSDP=1.36D-08 MaxDP=1.64D-07 DE=-2.99D-11 OVMax= 4.66D-07

 Cycle  11  Pass 1  IDiag  1:
 E= -188.594016718635     Delta-E=        0.000000000000 Rises=F Damp=F
 DIIS: error= 1.59D-08 at cycle  11 NSaved=  11.
 NSaved=11 IEnMin=10 EnMin= -188.594016718635     IErMin=11 ErrMin= 1.59D-08
 ErrMax= 1.59D-08  0.00D+00 EMaxC= 1.00D-01 BMatC= 1.28D-14 BMatP= 7.50D-13
 IDIUse=1 WtCom= 1.00D+00 WtEn= 0.00D+00
 Coeff-Com:  0.288D-07-0.418D-07-0.610D-06-0.116D-05-0.188D-05 0.110D-04
 Coeff-Com:  0.147D-03-0.644D-03-0.404D-02-0.145D-01 0.102D+01
 Coeff:      0.288D-07-0.418D-07-0.610D-06-0.116D-05-0.188D-05 0.110D-04
 Coeff:      0.147D-03-0.644D-03-0.404D-02-0.145D-01 0.102D+01
 Gap=     0.376 Goal=   None    Shift=    0.000
 RMSDP=1.47D-09 MaxDP=1.32D-08 DE= 2.27D-13 OVMax= 3.44D-08

 SCF Done:  E(RB971) =  -188.594016719     A.U. after   11 cycles
            NFock= 11  Conv=0.15D-08     -V/T= 2.0026
 KE= 1.880995154005D+02 PE=-5.607524835409D+02 EE= 1.257582162492D+02
 Leave Link  502 at Mon Apr 27 14:35:49 2015, MaxMem=   524288000 cpu:        11.2
 (Enter /opt/g09/l801.exe)
 DoSCS=F DFT=T ScalE2(SS,OS)=  1.000000  1.000000
 Range of M.O.s used for correlation:     1    66
 NBasis=    66 NAE=    11 NBE=    11 NFC=     0 NFV=     0
 NROrb=     66 NOA=    11 NOB=    11 NVA=    55 NVB=    55
 Leave Link  801 at Mon Apr 27 14:35:49 2015, MaxMem=   524288000 cpu:         0.3
 (Enter /opt/g09/l1101.exe)
 Using compressed storage, NAtomX=     3.
 Will process      4 centers per pass.
 Leave Link 1101 at Mon Apr 27 14:35:49 2015, MaxMem=   524288000 cpu:         1.1
 (Enter /opt/g09/l1102.exe)
 Symmetrizing basis deriv contribution to polar:
 IMax=3 JMax=2 DiffMx= 0.00D+00
 Leave Link 1102 at Mon Apr 27 14:35:49 2015, MaxMem=   524288000 cpu:         0.3
 (Enter /opt/g09/l1110.exe)
 Forming Gx(P) for the SCF density, NAtomX=     3.
 Integral derivatives from FoFJK, PRISM(SPDF).
 Do as many integral derivatives as possible in FoFJK.
 G2DrvN: MDV=     524287872.
 G2DrvN: will do     4 centers at a time, making    1 passes.
 Calling FoFCou, ICntrl=  3107 FMM=F I1Cent=   0 AccDes= 0.00D+00.
 FoFJK:  IHMeth= 1 ICntrl=    3107 DoSepK=F KAlg= 0 I1Cent=   0 FoldK=F
 IRaf=         0 NMat=   1 IRICut=       1 DoRegI=T DoRafI=F ISym2E= 0.
 FoFCou: FMM=F IPFlag=           0 FMFlag=      100000 FMFlg1=           0
         NFxFlg=           0 DoJE=F BraDBF=F KetDBF=F FulRan=T
         wScrn=  0.000000 ICntrl=    3107 IOpCl=  0 I1Cent=           0 NGrid=           0
         NMat0=    1 NMatS0=      1 NMatT0=    0 NMatD0=    1 NMtDS0=    0 NMtDT0=    0
 Symmetry not used in FoFCou.
 End of G2Drv F.D. properties file   721 does not exist.
 End of G2Drv F.D. properties file   722 does not exist.
 End of G2Drv F.D. properties file   788 does not exist.
 Leave Link 1110 at Mon Apr 27 14:35:50 2015, MaxMem=   524288000 cpu:        10.3
 (Enter /opt/g09/l1002.exe)
 Minotr:  Closed shell wavefunction.
          IDoAtm=111
          Direct CPHF calculation.
          Differentiating once with respect to electric field.
                with respect to dipole field.
          Differentiating once with respect to nuclear coordinates.
          Requested convergence is 1.0D-08 RMS, and 1.0D-07 maximum.
          Secondary convergence is 1.0D-12 RMS, and 1.0D-12 maximum.
          NewPWx=T KeepS1=F KeepF1=F KeepIn=T MapXYZ=F SortEE=F KeepMc=T.
          MDV=     524287900 using IRadAn=       1.
 Generate precomputed XC quadrature information.
 Keep R1 ints in memory in canonical form, NReq=3335670.
 FoFCou: FMM=F IPFlag=           0 FMFlag=           0 FMFlg1=           0
         NFxFlg=           0 DoJE=F BraDBF=F KetDBF=F FulRan=T
         wScrn=  0.000000 ICntrl=     600 IOpCl=  0 I1Cent=           0 NGrid=           0
         NMat0=    1 NMatS0=   2211 NMatT0=    0 NMatD0=    1 NMtDS0=    0 NMtDT0=    0
 Symmetry not used in FoFCou.
          Solving linear equations simultaneously, MaxMat=       0.
          There are    12 degrees of freedom in the 1st order CPHF.  IDoFFX=6 NUNeed=     3.
      9 vectors produced by pass  0 Test12= 5.04D-15 8.33D-09 XBig12= 2.08D+01 2.92D+00.
 AX will form     9 AO Fock derivatives at one time.
      9 vectors produced by pass  1 Test12= 5.04D-15 8.33D-09 XBig12= 1.19D+01 1.29D+00.
      9 vectors produced by pass  2 Test12= 5.04D-15 8.33D-09 XBig12= 5.33D-02 7.32D-02.
      9 vectors produced by pass  3 Test12= 5.04D-15 8.33D-09 XBig12= 2.19D-04 4.60D-03.
      9 vectors produced by pass  4 Test12= 5.04D-15 8.33D-09 XBig12= 7.05D-07 2.70D-04.
      7 vectors produced by pass  5 Test12= 5.04D-15 8.33D-09 XBig12= 7.34D-09 2.97D-05.
      5 vectors produced by pass  6 Test12= 5.04D-15 8.33D-09 XBig12= 3.79D-11 1.43D-06.
      2 vectors produced by pass  7 Test12= 5.04D-15 8.33D-09 XBig12= 9.54D-14 9.33D-08.
 InvSVY:  IOpt=1 It=  1 EMax= 8.88D-16
 Solved reduced A of dimension    59 with     9 vectors.
 FullF1:  Do perturbations    1 to     3.
 Isotropic polarizability for W=    0.000000       14.57 Bohr**3.
 End of Minotr F.D. properties file   721 does not exist.
 End of Minotr F.D. properties file   722 does not exist.
 End of Minotr F.D. properties file   788 does not exist.
 Leave Link 1002 at Mon Apr 27 14:35:52 2015, MaxMem=   524288000 cpu:        16.1
 (Enter /opt/g09/l701.exe)
 Compute integral second derivatives.
 ... and contract with generalized density number  0.
 Leave Link  701 at Mon Apr 27 14:35:53 2015, MaxMem=   524288000 cpu:         1.8
 (Enter /opt/g09/l702.exe)
 L702 exits ... SP integral derivatives will be done elsewhere.
 Leave Link  702 at Mon Apr 27 14:35:53 2015, MaxMem=   524288000 cpu:         0.3
 (Enter /opt/g09/l703.exe)
 Compute integral second derivatives, UseDBF=F ICtDFT=           0.
 Integral derivatives from FoFJK, PRISM(SPDF).
 Calling FoFJK, ICntrl=    100127 FMM=F ISym2X=0 I1Cent= 0 IOpClX= 0 NMat=1 NMatS=1 NMatT=0.
 FoFJK:  IHMeth= 1 ICntrl=  100127 DoSepK=F KAlg= 0 I1Cent=   0 FoldK=F
 IRaf=         0 NMat=   1 IRICut=       1 DoRegI=T DoRafI=F ISym2E= 0.
 FoFCou: FMM=F IPFlag=           0 FMFlag=      100000 FMFlg1=         800
         NFxFlg=           0 DoJE=F BraDBF=F KetDBF=F FulRan=T
         wScrn=  0.000000 ICntrl=  100127 IOpCl=  0 I1Cent=           0 NGrid=           0
         NMat0=    1 NMatS0=      1 NMatT0=    0 NMatD0=    1 NMtDS0=    0 NMtDT0=    0
 Symmetry not used in FoFCou.
 Leave Link  703 at Mon Apr 27 14:35:55 2015, MaxMem=   524288000 cpu:        19.7
 (Enter /opt/g09/l716.exe)
 Dipole        = 5.18411980D-11 2.81943358D-11-6.52043190D-14
 Polarizability= 2.18696202D+01 7.19892920D+00 1.29130083D+01
                -1.13254994D-11-7.30414965D-12 8.91311920D+00
 -------------------------------------------------------------------
 Center     Atomic                   Forces (Hartrees/Bohr)
 Number     Number              X              Y              Z
 -------------------------------------------------------------------
      1        6           0.000000000    0.000000000    0.000000000
      2        8          -0.000007810   -0.000003868    0.000000000
      3        8           0.000007810    0.000003868    0.000000000
 -------------------------------------------------------------------
 Cartesian Forces:  Max     0.000007810 RMS     0.000004108
 Force constants in Cartesian coordinates: 
                1             2             3             4             5 
      1  0.152821D+01
      2  0.767495D+00  0.573457D+00
      3  0.000000D+00  0.000000D+00  0.147015D+00
      4 -0.764104D+00 -0.383748D+00  0.000000D+00  0.820841D+00
      5 -0.383748D+00 -0.286729D+00  0.000000D+00  0.435687D+00  0.278848D+00
      6  0.000000D+00  0.000000D+00 -0.735073D-01  0.000000D+00  0.000000D+00
      7 -0.764104D+00 -0.383748D+00  0.000000D+00 -0.567373D-01 -0.519396D-01
      8 -0.383748D+00 -0.286729D+00  0.000000D+00 -0.519396D-01  0.788045D-02
      9  0.000000D+00  0.000000D+00 -0.735073D-01  0.000000D+00  0.000000D+00
                6             7             8             9 
      6  0.367664D-01
      7  0.000000D+00  0.820841D+00
      8  0.000000D+00  0.435687D+00  0.278848D+00
      9  0.367409D-01  0.000000D+00  0.000000D+00  0.367664D-01
 FormGI is forming the generalized inverse of G from B-inverse, IUseBI=4.
 Force constants in internal coordinates: 
                1             2             3             4 
      1  0.106294D+01
      2  0.855969D-01  0.106294D+01
      3  0.311194D-04 -0.311194D-04  0.177120D+00
      4  0.000000D+00  0.000000D+00  0.000000D+00  0.135364D+00
 Leave Link  716 at Mon Apr 27 14:35:55 2015, MaxMem=   524288000 cpu:         0.3
 (Enter /opt/g09/l103.exe)

 GradGradGradGradGradGradGradGradGradGradGradGradGradGradGradGradGradGrad
 Berny optimization.
 Red2BG is reusing G-inverse.
 Internal  Forces:  Max     0.000008706 RMS     0.000006156
 Search for a local minimum.
 Step number   1 out of a maximum of   20
 All quantities printed in internal units (Hartrees-Bohrs-Radians)
 RMS Force = .61558D-05 SwitMx=.10000D-02 MixMth= 2
 Mixed Optimization -- En-DIIS/RFO-DIIS
 Second derivative matrix not updated -- analytic derivatives used.
 The second derivative matrix:
                          R1        R2        A1        A2
           R1           1.06294
           R2           0.08560   1.06294
           A1           0.00003  -0.00003   0.17712
           A2           0.00000   0.00000   0.00000   0.13536
 ITU=  0
     Eigenvalues ---    0.13536   0.17712   0.97734   1.14853
 RFO step:  Lambda= 0.00000000D+00 EMin= 1.35363916D-01
 Linear search not attempted -- first point.
 Iteration  1 RMS(Cart)=  0.00000536 RMS(Int)=  0.00000001
 Iteration  2 RMS(Cart)=  0.00000001 RMS(Int)=  0.00000000
 ITry= 1 IFail=0 DXMaxC= 6.63D-06 DCOld= 1.00D+10 DXMaxT= 3.00D-01 DXLimC= 3.00D+00 Rises=F
 Variable       Old X    -DE/DX   Delta X   Delta X   Delta X     New X
                                 (Linear)    (Quad)   (Total)
    R1        2.19551  -0.00001   0.00000  -0.00001  -0.00001   2.19551
    R2        2.19551  -0.00001   0.00000  -0.00001  -0.00001   2.19551
    A1        3.14159   0.00000   0.00000   0.00000   0.00000   3.14159
    A2        3.14159   0.00000   0.00000   0.00000   0.00000   3.14159
         Item               Value     Threshold  Converged?
 Maximum Force            0.000009     0.000015     YES
 RMS     Force            0.000006     0.000010     YES
 Maximum Displacement     0.000007     0.000060     YES
 RMS     Displacement     0.000005     0.000040     YES
 Predicted change in Energy=-6.598650D-11
 Optimization completed.
    -- Stationary point found.
                           ----------------------------
                           !   Optimized Parameters   !
                           ! (Angstroms and Degrees)  !
 --------------------------                            --------------------------
 ! Name  Definition              Value          Derivative Info.                !
 --------------------------------------------------------------------------------
 ! R1    R(1,2)                  1.1618         -DE/DX =    0.0                 !
 ! R2    R(1,3)                  1.1618         -DE/DX =    0.0                 !
 ! A1    L(2,1,3,-3,-1)        180.0            -DE/DX =    0.0                 !
 ! A2    L(2,1,3,-2,-2)        180.0            -DE/DX =    0.0                 !
 --------------------------------------------------------------------------------
 Lowest energy point so far.  Saving SCF results.
 GradGradGradGradGradGradGradGradGradGradGradGradGradGradGradGradGradGrad

 Largest change from initial coordinates is atom    0       0.000 Angstoms.
 Leave Link  103 at Mon Apr 27 14:35:55 2015, MaxMem=   524288000 cpu:         0.0
 (Enter /opt/g09/l202.exe)
                          Input orientation:                          
 ---------------------------------------------------------------------
 Center     Atomic      Atomic             Coordinates (Angstroms)
 Number     Number       Type             X           Y           Z
 ---------------------------------------------------------------------
      1          6           0       17.000000   10.000000    0.000000
      2          8           0       18.015580   10.564280    0.000000
      3          8           0       15.984420    9.435720    0.000000
 ---------------------------------------------------------------------
                    Distance matrix (angstroms):
                    1          2          3
     1  C    0.000000
     2  O    1.161815   0.000000
     3  O    1.161815   2.323630   0.000000
 Symmetry turned off by external request.
 Stoichiometry    CO2
 Framework group  D*H[O(C),C*(O.O)]
 Deg. of freedom     1
 Full point group                 D*H     NOp   8
 Rotational constants (GHZ):      0.0000000     11.7039143     11.7039143
 Leave Link  202 at Mon Apr 27 14:35:55 2015, MaxMem=   524288000 cpu:         0.0
 (Enter /opt/g09/l716.exe)
 Dipole        = 5.18411980D-11 2.81943358D-11-6.52043190D-14
 Polarizability= 2.18696202D+01 7.19892920D+00 1.29130083D+01
                -1.13254994D-11-7.30414965D-12 8.91311920D+00
 Full mass-weighted force constant matrix:
 Low frequencies ---   -0.0010   -0.0006    0.0011    4.7444    6.4883  667.1508
 Low frequencies ---  667.2122 1377.4791 2432.8843
 Diagonal vibrational polarizability:
        2.9108182       2.2511851       1.9564588
 Harmonic frequencies (cm**-1), IR intensities (KM/Mole), Raman scattering
 activities (A**4/AMU), depolarization ratios for plane and unpolarized
 incident light, reduced masses (AMU), force constants (mDyne/A),
 and normal coordinates:
                      1                      2                      3
                      A                      A                      A
 Frequencies --    667.1508               667.2122              1377.4791
 Red. masses --     12.8774                12.8774                15.9949
 Frc consts  --      3.3770                 3.3776                17.8814
 IR Inten    --     32.3649                32.3643                 0.0000
  Atom  AN      X      Y      Z        X      Y      Z        X      Y      Z
     1   6    -0.43   0.77   0.00     0.00   0.00   0.88     0.00   0.00   0.00
     2   8     0.16  -0.29   0.00     0.00   0.00  -0.33     0.62   0.34   0.00
     3   8     0.16  -0.29   0.00     0.00   0.00  -0.33    -0.62  -0.34   0.00
                      4
                      A
 Frequencies --   2432.8843
 Red. masses --     12.8774
 Frc consts  --     44.9076
 IR Inten    --    704.9490
  Atom  AN      X      Y      Z
     1   6     0.77   0.43   0.00
     2   8    -0.29  -0.16   0.00
     3   8    -0.29  -0.16   0.00

 -------------------
 - Thermochemistry -
 -------------------
 Temperature   298.150 Kelvin.  Pressure   1.00000 Atm.
 Atom     1 has atomic number  6 and mass  12.00000
 Atom     2 has atomic number  8 and mass  15.99491
 Atom     3 has atomic number  8 and mass  15.99491
 Molecular mass:    43.98983 amu.
 Principal axes and moments of inertia in atomic units:
                           1         2         3
     Eigenvalues --     0.00000 154.19980 154.19980
           X            0.87413  -0.48569   0.00000
           Y            0.48569   0.87413   0.00000
           Z            0.00000   0.00000   1.00000
 This molecule is a prolate symmetric top.
 Rotational symmetry number  2.
 Rotational temperature (Kelvin)      0.56170
 Rotational constant (GHZ):          11.703914
 Zero-point vibrational energy      30772.3 (Joules/Mol)
                                    7.35476 (Kcal/Mol)
 Vibrational temperatures:    959.88   959.97  1981.88  3500.37
          (Kelvin)
 
 Zero-point correction=                           0.011721 (Hartree/Particle)
 Thermal correction to Energy=                    0.014342
 Thermal correction to Enthalpy=                  0.015287
 Thermal correction to Gibbs Free Energy=        -0.008975
 Sum of electronic and zero-point Energies=           -188.582296
 Sum of electronic and thermal Energies=              -188.579674
 Sum of electronic and thermal Enthalpies=            -188.578730
 Sum of electronic and thermal Free Energies=         -188.602992
 
                     E (Thermal)             CV                S
                      KCal/Mol        Cal/Mol-Kelvin    Cal/Mol-Kelvin
 Total                    9.000              6.871             51.063
 Electronic               0.000              0.000              0.000
 Translational            0.889              2.981             37.270
 Rotational               0.592              1.987             13.078
 Vibrational              7.519              1.903              0.715
                       Q            Log10(Q)             Ln(Q)
 Total Bot       0.134375D+05          4.128317          9.505801
 Total V=0       0.330662D+10          9.519384         21.919191
 Vib (Bot)       0.441501D-05         -5.355068        -12.330500
 Vib (V=0)       0.108642D+01          0.035999          0.082890
 Electronic      0.100000D+01          0.000000          0.000000
 Translational   0.114679D+08          7.059484         16.255062
 Rotational      0.265400D+03          2.423901          5.581239
 
                     W:\Data\additional_hydrocarbons\nist\enthalpy_estimation\suc
 cess\fine\corr_b971_124-38-9.g09
                                                             IR Spectrum
 
     2                                                       1                                                                       
     4                                                       3                                    6                                  
     3                                                       7                                    6                                  
     3                                                       7                                    7                                  
 
     X                                                                                            X                                  
     X                                                                                            X                                  
     X                                                                                                                               
     X                                                                                                                               
     X                                                                                                                               
     X                                                                                                                               
     X                                                                                                                               
     X                                                                                                                               
     X                                                                                                                               
     X                                                                                                                               
     X                                                                                                                               
     X                                                                                                                               
     X                                                                                                                               
     X                                                                                                                               
     X                                                                                                                               
     X                                                                                                                               
     X                                                                                                                               
     X                                                                                                                               
     X                                                                                                                               
     X                                                                                                                               
 
 -------------------------------------------------------------------
 Center     Atomic                   Forces (Hartrees/Bohr)
 Number     Number              X              Y              Z
 -------------------------------------------------------------------
      1        6           0.000000000    0.000000000    0.000000000
      2        8          -0.000007810   -0.000003868    0.000000000
      3        8           0.000007810    0.000003868    0.000000000
 -------------------------------------------------------------------
 Cartesian Forces:  Max     0.000007810 RMS     0.000004108
 Force constants in Cartesian coordinates: 
                1             2             3             4             5 
      1  0.152821D+01
      2  0.767495D+00  0.573457D+00
      3  0.000000D+00  0.000000D+00  0.147015D+00
      4 -0.764104D+00 -0.383748D+00  0.000000D+00  0.820841D+00
      5 -0.383748D+00 -0.286729D+00  0.000000D+00  0.435687D+00  0.278848D+00
      6  0.000000D+00  0.000000D+00 -0.735073D-01  0.000000D+00  0.000000D+00
      7 -0.764104D+00 -0.383748D+00  0.000000D+00 -0.567373D-01 -0.519396D-01
      8 -0.383748D+00 -0.286729D+00  0.000000D+00 -0.519396D-01  0.788045D-02
      9  0.000000D+00  0.000000D+00 -0.735073D-01  0.000000D+00  0.000000D+00
                6             7             8             9 
      6  0.367664D-01
      7  0.000000D+00  0.820841D+00
      8  0.000000D+00  0.435687D+00  0.278848D+00
      9  0.367409D-01  0.000000D+00  0.000000D+00  0.367664D-01
 Red2BG is reusing G-inverse.
 Force constants in internal coordinates: 
                1             2             3             4 
      1  0.106294D+01
      2  0.855969D-01  0.106294D+01
      3  0.311194D-04 -0.311194D-04  0.177120D+00
      4  0.000000D+00  0.000000D+00  0.000000D+00  0.135364D+00
 Leave Link  716 at Mon Apr 27 14:35:55 2015, MaxMem=   524288000 cpu:         0.3
 (Enter /opt/g09/l9999.exe)
 1\1\GINC-ARP\Freq\RB971\6-311+G(d,p)\C1O2\PB556\27-Apr-2015\0\\#p rB97
 1/6-311+G(d,p) Opt=(Tight, CalcAll) Freq GFInput Population=None Integ
 ral(Grid=UltraFine) Guess=MIX NoSymmetry\\W:\Data\additional_hydrocarb
 ons\nist\enthalpy_estimation\success\fine\corr_b971_124-38-9.g09\\0,1\
 C,17.,10.,0.\O,18.01558,10.56428,0.\O,15.98442,9.43572,0.\\Version=ES6
 4L-G09RevD.01\HF=-188.5940167\RMSD=1.470e-09\RMSF=4.108e-06\ZeroPoint=
 0.0117205\Thermal=0.0143424\Dipole=0.,0.,0.\DipoleDeriv=2.0464074,0.83
 79811,0.,0.8379942,1.003863,0.,0.,0.,0.538242,-1.0232037,-0.4189906,0.
 ,-0.4189971,-0.5019315,0.,0.,0.,-0.269121,-1.0232037,-0.4189906,0.,-0.
 4189971,-0.5019315,0.,0.,0.,-0.269121\Polar=21.8696202,7.1989292,12.91
 30083,0.,0.,8.9131192\PG=D*H [O(C1),C*(O1.O1)]\NImag=0\\1.52820828,0.7
 6749528,0.57345731,0.,0.,0.14701455,-0.76410414,-0.38374764,0.,0.82084
 140,-0.38374764,-0.28672865,0.,0.43568720,0.27884820,0.,0.,-0.07350727
 ,0.,0.,0.03676638,-0.76410414,-0.38374764,0.,-0.05673726,-0.05193956,0
 .,0.82084140,-0.38374764,-0.28672865,0.,-0.05193956,0.00788045,0.,0.43
 568720,0.27884820,0.,0.,-0.07350727,0.,0.,0.03674090,0.,0.,0.03676638\
 \0.,0.,0.,0.00000781,0.00000387,0.,-0.00000781,-0.00000387,0.\\\@


 ... I FELL INTO A REVERIE ... THE ATOMS WERE GAMBOLING BEFORE MY EYES
 ... I SAW HOW TWO SMALL ONES UNITED TO FORM A PAIR;
 HOW THE LARGER ONES SEIZED TWO OF THE SMALLER ONES;
 HOW STILL LARGER ONES KEPT HOLD OF THREE OR FOUR
 SMALLER ONES ... I SAW HOW THE LARGER ONES FORMED A CHAIN ...
 THIS WAS THE ORIGIN OF THE STRUCTURE THEORY.

                                   -- C.F.KEKULE VON STRADONITZ
 Leave Link 9999 at Mon Apr 27 14:35:55 2015, MaxMem=   524288000 cpu:         0.3
 Job cpu time:       0 days  0 hours  1 minutes  8.3 seconds.
 File lengths (MBytes):  RWF=      5 Int=      0 D2E=      0 Chk=      1 Scr=      1
 Normal termination of Gaussian 09 at Mon Apr 27 14:35:55 2015.
 (Enter /opt/g09/l1.exe)
 Link1:  Proceeding to internal job step number  2.
 ----------------------------------------------------------------------
 #P Geom=AllCheck Guess=TCheck SCRF=Check GenChk RB971/6-311+G(d,p) Fre
 q
 ----------------------------------------------------------------------
 1/7=10,10=4,29=7,30=1,38=1,40=1/1,3;
 2/12=2,15=1,40=1/2;
 3/5=4,6=6,7=111,11=2,14=-4,16=1,24=10,25=1,30=1,70=2,71=2,74=-20,75=-5,116=1,140=1/1,2,3;
 4/5=101/1;
 5/5=2,98=1/2;
 8/6=4,10=90,11=11/1;
 11/6=1,8=1,9=11,15=111,16=1,31=1/1,2,10;
 10/6=1,31=1/2;
 7/8=1,10=1,25=1,30=1/1,2,3,16;
 1/7=10,10=4,30=1/3;
 99//99;
 Leave Link    1 at Mon Apr 27 14:35:56 2015, MaxMem=   524288000 cpu:         0.4
 (Enter /opt/g09/l101.exe)
 Structure from the checkpoint file:  "/scratch/pb556/g09_run/add_hco//Gau-5732.chk"
 ----------------------------------------------------------------------
 W:\Data\additional_hydrocarbons\nist\enthalpy_estimation\success\fine\
 corr_b971_124-38-9.g09
 ----------------------------------------------------------------------
 Charge =  0 Multiplicity = 1
 Redundant internal coordinates found in file.
 C,0,17.,10.,0.
 O,0,18.01558,10.56428,0.
 O,0,15.98442,9.43572,0.
 Recover connectivity data from disk.
 NAtoms=      3 NQM=        3 NQMF=       0 NMMI=      0 NMMIF=      0
                NMic=       0 NMicF=      0.
                    Isotopes and Nuclear Properties:
 (Nuclear quadrupole moments (NQMom) in fm**2, nuclear magnetic moments (NMagM)
  in nuclear magnetons)

  Atom         1           2           3
 IAtWgt=          12          16          16
 AtmWgt=  12.0000000  15.9949146  15.9949146
 NucSpn=           0           0           0
 AtZEff=  -3.6000000  -5.6000000  -5.6000000
 NQMom=    0.0000000   0.0000000   0.0000000
 NMagM=    0.0000000   0.0000000   0.0000000
 AtZNuc=   6.0000000   8.0000000   8.0000000
 Leave Link  101 at Mon Apr 27 14:35:56 2015, MaxMem=   524288000 cpu:         1.8
 (Enter /opt/g09/l103.exe)

 GradGradGradGradGradGradGradGradGradGradGradGradGradGradGradGradGradGrad
 Berny optimization.
 Initialization pass.
                           ----------------------------
                           !    Initial Parameters    !
                           ! (Angstroms and Degrees)  !
 --------------------------                            --------------------------
 ! Name  Definition              Value          Derivative Info.                !
 --------------------------------------------------------------------------------
 ! R1    R(1,2)                  1.1618         calculate D2E/DX2 analytically  !
 ! R2    R(1,3)                  1.1618         calculate D2E/DX2 analytically  !
 ! A1    L(2,1,3,-3,-1)        180.0            calculate D2E/DX2 analytically  !
 ! A2    L(2,1,3,-2,-2)        180.0            calculate D2E/DX2 analytically  !
 --------------------------------------------------------------------------------
 Trust Radius=3.00D-01 FncErr=1.00D-07 GrdErr=1.00D-07
 Number of steps in this run=      2 maximum allowed number of steps=      2.
 GradGradGradGradGradGradGradGradGradGradGradGradGradGradGradGradGradGrad

 Leave Link  103 at Mon Apr 27 14:35:56 2015, MaxMem=   524288000 cpu:         0.1
 (Enter /opt/g09/l202.exe)
                          Input orientation:                          
 ---------------------------------------------------------------------
 Center     Atomic      Atomic             Coordinates (Angstroms)
 Number     Number       Type             X           Y           Z
 ---------------------------------------------------------------------
      1          6           0       17.000000   10.000000    0.000000
      2          8           0       18.015580   10.564280    0.000000
      3          8           0       15.984420    9.435720    0.000000
 ---------------------------------------------------------------------
                    Distance matrix (angstroms):
                    1          2          3
     1  C    0.000000
     2  O    1.161815   0.000000
     3  O    1.161815   2.323630   0.000000
 Symmetry turned off by external request.
 Stoichiometry    CO2
 Framework group  D*H[O(C),C*(O.O)]
 Deg. of freedom     1
 Full point group                 D*H     NOp   8
 Rotational constants (GHZ):      0.0000000     11.7039143     11.7039143
 Leave Link  202 at Mon Apr 27 14:35:56 2015, MaxMem=   524288000 cpu:         0.0
 (Enter /opt/g09/l301.exe)
 Standard basis: 6-311+G(d,p) (5D, 7F)
 Ernie: Thresh=  0.10000D-02 Tol=  0.10000D-05 Strict=F.
 AO basis set in the form of general basis input (Overlap normalization):
      1 0
 S   6 1.00       0.000000000000
      0.4563240000D+04  0.1966650249D-02
      0.6820240000D+03  0.1523060193D-01
      0.1549730000D+03  0.7612690966D-01
      0.4445530000D+02  0.2608010331D+00
      0.1302900000D+02  0.6164620782D+00
      0.1827730000D+01  0.2210060280D+00
 SP   3 1.00       0.000000000000
      0.2096420000D+02  0.1146600807D+00  0.4024869267D-01
      0.4803310000D+01  0.9199996477D+00  0.2375939567D+00
      0.1459330000D+01 -0.3030682134D-02  0.8158538515D+00
 SP   1 1.00       0.000000000000
      0.4834560000D+00  0.1000000000D+01  0.1000000000D+01
 SP   1 1.00       0.000000000000
      0.1455850000D+00  0.1000000000D+01  0.1000000000D+01
 SP   1 1.00       0.000000000000
      0.4380000000D-01  0.1000000000D+01  0.1000000000D+01
 D   1 1.00       0.000000000000
      0.6260000000D+00  0.1000000000D+01
 ****
      2 0
 S   6 1.00       0.000000000000
      0.8588500000D+04  0.1895150083D-02
      0.1297230000D+04  0.1438590063D-01
      0.2992960000D+03  0.7073200310D-01
      0.8737710000D+02  0.2400010105D+00
      0.2567890000D+02  0.5947970261D+00
      0.3740040000D+01  0.2808020123D+00
 SP   3 1.00       0.000000000000
      0.4211750000D+02  0.1138890124D+00  0.3651139738D-01
      0.9628370000D+01  0.9208111006D+00  0.2371529830D+00
      0.2853320000D+01 -0.3274470358D-02  0.8197019412D+00
 SP   1 1.00       0.000000000000
      0.9056610000D+00  0.1000000000D+01  0.1000000000D+01
 SP   1 1.00       0.000000000000
      0.2556110000D+00  0.1000000000D+01  0.1000000000D+01
 SP   1 1.00       0.000000000000
      0.8450000000D-01  0.1000000000D+01  0.1000000000D+01
 D   1 1.00       0.000000000000
      0.1292000000D+01  0.1000000000D+01
 ****
      3 0
 S   6 1.00       0.000000000000
      0.8588500000D+04  0.1895150083D-02
      0.1297230000D+04  0.1438590063D-01
      0.2992960000D+03  0.7073200310D-01
      0.8737710000D+02  0.2400010105D+00
      0.2567890000D+02  0.5947970261D+00
      0.3740040000D+01  0.2808020123D+00
 SP   3 1.00       0.000000000000
      0.4211750000D+02  0.1138890124D+00  0.3651139738D-01
      0.9628370000D+01  0.9208111006D+00  0.2371529830D+00
      0.2853320000D+01 -0.3274470358D-02  0.8197019412D+00
 SP   1 1.00       0.000000000000
      0.9056610000D+00  0.1000000000D+01  0.1000000000D+01
 SP   1 1.00       0.000000000000
      0.2556110000D+00  0.1000000000D+01  0.1000000000D+01
 SP   1 1.00       0.000000000000
      0.8450000000D-01  0.1000000000D+01  0.1000000000D+01
 D   1 1.00       0.000000000000
      0.1292000000D+01  0.1000000000D+01
 ****

    66 basis functions,   108 primitive gaussians,    69 cartesian basis functions
    11 alpha electrons       11 beta electrons
       nuclear repulsion energy        58.3007351725 Hartrees.
 IExCor= 1614 DFT=T Ex+Corr=B971 ExCW=0 ScaHFX=  0.210000
 ScaDFX=  1.000000  1.000000  1.000000  1.000000 ScalE2=  1.000000  1.000000
 IRadAn=      5 IRanWt=     -1 IRanGd=            0 ICorTp=0 IEmpDi=  4
 NAtoms=    3 NActive=    3 NUniq=    3 SFac= 1.00D+00 NAtFMM=   60 NAOKFM=F Big=F
 Integral buffers will be    131072 words long.
 Raffenetti 2 integral format.
 Two-electron integral symmetry is turned off.
 Leave Link  301 at Mon Apr 27 14:35:56 2015, MaxMem=   524288000 cpu:         0.4
 (Enter /opt/g09/l302.exe)
 NPDir=0 NMtPBC=     1 NCelOv=     1 NCel=       1 NClECP=     1 NCelD=      1
         NCelK=      1 NCelE2=     1 NClLst=     1 CellRange=     0.0.
 One-electron integrals computed using PRISM.
 NBasis=    66 RedAO= T EigKep=  1.08D-03  NBF=    66
 NBsUse=    66 1.00D-06 EigRej= -1.00D+00 NBFU=    66
 Precomputing XC quadrature grid using
 IXCGrd= 4 IRadAn=           5 IRanWt=          -1 IRanGd=           0 AccXCQ= 0.00D+00.
 Generated NRdTot=       0 NPtTot=           0 NUsed=           0 NTot=          32
 NSgBfM=    69    69    69    69    69 MxSgAt=     3 MxSgA2=     3.
 Leave Link  302 at Mon Apr 27 14:35:56 2015, MaxMem=   524288000 cpu:         1.3
 (Enter /opt/g09/l303.exe)
 DipDrv:  MaxL=1.
 Leave Link  303 at Mon Apr 27 14:35:56 2015, MaxMem=   524288000 cpu:         0.3
 (Enter /opt/g09/l401.exe)
 Initial guess from the checkpoint file:  "/scratch/pb556/g09_run/add_hco//Gau-5732.chk"
 B after Tr=     0.000000    0.000000    0.000000
         Rot=    1.000000    0.000000    0.000000    0.000000 Ang=   0.00 deg.
 Guess basis will be translated and rotated to current coordinates.
 JPrj=2 DoOrth=T DoCkMO=T.
 Leave Link  401 at Mon Apr 27 14:35:56 2015, MaxMem=   524288000 cpu:         0.8
 (Enter /opt/g09/l502.exe)
 Closed shell SCF:
 Using DIIS extrapolation, IDIIS=  1040.
 Two-electron integral symmetry not used.
 Keep R1 ints in memory in canonical form, NReq=3371201.
 IVT=       33805 IEndB=       33805 NGot=   524288000 MDV=   521808830
 LenX=   521808830 LenY=   521803628
 Requested convergence on RMS density matrix=1.00D-08 within 128 cycles.
 Requested convergence on MAX density matrix=1.00D-06.
 Requested convergence on             energy=1.00D-06.
 No special actions if energy rises.
 FoFCou: FMM=F IPFlag=           0 FMFlag=           0 FMFlg1=           0
         NFxFlg=           0 DoJE=F BraDBF=F KetDBF=F FulRan=T
         wScrn=  0.000000 ICntrl=     600 IOpCl=  0 I1Cent=           0 NGrid=           0
         NMat0=    1 NMatS0=   2211 NMatT0=    0 NMatD0=    1 NMtDS0=    0 NMtDT0=    0
 Symmetry not used in FoFCou.

 Cycle   1  Pass 1  IDiag  1:
 E= -188.594016718634    
 DIIS: error= 1.62D-09 at cycle   1 NSaved=   1.
 NSaved= 1 IEnMin= 1 EnMin= -188.594016718634     IErMin= 1 ErrMin= 1.62D-09
 ErrMax= 1.62D-09  0.00D+00 EMaxC= 1.00D-01 BMatC= 1.25D-16 BMatP= 1.25D-16
 IDIUse=1 WtCom= 1.00D+00 WtEn= 0.00D+00
 Coeff-Com:  0.100D+01
 Coeff:      0.100D+01
 Gap=     0.376 Goal=   None    Shift=    0.000
 RMSDP=2.26D-10 MaxDP=2.92D-09              OVMax= 7.02D-09

 SCF Done:  E(RB971) =  -188.594016719     A.U. after    1 cycles
            NFock=  1  Conv=0.23D-09     -V/T= 2.0026
 KE= 1.880995155756D+02 PE=-5.607524829326D+02 EE= 1.257582154658D+02
 Leave Link  502 at Mon Apr 27 14:35:57 2015, MaxMem=   524288000 cpu:         2.2
 (Enter /opt/g09/l801.exe)
 DoSCS=F DFT=T ScalE2(SS,OS)=  1.000000  1.000000
 Range of M.O.s used for correlation:     1    66
 NBasis=    66 NAE=    11 NBE=    11 NFC=     0 NFV=     0
 NROrb=     66 NOA=    11 NOB=    11 NVA=    55 NVB=    55
 Leave Link  801 at Mon Apr 27 14:35:57 2015, MaxMem=   524288000 cpu:         0.3
 (Enter /opt/g09/l1101.exe)
 Using compressed storage, NAtomX=     3.
 Will process      4 centers per pass.
 Leave Link 1101 at Mon Apr 27 14:35:57 2015, MaxMem=   524288000 cpu:         1.1
 (Enter /opt/g09/l1102.exe)
 Symmetrizing basis deriv contribution to polar:
 IMax=3 JMax=2 DiffMx= 0.00D+00
 Leave Link 1102 at Mon Apr 27 14:35:57 2015, MaxMem=   524288000 cpu:         0.3
 (Enter /opt/g09/l1110.exe)
 Forming Gx(P) for the SCF density, NAtomX=     3.
 Integral derivatives from FoFJK, PRISM(SPDF).
 Do as many integral derivatives as possible in FoFJK.
 G2DrvN: MDV=     524287872.
 G2DrvN: will do     4 centers at a time, making    1 passes.
 Calling FoFCou, ICntrl=  3107 FMM=F I1Cent=   0 AccDes= 0.00D+00.
 FoFJK:  IHMeth= 1 ICntrl=    3107 DoSepK=F KAlg= 0 I1Cent=   0 FoldK=F
 IRaf=         0 NMat=   1 IRICut=       1 DoRegI=T DoRafI=F ISym2E= 0.
 FoFCou: FMM=F IPFlag=           0 FMFlag=      100000 FMFlg1=           0
         NFxFlg=           0 DoJE=F BraDBF=F KetDBF=F FulRan=T
         wScrn=  0.000000 ICntrl=    3107 IOpCl=  0 I1Cent=           0 NGrid=           0
         NMat0=    1 NMatS0=      1 NMatT0=    0 NMatD0=    1 NMtDS0=    0 NMtDT0=    0
 Symmetry not used in FoFCou.
 End of G2Drv F.D. properties file   721 does not exist.
 End of G2Drv F.D. properties file   722 does not exist.
 End of G2Drv F.D. properties file   788 does not exist.
 Leave Link 1110 at Mon Apr 27 14:35:58 2015, MaxMem=   524288000 cpu:        10.3
 (Enter /opt/g09/l1002.exe)
 Minotr:  Closed shell wavefunction.
          IDoAtm=111
          Direct CPHF calculation.
          Differentiating once with respect to electric field.
                with respect to dipole field.
          Differentiating once with respect to nuclear coordinates.
          Requested convergence is 1.0D-08 RMS, and 1.0D-07 maximum.
          Secondary convergence is 1.0D-12 RMS, and 1.0D-12 maximum.
          NewPWx=T KeepS1=F KeepF1=F KeepIn=T MapXYZ=F SortEE=F KeepMc=T.
          MDV=     524287900 using IRadAn=       1.
 Generate precomputed XC quadrature information.
 Keep R1 ints in memory in canonical form, NReq=3335670.
 FoFCou: FMM=F IPFlag=           0 FMFlag=           0 FMFlg1=           0
         NFxFlg=           0 DoJE=F BraDBF=F KetDBF=F FulRan=T
         wScrn=  0.000000 ICntrl=     600 IOpCl=  0 I1Cent=           0 NGrid=           0
         NMat0=    1 NMatS0=   2211 NMatT0=    0 NMatD0=    1 NMtDS0=    0 NMtDT0=    0
 Symmetry not used in FoFCou.
          Solving linear equations simultaneously, MaxMat=       0.
          There are    12 degrees of freedom in the 1st order CPHF.  IDoFFX=6 NUNeed=     3.
      9 vectors produced by pass  0 Test12= 5.04D-15 8.33D-09 XBig12= 2.08D+01 2.92D+00.
 AX will form     9 AO Fock derivatives at one time.
      9 vectors produced by pass  1 Test12= 5.04D-15 8.33D-09 XBig12= 1.19D+01 1.29D+00.
      9 vectors produced by pass  2 Test12= 5.04D-15 8.33D-09 XBig12= 5.33D-02 7.32D-02.
      9 vectors produced by pass  3 Test12= 5.04D-15 8.33D-09 XBig12= 2.19D-04 4.60D-03.
      9 vectors produced by pass  4 Test12= 5.04D-15 8.33D-09 XBig12= 7.05D-07 2.70D-04.
      7 vectors produced by pass  5 Test12= 5.04D-15 8.33D-09 XBig12= 7.34D-09 2.97D-05.
      5 vectors produced by pass  6 Test12= 5.04D-15 8.33D-09 XBig12= 3.79D-11 1.43D-06.
      2 vectors produced by pass  7 Test12= 5.04D-15 8.33D-09 XBig12= 9.54D-14 9.33D-08.
 InvSVY:  IOpt=1 It=  1 EMax= 4.44D-16
 Solved reduced A of dimension    59 with     9 vectors.
 FullF1:  Do perturbations    1 to     3.
 Isotropic polarizability for W=    0.000000       14.57 Bohr**3.
 End of Minotr F.D. properties file   721 does not exist.
 End of Minotr F.D. properties file   722 does not exist.
 End of Minotr F.D. properties file   788 does not exist.
 Leave Link 1002 at Mon Apr 27 14:36:00 2015, MaxMem=   524288000 cpu:        16.0
 (Enter /opt/g09/l701.exe)
 Compute integral second derivatives.
 ... and contract with generalized density number  0.
 Leave Link  701 at Mon Apr 27 14:36:00 2015, MaxMem=   524288000 cpu:         1.8
 (Enter /opt/g09/l702.exe)
 L702 exits ... SP integral derivatives will be done elsewhere.
 Leave Link  702 at Mon Apr 27 14:36:01 2015, MaxMem=   524288000 cpu:         0.3
 (Enter /opt/g09/l703.exe)
 Compute integral second derivatives, UseDBF=F ICtDFT=           0.
 Integral derivatives from FoFJK, PRISM(SPDF).
 Calling FoFJK, ICntrl=    100127 FMM=F ISym2X=0 I1Cent= 0 IOpClX= 0 NMat=1 NMatS=1 NMatT=0.
 FoFJK:  IHMeth= 1 ICntrl=  100127 DoSepK=F KAlg= 0 I1Cent=   0 FoldK=F
 IRaf=         0 NMat=   1 IRICut=       1 DoRegI=T DoRafI=F ISym2E= 0.
 FoFCou: FMM=F IPFlag=           0 FMFlag=      100000 FMFlg1=         800
         NFxFlg=           0 DoJE=F BraDBF=F KetDBF=F FulRan=T
         wScrn=  0.000000 ICntrl=  100127 IOpCl=  0 I1Cent=           0 NGrid=           0
         NMat0=    1 NMatS0=      1 NMatT0=    0 NMatD0=    1 NMtDS0=    0 NMtDT0=    0
 Symmetry not used in FoFCou.
 Leave Link  703 at Mon Apr 27 14:36:03 2015, MaxMem=   524288000 cpu:        19.8
 (Enter /opt/g09/l716.exe)
 Dipole        =-1.35173650D-10-7.54880602D-11-6.77931595D-14
 Polarizability= 2.18696199D+01 7.19892910D+00 1.29130081D+01
                -8.51806235D-12-6.14827535D-12 8.91311908D+00
 Full mass-weighted force constant matrix:
 Low frequencies ---   -0.0012    0.0009    0.0012    4.7453    6.4890  667.1508
 Low frequencies ---  667.2122 1377.4791 2432.8843
 Diagonal vibrational polarizability:
        2.9108182       2.2511851       1.9564589
 Harmonic frequencies (cm**-1), IR intensities (KM/Mole), Raman scattering
 activities (A**4/AMU), depolarization ratios for plane and unpolarized
 incident light, reduced masses (AMU), force constants (mDyne/A),
 and normal coordinates:
                      1                      2                      3
                      A                      A                      A
 Frequencies --    667.1508               667.2122              1377.4791
 Red. masses --     12.8774                12.8774                15.9949
 Frc consts  --      3.3770                 3.3776                17.8814
 IR Inten    --     32.3649                32.3643                 0.0000
  Atom  AN      X      Y      Z        X      Y      Z        X      Y      Z
     1   6    -0.43   0.77   0.00     0.00   0.00   0.88     0.00   0.00   0.00
     2   8     0.16  -0.29   0.00     0.00   0.00  -0.33     0.62   0.34   0.00
     3   8     0.16  -0.29   0.00     0.00   0.00  -0.33    -0.62  -0.34   0.00
                      4
                      A
 Frequencies --   2432.8843
 Red. masses --     12.8774
 Frc consts  --     44.9076
 IR Inten    --    704.9490
  Atom  AN      X      Y      Z
     1   6     0.77   0.43   0.00
     2   8    -0.29  -0.16   0.00
     3   8    -0.29  -0.16   0.00

 -------------------
 - Thermochemistry -
 -------------------
 Temperature   298.150 Kelvin.  Pressure   1.00000 Atm.
 Atom     1 has atomic number  6 and mass  12.00000
 Atom     2 has atomic number  8 and mass  15.99491
 Atom     3 has atomic number  8 and mass  15.99491
 Molecular mass:    43.98983 amu.
 Principal axes and moments of inertia in atomic units:
                           1         2         3
     Eigenvalues --     0.00000 154.19980 154.19980
           X            0.87413  -0.48569   0.00000
           Y            0.48569   0.87413   0.00000
           Z            0.00000   0.00000   1.00000
 This molecule is a prolate symmetric top.
 Rotational symmetry number  2.
 Rotational temperature (Kelvin)      0.56170
 Rotational constant (GHZ):          11.703914
 Zero-point vibrational energy      30772.3 (Joules/Mol)
                                    7.35476 (Kcal/Mol)
 Vibrational temperatures:    959.88   959.97  1981.88  3500.37
          (Kelvin)
 
 Zero-point correction=                           0.011721 (Hartree/Particle)
 Thermal correction to Energy=                    0.014342
 Thermal correction to Enthalpy=                  0.015287
 Thermal correction to Gibbs Free Energy=        -0.008975
 Sum of electronic and zero-point Energies=           -188.582296
 Sum of electronic and thermal Energies=              -188.579674
 Sum of electronic and thermal Enthalpies=            -188.578730
 Sum of electronic and thermal Free Energies=         -188.602992
 
                     E (Thermal)             CV                S
                      KCal/Mol        Cal/Mol-Kelvin    Cal/Mol-Kelvin
 Total                    9.000              6.871             51.063
 Electronic               0.000              0.000              0.000
 Translational            0.889              2.981             37.270
 Rotational               0.592              1.987             13.078
 Vibrational              7.519              1.903              0.715
                       Q            Log10(Q)             Ln(Q)
 Total Bot       0.134374D+05          4.128317          9.505801
 Total V=0       0.330662D+10          9.519384         21.919191
 Vib (Bot)       0.441501D-05         -5.355068        -12.330500
 Vib (V=0)       0.108642D+01          0.035999          0.082890
 Electronic      0.100000D+01          0.000000          0.000000
 Translational   0.114679D+08          7.059484         16.255062
 Rotational      0.265400D+03          2.423901          5.581239
 
                     W:\Data\additional_hydrocarbons\nist\enthalpy_estimation\suc
 cess\fine\corr_b971_124-38-9.g09
                                                             IR Spectrum
 
     2                                                       1                                                                       
     4                                                       3                                    6                                  
     3                                                       7                                    6                                  
     3                                                       7                                    7                                  
 
     X                                                                                            X                                  
     X                                                                                            X                                  
     X                                                                                                                               
     X                                                                                                                               
     X                                                                                                                               
     X                                                                                                                               
     X                                                                                                                               
     X                                                                                                                               
     X                                                                                                                               
     X                                                                                                                               
     X                                                                                                                               
     X                                                                                                                               
     X                                                                                                                               
     X                                                                                                                               
     X                                                                                                                               
     X                                                                                                                               
     X                                                                                                                               
     X                                                                                                                               
     X                                                                                                                               
     X                                                                                                                               
 
 -------------------------------------------------------------------
 Center     Atomic                   Forces (Hartrees/Bohr)
 Number     Number              X              Y              Z
 -------------------------------------------------------------------
      1        6           0.000000000    0.000000000    0.000000000
      2        8          -0.000007810   -0.000003869    0.000000000
      3        8           0.000007810    0.000003869    0.000000000
 -------------------------------------------------------------------
 Cartesian Forces:  Max     0.000007810 RMS     0.000004109
 Force constants in Cartesian coordinates: 
                1             2             3             4             5 
      1  0.152821D+01
      2  0.767495D+00  0.573457D+00
      3  0.000000D+00  0.000000D+00  0.147015D+00
      4 -0.764104D+00 -0.383748D+00  0.000000D+00  0.820841D+00
      5 -0.383748D+00 -0.286729D+00  0.000000D+00  0.435687D+00  0.278848D+00
      6  0.000000D+00  0.000000D+00 -0.735073D-01  0.000000D+00  0.000000D+00
      7 -0.764104D+00 -0.383748D+00  0.000000D+00 -0.567373D-01 -0.519396D-01
      8 -0.383748D+00 -0.286729D+00  0.000000D+00 -0.519396D-01  0.788046D-02
      9  0.000000D+00  0.000000D+00 -0.735073D-01  0.000000D+00  0.000000D+00
                6             7             8             9 
      6  0.367664D-01
      7  0.000000D+00  0.820841D+00
      8  0.000000D+00  0.435687D+00  0.278848D+00
      9  0.367409D-01  0.000000D+00  0.000000D+00  0.367664D-01
 FormGI is forming the generalized inverse of G from B-inverse, IUseBI=4.
 Force constants in internal coordinates: 
                1             2             3             4 
      1  0.106294D+01
      2  0.855969D-01  0.106294D+01
      3  0.311185D-04 -0.311185D-04  0.177121D+00
      4  0.000000D+00  0.000000D+00  0.000000D+00  0.135364D+00
 Leave Link  716 at Mon Apr 27 14:36:03 2015, MaxMem=   524288000 cpu:         0.3
 (Enter /opt/g09/l103.exe)

 GradGradGradGradGradGradGradGradGradGradGradGradGradGradGradGradGradGrad
 Berny optimization.
 Red2BG is reusing G-inverse.
 Internal  Forces:  Max     0.000008706 RMS     0.000006156
 Search for a local minimum.
 Step number   1 out of a maximum of    2
 All quantities printed in internal units (Hartrees-Bohrs-Radians)
 Second derivative matrix not updated -- analytic derivatives used.
 The second derivative matrix:
                          R1        R2        A1        A2
           R1           1.06294
           R2           0.08560   1.06294
           A1           0.00003  -0.00003   0.17712
           A2           0.00000   0.00000   0.00000   0.13536
 ITU=  0
     Eigenvalues ---    0.13536   0.17712   0.97734   1.14853
 Angle between quadratic step and forces=   0.00 degrees.
 Linear search not attempted -- first point.
 Iteration  1 RMS(Cart)=  0.00000536 RMS(Int)=  0.00000001
 Iteration  2 RMS(Cart)=  0.00000001 RMS(Int)=  0.00000000
 ITry= 1 IFail=0 DXMaxC= 6.63D-06 DCOld= 1.00D+10 DXMaxT= 3.00D-01 DXLimC= 3.00D+00 Rises=F
 Variable       Old X    -DE/DX   Delta X   Delta X   Delta X     New X
                                 (Linear)    (Quad)   (Total)
    R1        2.19551  -0.00001   0.00000  -0.00001  -0.00001   2.19551
    R2        2.19551  -0.00001   0.00000  -0.00001  -0.00001   2.19551
    A1        3.14159   0.00000   0.00000   0.00000   0.00000   3.14159
    A2        3.14159   0.00000   0.00000   0.00000   0.00000   3.14159
         Item               Value     Threshold  Converged?
 Maximum Force            0.000009     0.000015     YES
 RMS     Force            0.000006     0.000010     YES
 Maximum Displacement     0.000007     0.000060     YES
 RMS     Displacement     0.000005     0.000040     YES
 Predicted change in Energy=-6.599578D-11
 Optimization completed.
    -- Stationary point found.
                           ----------------------------
                           !   Optimized Parameters   !
                           ! (Angstroms and Degrees)  !
 --------------------------                            --------------------------
 ! Name  Definition              Value          Derivative Info.                !
 --------------------------------------------------------------------------------
 ! R1    R(1,2)                  1.1618         -DE/DX =    0.0                 !
 ! R2    R(1,3)                  1.1618         -DE/DX =    0.0                 !
 ! A1    L(2,1,3,-3,-1)        180.0            -DE/DX =    0.0                 !
 ! A2    L(2,1,3,-2,-2)        180.0            -DE/DX =    0.0                 !
 --------------------------------------------------------------------------------
 GradGradGradGradGradGradGradGradGradGradGradGradGradGradGradGradGradGrad

 Leave Link  103 at Mon Apr 27 14:36:03 2015, MaxMem=   524288000 cpu:         0.0
 (Enter /opt/g09/l9999.exe)
 1\1\GINC-ARP\Freq\RB971\6-311+G(d,p)\C1O2\PB556\27-Apr-2015\0\\#P Geom
 =AllCheck Guess=TCheck SCRF=Check GenChk RB971/6-311+G(d,p) Freq\\W:\D
 ata\additional_hydrocarbons\nist\enthalpy_estimation\success\fine\corr
 _b971_124-38-9.g09\\0,1\C,17.,10.,0.\O,18.01558,10.56428,0.\O,15.98442
 ,9.43572,0.\\Version=ES64L-G09RevD.01\HF=-188.5940167\RMSD=2.264e-10\R
 MSF=4.109e-06\ZeroPoint=0.0117205\Thermal=0.0143424\Dipole=0.,0.,0.\Di
 poleDeriv=2.0464074,0.8379811,0.,0.8379941,1.0038631,0.,0.,0.,0.538242
 1,-1.0232037,-0.4189906,0.,-0.4189971,-0.5019315,0.,0.,0.,-0.269121,-1
 .0232037,-0.4189906,0.,-0.4189971,-0.5019315,0.,0.,0.,-0.269121\Polar=
 21.8696199,7.1989291,12.9130081,0.,0.,8.9131191\PG=D*H [O(C1),C*(O1.O1
 )]\NImag=0\\1.52820829,0.76749527,0.57345732,0.,0.,0.14701456,-0.76410
 414,-0.38374763,0.,0.82084140,-0.38374763,-0.28672866,0.,0.43568720,0.
 27884820,0.,0.,-0.07350728,0.,0.,0.03676638,-0.76410414,-0.38374763,0.
 ,-0.05673726,-0.05193956,0.,0.82084140,-0.38374763,-0.28672866,0.,-0.0
 5193956,0.00788046,0.,0.43568720,0.27884820,0.,0.,-0.07350728,0.,0.,0.
 03674090,0.,0.,0.03676638\\0.,0.,0.,0.00000781,0.00000387,0.,-0.000007
 81,-0.00000387,0.\\\@


 LIVE PURE, SPEAK TRUE, RIGHT WRONG, FOLLOW THE KING...
 ELSE, WHEREFORE BORN......
           IDYLLS OF THE KING, TENNYSON
 Job cpu time:       0 days  0 hours  0 minutes 57.9 seconds.
 File lengths (MBytes):  RWF=      5 Int=      0 D2E=      0 Chk=      1 Scr=      1
 Normal termination of Gaussian 09 at Mon Apr 27 14:36:03 2015.
