 Entering Gaussian System, Link 0=g09
 Input=0_0freq-b971_1660-04-4.gau
 Output=0_0freq-b971_1660-04-4.log
 Initial command:
 /opt/g09/l1.exe "/scratch/pb556/g09_run/add_hco//Gau-32137.inp" -scrdir="/scratch/pb556/g09_run/add_hco//"
 Entering Link 1 = /opt/g09/l1.exe PID=     32146.
  
 Copyright (c) 1988,1990,1992,1993,1995,1998,2003,2009,2013,
            Gaussian, Inc.  All Rights Reserved.
  
 This is part of the Gaussian(R) 09 program.  It is based on
 the Gaussian(R) 03 system (copyright 2003, Gaussian, Inc.),
 the Gaussian(R) 98 system (copyright 1998, Gaussian, Inc.),
 the Gaussian(R) 94 system (copyright 1995, Gaussian, Inc.),
 the Gaussian 92(TM) system (copyright 1992, Gaussian, Inc.),
 the Gaussian 90(TM) system (copyright 1990, Gaussian, Inc.),
 the Gaussian 88(TM) system (copyright 1988, Gaussian, Inc.),
 the Gaussian 86(TM) system (copyright 1986, Carnegie Mellon
 University), and the Gaussian 82(TM) system (copyright 1983,
 Carnegie Mellon University). Gaussian is a federally registered
 trademark of Gaussian, Inc.
  
 This software contains proprietary and confidential information,
 including trade secrets, belonging to Gaussian, Inc.
  
 This software is provided under written license and may be
 used, copied, transmitted, or stored only in accord with that
 written license.
  
 The following legend is applicable only to US Government
 contracts under FAR:
  
                    RESTRICTED RIGHTS LEGEND
  
 Use, reproduction and disclosure by the US Government is
 subject to restrictions as set forth in subparagraphs (a)
 and (c) of the Commercial Computer Software - Restricted
 Rights clause in FAR 52.227-19.
  
 Gaussian, Inc.
 340 Quinnipiac St., Bldg. 40, Wallingford CT 06492
  
  
 ---------------------------------------------------------------
 Warning -- This program may not be used in any manner that
 competes with the business of Gaussian, Inc. or will provide
 assistance to any competitor of Gaussian, Inc.  The licensee
 of this program is prohibited from giving any competitor of
 Gaussian, Inc. access to this program.  By using this program,
 the user acknowledges that Gaussian, Inc. is engaged in the
 business of creating and licensing software in the field of
 computational chemistry and represents and warrants to the
 licensee that it is not a competitor of Gaussian, Inc. and that
 it will not use this program in any manner prohibited above.
 ---------------------------------------------------------------
  

 Cite this work as:
 Gaussian 09, Revision D.01,
 M. J. Frisch, G. W. Trucks, H. B. Schlegel, G. E. Scuseria, 
 M. A. Robb, J. R. Cheeseman, G. Scalmani, V. Barone, B. Mennucci, 
 G. A. Petersson, H. Nakatsuji, M. Caricato, X. Li, H. P. Hratchian, 
 A. F. Izmaylov, J. Bloino, G. Zheng, J. L. Sonnenberg, M. Hada, 
 M. Ehara, K. Toyota, R. Fukuda, J. Hasegawa, M. Ishida, T. Nakajima, 
 Y. Honda, O. Kitao, H. Nakai, T. Vreven, J. A. Montgomery, Jr., 
 J. E. Peralta, F. Ogliaro, M. Bearpark, J. J. Heyd, E. Brothers, 
 K. N. Kudin, V. N. Staroverov, T. Keith, R. Kobayashi, J. Normand, 
 K. Raghavachari, A. Rendell, J. C. Burant, S. S. Iyengar, J. Tomasi, 
 M. Cossi, N. Rega, J. M. Millam, M. Klene, J. E. Knox, J. B. Cross, 
 V. Bakken, C. Adamo, J. Jaramillo, R. Gomperts, R. E. Stratmann, 
 O. Yazyev, A. J. Austin, R. Cammi, C. Pomelli, J. W. Ochterski, 
 R. L. Martin, K. Morokuma, V. G. Zakrzewski, G. A. Voth, 
 P. Salvador, J. J. Dannenberg, S. Dapprich, A. D. Daniels, 
 O. Farkas, J. B. Foresman, J. V. Ortiz, J. Cioslowski, 
 and D. J. Fox, Gaussian, Inc., Wallingford CT, 2013.
 
 ******************************************
 Gaussian 09:  ES64L-G09RevD.01 24-Apr-2013
                25-Apr-2015 
 ******************************************
 %NProcShared=8
 Will use up to    8 processors via shared memory.
 %Mem=500MW
 ----------------------------------------------------------------------
 #p rB971/6-311+G(d,p) Opt=(Tight, CalcAll) Freq GFInput Population=Non
 e Integral(Grid=UltraFine) Guess=MIX NoSymmetry
 ----------------------------------------------------------------------
 1/7=10,10=4,14=-1,18=20,19=15,26=4,38=1/1,3;
 2/9=110,12=2,15=1,17=6,18=5,40=1/2;
 3/5=4,6=6,7=111,11=2,16=1,24=10,25=1,30=1,71=2,74=-20,75=-5,116=1,140=1/1,2,3;
 4/13=-1/1;
 5/5=2,38=5/2;
 8/6=4,10=90,11=11/1;
 11/6=1,8=1,9=11,15=111,16=1,31=1/1,2,10;
 10/6=1,31=1/2;
 7/10=1,25=1,30=1/1,2,3,16;
 1/7=10,10=4,14=-1,18=20,19=15,26=4/3(3);
 2/9=110,15=1/2;
 7/8=1,9=1,25=1,30=1,44=-1/16;
 99//99;
 2/9=110,15=1/2;
 3/5=4,6=6,7=111,11=2,16=1,25=1,30=1,71=2,74=-20,75=-5,116=1,140=1/1,2,3;
 4/5=5,16=3,69=1/1;
 5/5=2,38=5/2;
 8/6=4,10=90,11=11/1;
 11/6=1,8=1,9=11,15=111,16=1,31=1/1,2,10;
 10/6=1,31=1/2;
 7/10=1,25=1,30=1/1,2,3,16;
 1/7=10,10=4,14=-1,18=20,19=15,26=4/3(-8);
 2/9=110,15=1/2;
 7/8=1,9=1,25=1,30=1,44=-1/16;
 99//99;
 Leave Link    1 at Sat Apr 25 13:49:10 2015, MaxMem=   524288000 cpu:         0.5
 (Enter /opt/g09/l101.exe)
 -----------------------
 freq-b971_1660-04-4.gau
 -----------------------
 Symbolic Z-matrix:
 Charge =  0 Multiplicity = 1
 C                     3.31734   3.92272   3.62549 
 C                     2.03304   3.51735   4.37886 
 C                     3.78334   2.77354   2.70018 
 C                     4.05341   1.51023   3.57553 
 C                     2.64877   2.44209   1.69032 
 C                     5.08763   3.1616    1.9813 
 C                     2.76641   1.10687   4.32923 
 C                     2.31495   2.26781   5.24095 
 C                     1.65088   0.78876   3.30985 
 C                     1.36492   2.03952   2.45017 
 C                     0.91488   3.20064   3.36229 
 C                     5.55227   2.30736   0.80705 
 O                     5.74176   4.12232   2.33153 
 H                     4.11754   4.17091   4.33099 
 H                     3.14067   4.82511   3.02674 
 H                     1.71933   4.34673   5.02502 
 H                     4.85794   1.7276    4.29009 
 H                     4.39094   0.67451   2.94882 
 H                     2.95184   1.62289   1.02627 
 H                     2.45077   3.31758   1.05669 
 H                     2.97581   0.21763   4.93741 
 H                     3.0936    2.48975   5.98269 
 H                     1.41292   1.97882   5.79674 
 H                     1.9525   -0.05034   2.66806 
 H                     0.73883   0.47832   3.8365 
 H                     0.57594   1.81331   1.7217 
 H                    -0.01015   2.92802   3.88772 
 H                     0.6917    4.09016   2.75804 
 H                     6.61346   2.49138   0.63086 
 H                     4.99418   2.60174  -0.09038 
 H                     5.37451   1.23978   0.96532 
 
 NAtoms=     31 NQM=       31 NQMF=       0 NMMI=      0 NMMIF=      0
                NMic=       0 NMicF=      0.
                    Isotopes and Nuclear Properties:
 (Nuclear quadrupole moments (NQMom) in fm**2, nuclear magnetic moments (NMagM)
  in nuclear magnetons)

  Atom         1           2           3           4           5           6           7           8           9          10
 IAtWgt=          12          12          12          12          12          12          12          12          12          12
 AtmWgt=  12.0000000  12.0000000  12.0000000  12.0000000  12.0000000  12.0000000  12.0000000  12.0000000  12.0000000  12.0000000
 NucSpn=           0           0           0           0           0           0           0           0           0           0
 AtZEff=   0.0000000   0.0000000   0.0000000   0.0000000   0.0000000   0.0000000   0.0000000   0.0000000   0.0000000   0.0000000
 NQMom=    0.0000000   0.0000000   0.0000000   0.0000000   0.0000000   0.0000000   0.0000000   0.0000000   0.0000000   0.0000000
 NMagM=    0.0000000   0.0000000   0.0000000   0.0000000   0.0000000   0.0000000   0.0000000   0.0000000   0.0000000   0.0000000
 AtZNuc=   6.0000000   6.0000000   6.0000000   6.0000000   6.0000000   6.0000000   6.0000000   6.0000000   6.0000000   6.0000000

  Atom        11          12          13          14          15          16          17          18          19          20
 IAtWgt=          12          12          16           1           1           1           1           1           1           1
 AtmWgt=  12.0000000  12.0000000  15.9949146   1.0078250   1.0078250   1.0078250   1.0078250   1.0078250   1.0078250   1.0078250
 NucSpn=           0           0           0           1           1           1           1           1           1           1
 AtZEff=   0.0000000   0.0000000   0.0000000   0.0000000   0.0000000   0.0000000   0.0000000   0.0000000   0.0000000   0.0000000
 NQMom=    0.0000000   0.0000000   0.0000000   0.0000000   0.0000000   0.0000000   0.0000000   0.0000000   0.0000000   0.0000000
 NMagM=    0.0000000   0.0000000   0.0000000   2.7928460   2.7928460   2.7928460   2.7928460   2.7928460   2.7928460   2.7928460
 AtZNuc=   6.0000000   6.0000000   8.0000000   1.0000000   1.0000000   1.0000000   1.0000000   1.0000000   1.0000000   1.0000000

  Atom        21          22          23          24          25          26          27          28          29          30
 IAtWgt=           1           1           1           1           1           1           1           1           1           1
 AtmWgt=   1.0078250   1.0078250   1.0078250   1.0078250   1.0078250   1.0078250   1.0078250   1.0078250   1.0078250   1.0078250
 NucSpn=           1           1           1           1           1           1           1           1           1           1
 AtZEff=   0.0000000   0.0000000   0.0000000   0.0000000   0.0000000   0.0000000   0.0000000   0.0000000   0.0000000   0.0000000
 NQMom=    0.0000000   0.0000000   0.0000000   0.0000000   0.0000000   0.0000000   0.0000000   0.0000000   0.0000000   0.0000000
 NMagM=    2.7928460   2.7928460   2.7928460   2.7928460   2.7928460   2.7928460   2.7928460   2.7928460   2.7928460   2.7928460
 AtZNuc=   1.0000000   1.0000000   1.0000000   1.0000000   1.0000000   1.0000000   1.0000000   1.0000000   1.0000000   1.0000000

  Atom        31
 IAtWgt=           1
 AtmWgt=   1.0078250
 NucSpn=           1
 AtZEff=   0.0000000
 NQMom=    0.0000000
 NMagM=    2.7928460
 AtZNuc=   1.0000000
 Leave Link  101 at Sat Apr 25 13:49:10 2015, MaxMem=   524288000 cpu:         2.0
 (Enter /opt/g09/l103.exe)

 GradGradGradGradGradGradGradGradGradGradGradGradGradGradGradGradGradGrad
 Berny optimization.
 Initialization pass.
                           ----------------------------
                           !    Initial Parameters    !
                           ! (Angstroms and Degrees)  !
 --------------------------                            --------------------------
 ! Name  Definition              Value          Derivative Info.                !
 --------------------------------------------------------------------------------
 ! R1    R(1,2)                  1.5432         calculate D2E/DX2 analytically  !
 ! R2    R(1,3)                  1.5472         calculate D2E/DX2 analytically  !
 ! R3    R(1,14)                 1.0953         calculate D2E/DX2 analytically  !
 ! R4    R(1,15)                 1.0973         calculate D2E/DX2 analytically  !
 ! R5    R(2,8)                  1.544          calculate D2E/DX2 analytically  !
 ! R6    R(2,11)                 1.544          calculate D2E/DX2 analytically  !
 ! R7    R(2,16)                 1.0972         calculate D2E/DX2 analytically  !
 ! R8    R(3,4)                  1.5605         calculate D2E/DX2 analytically  !
 ! R9    R(3,5)                  1.5546         calculate D2E/DX2 analytically  !
 ! R10   R(3,6)                  1.539          calculate D2E/DX2 analytically  !
 ! R11   R(4,7)                  1.545          calculate D2E/DX2 analytically  !
 ! R12   R(4,17)                 1.0978         calculate D2E/DX2 analytically  !
 ! R13   R(4,18)                 1.0978         calculate D2E/DX2 analytically  !
 ! R14   R(5,10)                 1.5452         calculate D2E/DX2 analytically  !
 ! R15   R(5,19)                 1.0972         calculate D2E/DX2 analytically  !
 ! R16   R(5,20)                 1.0987         calculate D2E/DX2 analytically  !
 ! R17   R(6,12)                 1.5246         calculate D2E/DX2 analytically  !
 ! R18   R(6,13)                 1.2139         calculate D2E/DX2 analytically  !
 ! R19   R(7,8)                  1.5436         calculate D2E/DX2 analytically  !
 ! R20   R(7,9)                  1.5443         calculate D2E/DX2 analytically  !
 ! R21   R(7,21)                 1.0975         calculate D2E/DX2 analytically  !
 ! R22   R(8,22)                 1.0981         calculate D2E/DX2 analytically  !
 ! R23   R(8,23)                 1.0982         calculate D2E/DX2 analytically  !
 ! R24   R(9,10)                 1.5444         calculate D2E/DX2 analytically  !
 ! R25   R(9,24)                 1.0986         calculate D2E/DX2 analytically  !
 ! R26   R(9,25)                 1.098          calculate D2E/DX2 analytically  !
 ! R27   R(10,11)                1.5436         calculate D2E/DX2 analytically  !
 ! R28   R(10,26)                1.0974         calculate D2E/DX2 analytically  !
 ! R29   R(11,27)                1.0982         calculate D2E/DX2 analytically  !
 ! R30   R(11,28)                1.0983         calculate D2E/DX2 analytically  !
 ! R31   R(12,29)                1.0913         calculate D2E/DX2 analytically  !
 ! R32   R(12,30)                1.097          calculate D2E/DX2 analytically  !
 ! R33   R(12,31)                1.0938         calculate D2E/DX2 analytically  !
 ! A1    A(2,1,3)              110.3355         calculate D2E/DX2 analytically  !
 ! A2    A(2,1,14)             110.6769         calculate D2E/DX2 analytically  !
 ! A3    A(2,1,15)             110.3913         calculate D2E/DX2 analytically  !
 ! A4    A(3,1,14)             109.4797         calculate D2E/DX2 analytically  !
 ! A5    A(3,1,15)             109.4493         calculate D2E/DX2 analytically  !
 ! A6    A(14,1,15)            106.4247         calculate D2E/DX2 analytically  !
 ! A7    A(1,2,8)              109.464          calculate D2E/DX2 analytically  !
 ! A8    A(1,2,11)             109.5826         calculate D2E/DX2 analytically  !
 ! A9    A(1,2,16)             109.0811         calculate D2E/DX2 analytically  !
 ! A10   A(8,2,11)             109.5014         calculate D2E/DX2 analytically  !
 ! A11   A(8,2,16)             109.5803         calculate D2E/DX2 analytically  !
 ! A12   A(11,2,16)            109.6173         calculate D2E/DX2 analytically  !
 ! A13   A(1,3,4)              108.5384         calculate D2E/DX2 analytically  !
 ! A14   A(1,3,5)              109.088          calculate D2E/DX2 analytically  !
 ! A15   A(1,3,6)              110.3232         calculate D2E/DX2 analytically  !
 ! A16   A(4,3,5)              108.547          calculate D2E/DX2 analytically  !
 ! A17   A(4,3,6)              108.6314         calculate D2E/DX2 analytically  !
 ! A18   A(5,3,6)              111.6433         calculate D2E/DX2 analytically  !
 ! A19   A(3,4,7)              109.9273         calculate D2E/DX2 analytically  !
 ! A20   A(3,4,17)             109.3698         calculate D2E/DX2 analytically  !
 ! A21   A(3,4,18)             110.4432         calculate D2E/DX2 analytically  !
 ! A22   A(7,4,17)             110.1598         calculate D2E/DX2 analytically  !
 ! A23   A(7,4,18)             109.6249         calculate D2E/DX2 analytically  !
 ! A24   A(17,4,18)            107.278          calculate D2E/DX2 analytically  !
 ! A25   A(3,5,10)             110.0275         calculate D2E/DX2 analytically  !
 ! A26   A(3,5,19)             110.5317         calculate D2E/DX2 analytically  !
 ! A27   A(3,5,20)             109.6482         calculate D2E/DX2 analytically  !
 ! A28   A(10,5,19)            109.426          calculate D2E/DX2 analytically  !
 ! A29   A(10,5,20)            109.9656         calculate D2E/DX2 analytically  !
 ! A30   A(19,5,20)            107.198          calculate D2E/DX2 analytically  !
 ! A31   A(3,6,12)             118.474          calculate D2E/DX2 analytically  !
 ! A32   A(3,6,13)             121.4314         calculate D2E/DX2 analytically  !
 ! A33   A(12,6,13)            120.0946         calculate D2E/DX2 analytically  !
 ! A34   A(4,7,8)              109.5967         calculate D2E/DX2 analytically  !
 ! A35   A(4,7,9)              109.4809         calculate D2E/DX2 analytically  !
 ! A36   A(4,7,21)             108.84           calculate D2E/DX2 analytically  !
 ! A37   A(8,7,9)              109.4836         calculate D2E/DX2 analytically  !
 ! A38   A(8,7,21)             109.7473         calculate D2E/DX2 analytically  !
 ! A39   A(9,7,21)             109.6774         calculate D2E/DX2 analytically  !
 ! A40   A(2,8,7)              109.4063         calculate D2E/DX2 analytically  !
 ! A41   A(2,8,22)             110.0633         calculate D2E/DX2 analytically  !
 ! A42   A(2,8,23)             110.2159         calculate D2E/DX2 analytically  !
 ! A43   A(7,8,22)             110.0958         calculate D2E/DX2 analytically  !
 ! A44   A(7,8,23)             109.9513         calculate D2E/DX2 analytically  !
 ! A45   A(22,8,23)            107.0835         calculate D2E/DX2 analytically  !
 ! A46   A(7,9,10)             109.534          calculate D2E/DX2 analytically  !
 ! A47   A(7,9,24)             110.1594         calculate D2E/DX2 analytically  !
 ! A48   A(7,9,25)             109.9783         calculate D2E/DX2 analytically  !
 ! A49   A(10,9,24)            110.1336         calculate D2E/DX2 analytically  !
 ! A50   A(10,9,25)            110.0089         calculate D2E/DX2 analytically  !
 ! A51   A(24,9,25)            106.9962         calculate D2E/DX2 analytically  !
 ! A52   A(5,10,9)             109.3218         calculate D2E/DX2 analytically  !
 ! A53   A(5,10,11)            109.6843         calculate D2E/DX2 analytically  !
 ! A54   A(5,10,26)            108.9423         calculate D2E/DX2 analytically  !
 ! A55   A(9,10,11)            109.5271         calculate D2E/DX2 analytically  !
 ! A56   A(9,10,26)            109.6138         calculate D2E/DX2 analytically  !
 ! A57   A(11,10,26)           109.7361         calculate D2E/DX2 analytically  !
 ! A58   A(2,11,10)            109.4025         calculate D2E/DX2 analytically  !
 ! A59   A(2,11,27)            110.2369         calculate D2E/DX2 analytically  !
 ! A60   A(2,11,28)            110.0762         calculate D2E/DX2 analytically  !
 ! A61   A(10,11,27)           109.9718         calculate D2E/DX2 analytically  !
 ! A62   A(10,11,28)           110.0832         calculate D2E/DX2 analytically  !
 ! A63   A(27,11,28)           107.045          calculate D2E/DX2 analytically  !
 ! A64   A(6,12,29)            109.0385         calculate D2E/DX2 analytically  !
 ! A65   A(6,12,30)            108.9452         calculate D2E/DX2 analytically  !
 ! A66   A(6,12,31)            112.6994         calculate D2E/DX2 analytically  !
 ! A67   A(29,12,30)           108.5028         calculate D2E/DX2 analytically  !
 ! A68   A(29,12,31)           110.2407         calculate D2E/DX2 analytically  !
 ! A69   A(30,12,31)           107.3137         calculate D2E/DX2 analytically  !
 ! D1    D(3,1,2,8)             60.3059         calculate D2E/DX2 analytically  !
 ! D2    D(3,1,2,11)           -59.7949         calculate D2E/DX2 analytically  !
 ! D3    D(3,1,2,16)          -179.8028         calculate D2E/DX2 analytically  !
 ! D4    D(14,1,2,8)           -61.0261         calculate D2E/DX2 analytically  !
 ! D5    D(14,1,2,11)          178.873          calculate D2E/DX2 analytically  !
 ! D6    D(14,1,2,16)           58.8651         calculate D2E/DX2 analytically  !
 ! D7    D(15,1,2,8)          -178.5888         calculate D2E/DX2 analytically  !
 ! D8    D(15,1,2,11)           61.3103         calculate D2E/DX2 analytically  !
 ! D9    D(15,1,2,16)          -58.6976         calculate D2E/DX2 analytically  !
 ! D10   D(2,1,3,4)            -59.3683         calculate D2E/DX2 analytically  !
 ! D11   D(2,1,3,5)             58.7343         calculate D2E/DX2 analytically  !
 ! D12   D(2,1,3,6)           -178.2847         calculate D2E/DX2 analytically  !
 ! D13   D(14,1,3,4)            62.6726         calculate D2E/DX2 analytically  !
 ! D14   D(14,1,3,5)          -179.2247         calculate D2E/DX2 analytically  !
 ! D15   D(14,1,3,6)           -56.2437         calculate D2E/DX2 analytically  !
 ! D16   D(15,1,3,4)           178.9668         calculate D2E/DX2 analytically  !
 ! D17   D(15,1,3,5)           -62.9305         calculate D2E/DX2 analytically  !
 ! D18   D(15,1,3,6)            60.0505         calculate D2E/DX2 analytically  !
 ! D19   D(1,2,8,7)            -59.9805         calculate D2E/DX2 analytically  !
 ! D20   D(1,2,8,22)            61.1161         calculate D2E/DX2 analytically  !
 ! D21   D(1,2,8,23)           179.0055         calculate D2E/DX2 analytically  !
 ! D22   D(11,2,8,7)            60.17           calculate D2E/DX2 analytically  !
 ! D23   D(11,2,8,22)         -178.7334         calculate D2E/DX2 analytically  !
 ! D24   D(11,2,8,23)          -60.844          calculate D2E/DX2 analytically  !
 ! D25   D(16,2,8,7)          -179.5651         calculate D2E/DX2 analytically  !
 ! D26   D(16,2,8,22)          -58.4685         calculate D2E/DX2 analytically  !
 ! D27   D(16,2,8,23)           59.4208         calculate D2E/DX2 analytically  !
 ! D28   D(1,2,11,10)           59.9594         calculate D2E/DX2 analytically  !
 ! D29   D(1,2,11,27)         -178.9902         calculate D2E/DX2 analytically  !
 ! D30   D(1,2,11,28)          -61.1274         calculate D2E/DX2 analytically  !
 ! D31   D(8,2,11,10)          -60.1187         calculate D2E/DX2 analytically  !
 ! D32   D(8,2,11,27)           60.9318         calculate D2E/DX2 analytically  !
 ! D33   D(8,2,11,28)          178.7946         calculate D2E/DX2 analytically  !
 ! D34   D(16,2,11,10)         179.6391         calculate D2E/DX2 analytically  !
 ! D35   D(16,2,11,27)         -59.3105         calculate D2E/DX2 analytically  !
 ! D36   D(16,2,11,28)          58.5523         calculate D2E/DX2 analytically  !
 ! D37   D(1,3,4,7)             59.1499         calculate D2E/DX2 analytically  !
 ! D38   D(1,3,4,17)           -61.917          calculate D2E/DX2 analytically  !
 ! D39   D(1,3,4,18)          -179.759          calculate D2E/DX2 analytically  !
 ! D40   D(5,3,4,7)            -59.2956         calculate D2E/DX2 analytically  !
 ! D41   D(5,3,4,17)           179.6376         calculate D2E/DX2 analytically  !
 ! D42   D(5,3,4,18)            61.7955         calculate D2E/DX2 analytically  !
 ! D43   D(6,3,4,7)            179.1262         calculate D2E/DX2 analytically  !
 ! D44   D(6,3,4,17)            58.0593         calculate D2E/DX2 analytically  !
 ! D45   D(6,3,4,18)           -59.7828         calculate D2E/DX2 analytically  !
 ! D46   D(1,3,5,10)           -58.5832         calculate D2E/DX2 analytically  !
 ! D47   D(1,3,5,19)          -179.5488         calculate D2E/DX2 analytically  !
 ! D48   D(1,3,5,20)            62.4841         calculate D2E/DX2 analytically  !
 ! D49   D(4,3,5,10)            59.5141         calculate D2E/DX2 analytically  !
 ! D50   D(4,3,5,19)           -61.4515         calculate D2E/DX2 analytically  !
 ! D51   D(4,3,5,20)          -179.4187         calculate D2E/DX2 analytically  !
 ! D52   D(6,3,5,10)           179.228          calculate D2E/DX2 analytically  !
 ! D53   D(6,3,5,19)            58.2624         calculate D2E/DX2 analytically  !
 ! D54   D(6,3,5,20)           -59.7047         calculate D2E/DX2 analytically  !
 ! D55   D(1,3,6,12)          -166.9271         calculate D2E/DX2 analytically  !
 ! D56   D(1,3,6,13)            13.1436         calculate D2E/DX2 analytically  !
 ! D57   D(4,3,6,12)            74.2132         calculate D2E/DX2 analytically  !
 ! D58   D(4,3,6,13)          -105.7161         calculate D2E/DX2 analytically  !
 ! D59   D(5,3,6,12)           -45.451          calculate D2E/DX2 analytically  !
 ! D60   D(5,3,6,13)           134.6197         calculate D2E/DX2 analytically  !
 ! D61   D(3,4,7,8)            -60.0272         calculate D2E/DX2 analytically  !
 ! D62   D(3,4,7,9)             60.0709         calculate D2E/DX2 analytically  !
 ! D63   D(3,4,7,21)           179.9446         calculate D2E/DX2 analytically  !
 ! D64   D(17,4,7,8)            60.564          calculate D2E/DX2 analytically  !
 ! D65   D(17,4,7,9)          -179.3379         calculate D2E/DX2 analytically  !
 ! D66   D(17,4,7,21)          -59.4642         calculate D2E/DX2 analytically  !
 ! D67   D(18,4,7,8)           178.3916         calculate D2E/DX2 analytically  !
 ! D68   D(18,4,7,9)           -61.5103         calculate D2E/DX2 analytically  !
 ! D69   D(18,4,7,21)           58.3635         calculate D2E/DX2 analytically  !
 ! D70   D(3,5,10,9)           -60.4429         calculate D2E/DX2 analytically  !
 ! D71   D(3,5,10,11)           59.6643         calculate D2E/DX2 analytically  !
 ! D72   D(3,5,10,26)          179.794          calculate D2E/DX2 analytically  !
 ! D73   D(19,5,10,9)           61.184          calculate D2E/DX2 analytically  !
 ! D74   D(19,5,10,11)        -178.7088         calculate D2E/DX2 analytically  !
 ! D75   D(19,5,10,26)         -58.5791         calculate D2E/DX2 analytically  !
 ! D76   D(20,5,10,9)          178.6803         calculate D2E/DX2 analytically  !
 ! D77   D(20,5,10,11)         -61.2125         calculate D2E/DX2 analytically  !
 ! D78   D(20,5,10,26)          58.9172         calculate D2E/DX2 analytically  !
 ! D79   D(3,6,12,29)         -161.17           calculate D2E/DX2 analytically  !
 ! D80   D(3,6,12,30)           80.5752         calculate D2E/DX2 analytically  !
 ! D81   D(3,6,12,31)          -38.4143         calculate D2E/DX2 analytically  !
 ! D82   D(13,6,12,29)          18.7603         calculate D2E/DX2 analytically  !
 ! D83   D(13,6,12,30)         -99.4945         calculate D2E/DX2 analytically  !
 ! D84   D(13,6,12,31)         141.516          calculate D2E/DX2 analytically  !
 ! D85   D(4,7,8,2)             60.0953         calculate D2E/DX2 analytically  !
 ! D86   D(4,7,8,22)           -60.9817         calculate D2E/DX2 analytically  !
 ! D87   D(4,7,8,23)          -178.7303         calculate D2E/DX2 analytically  !
 ! D88   D(9,7,8,2)            -60.0013         calculate D2E/DX2 analytically  !
 ! D89   D(9,7,8,22)           178.9218         calculate D2E/DX2 analytically  !
 ! D90   D(9,7,8,23)            61.1732         calculate D2E/DX2 analytically  !
 ! D91   D(21,7,8,2)           179.5676         calculate D2E/DX2 analytically  !
 ! D92   D(21,7,8,22)           58.4907         calculate D2E/DX2 analytically  !
 ! D93   D(21,7,8,23)          -59.2579         calculate D2E/DX2 analytically  !
 ! D94   D(4,7,9,10)           -60.2976         calculate D2E/DX2 analytically  !
 ! D95   D(4,7,9,24)            60.989          calculate D2E/DX2 analytically  !
 ! D96   D(4,7,9,25)           178.6855         calculate D2E/DX2 analytically  !
 ! D97   D(8,7,9,10)            59.8697         calculate D2E/DX2 analytically  !
 ! D98   D(8,7,9,24)          -178.8437         calculate D2E/DX2 analytically  !
 ! D99   D(8,7,9,25)           -61.1472         calculate D2E/DX2 analytically  !
 ! D100  D(21,7,9,10)         -179.6566         calculate D2E/DX2 analytically  !
 ! D101  D(21,7,9,24)          -58.37           calculate D2E/DX2 analytically  !
 ! D102  D(21,7,9,25)           59.3265         calculate D2E/DX2 analytically  !
 ! D103  D(7,9,10,5)            60.3564         calculate D2E/DX2 analytically  !
 ! D104  D(7,9,10,11)          -59.8472         calculate D2E/DX2 analytically  !
 ! D105  D(7,9,10,26)          179.7053         calculate D2E/DX2 analytically  !
 ! D106  D(24,9,10,5)          -60.9458         calculate D2E/DX2 analytically  !
 ! D107  D(24,9,10,11)         178.8506         calculate D2E/DX2 analytically  !
 ! D108  D(24,9,10,26)          58.4031         calculate D2E/DX2 analytically  !
 ! D109  D(25,9,10,5)         -178.6453         calculate D2E/DX2 analytically  !
 ! D110  D(25,9,10,11)          61.1511         calculate D2E/DX2 analytically  !
 ! D111  D(25,9,10,26)         -59.2964         calculate D2E/DX2 analytically  !
 ! D112  D(5,10,11,2)          -60.0576         calculate D2E/DX2 analytically  !
 ! D113  D(5,10,11,27)         178.7313         calculate D2E/DX2 analytically  !
 ! D114  D(5,10,11,28)          61.0249         calculate D2E/DX2 analytically  !
 ! D115  D(9,10,11,2)           59.9244         calculate D2E/DX2 analytically  !
 ! D116  D(9,10,11,27)         -61.2867         calculate D2E/DX2 analytically  !
 ! D117  D(9,10,11,28)        -178.9931         calculate D2E/DX2 analytically  !
 ! D118  D(26,10,11,2)        -179.7026         calculate D2E/DX2 analytically  !
 ! D119  D(26,10,11,27)         59.0863         calculate D2E/DX2 analytically  !
 ! D120  D(26,10,11,28)        -58.6201         calculate D2E/DX2 analytically  !
 --------------------------------------------------------------------------------
 Trust Radius=3.00D-01 FncErr=1.00D-07 GrdErr=1.00D-06
 Number of steps in this run=    186 maximum allowed number of steps=    186.
 GradGradGradGradGradGradGradGradGradGradGradGradGradGradGradGradGradGrad

 Leave Link  103 at Sat Apr 25 13:49:10 2015, MaxMem=   524288000 cpu:         0.1
 (Enter /opt/g09/l202.exe)
                          Input orientation:                          
 ---------------------------------------------------------------------
 Center     Atomic      Atomic             Coordinates (Angstroms)
 Number     Number       Type             X           Y           Z
 ---------------------------------------------------------------------
      1          6           0        3.317340    3.922720    3.625490
      2          6           0        2.033040    3.517350    4.378860
      3          6           0        3.783340    2.773540    2.700180
      4          6           0        4.053410    1.510230    3.575530
      5          6           0        2.648770    2.442090    1.690320
      6          6           0        5.087630    3.161600    1.981300
      7          6           0        2.766410    1.106870    4.329230
      8          6           0        2.314950    2.267810    5.240950
      9          6           0        1.650880    0.788760    3.309850
     10          6           0        1.364920    2.039520    2.450170
     11          6           0        0.914880    3.200640    3.362290
     12          6           0        5.552270    2.307360    0.807050
     13          8           0        5.741760    4.122320    2.331530
     14          1           0        4.117540    4.170910    4.330990
     15          1           0        3.140670    4.825110    3.026740
     16          1           0        1.719330    4.346730    5.025020
     17          1           0        4.857940    1.727600    4.290090
     18          1           0        4.390940    0.674510    2.948820
     19          1           0        2.951840    1.622890    1.026270
     20          1           0        2.450770    3.317580    1.056690
     21          1           0        2.975810    0.217630    4.937410
     22          1           0        3.093600    2.489750    5.982690
     23          1           0        1.412920    1.978820    5.796740
     24          1           0        1.952500   -0.050340    2.668060
     25          1           0        0.738830    0.478320    3.836500
     26          1           0        0.575940    1.813310    1.721700
     27          1           0       -0.010150    2.928020    3.887720
     28          1           0        0.691700    4.090160    2.758040
     29          1           0        6.613460    2.491380    0.630860
     30          1           0        4.994180    2.601740   -0.090380
     31          1           0        5.374510    1.239780    0.965320
 ---------------------------------------------------------------------
                    Distance matrix (angstroms):
                    1          2          3          4          5
     1  C    0.000000
     2  C    1.543152   0.000000
     3  C    1.547246   2.536685   0.000000
     4  C    2.522777   2.959014   1.560490   0.000000
     5  C    2.526684   2.960330   1.554646   2.528911   0.000000
     6  C    2.533099   3.899407   1.539010   2.517579   2.559375
     7  C    2.954282   2.520061   2.542782   1.545035   2.959814
     8  C    2.520560   1.544028   2.977825   2.523845   3.570544
     9  C    3.563485   2.955340   2.976312   2.522549   2.520350
    10  C    2.956309   2.519962   2.539694   2.962189   1.545220
    11  C    2.522397   1.544021   2.974704   3.571180   2.525323
    12  C    3.943083   5.158186   2.632561   3.247534   3.037866
    13  O    2.755356   4.279270   2.406350   3.349787   3.577836
    14  H    1.095285   2.185080   2.173447   2.766595   3.481270
    15  H    1.097279   2.182959   2.174536   3.481766   2.776107
    16  H    2.166127   1.097182   3.484242   3.949010   3.951169
    17  H    2.762914   3.345317   2.185536   1.097777   3.485647
    18  H    3.487315   3.960612   2.199301   1.097780   2.782682
    19  H    3.489807   3.958918   2.194849   2.779366   1.097225
    20  H    2.777746   3.354284   2.184670   3.489917   1.098715
    21  H    3.945310   3.476916   3.491415   2.164891   3.949528
    22  H    2.767644   2.180142   3.366177   2.770400   4.315621
    23  H    3.481363   2.182202   3.979844   3.482174   4.313308
    24  H    4.308673   3.957491   3.365606   2.769965   2.766401
    25  H    4.307799   3.347363   3.978479   3.481291   3.479993
    26  H    3.948329   3.476693   3.488105   3.952384   2.166327
    27  H    3.482870   2.182465   3.978025   4.315103   3.483468
    28  H    2.770287   2.180450   3.360814   4.315718   2.772415
    29  H    4.677708   6.006693   3.517283   4.023381   4.104102
    30  H    4.285379   5.438823   3.046781   3.938951   2.949123
    31  H    4.301932   5.291975   2.809623   2.937966   3.066078
                    6          7          8          9         10
     6  C    0.000000
     7  C    3.888798   0.000000
     8  C    4.371720   1.543642   0.000000
     9  C    4.382541   1.544259   2.521453   0.000000
    10  C    3.916309   2.522871   2.956878   1.544417   0.000000
    11  C    4.395509   2.957534   2.521851   2.522223   1.543599
    12  C    1.524624   4.648435   5.490107   4.877602   4.506160
    13  O    1.213890   4.683637   4.862814   5.367032   4.848594
    14  H    2.735110   3.348716   2.774734   4.308837   3.956921
    15  H    2.766019   3.957507   3.482000   4.311815   3.353391
    16  H    4.691930   3.475226   2.173315   3.950398   3.475439
    17  H    2.727568   2.182048   2.768169   3.482460   3.960276
    18  H    2.758095   2.175216   3.478822   2.766103   3.356889
    19  H    2.800234   3.348165   4.311041   2.757355   2.172415
    20  H    2.798618   3.961866   4.316074   3.480156   2.180434
    21  H    4.676038   1.097488   2.175341   2.174990   3.478593
    22  H    4.520914   2.180216   1.098058   3.481218   3.958502
    23  H    5.427711   2.178490   1.098215   2.767217   3.347465
    24  H    4.540621   2.181988   3.482090   1.098616   2.181798
    25  H    5.436343   2.179206   2.767473   1.097984   2.179735
    26  H    4.715997   3.477992   3.951689   2.174263   1.097419
    27  H    5.447601   3.349747   2.770054   2.769366   2.178715
    28  H    4.559578   3.958924   3.481486   3.481919   2.180168
    29  H    2.145004   5.513130   6.307147   5.890934   5.573261
    30  H    2.148030   5.170159   5.976024   5.101580   4.465648
    31  H    2.192694   4.258608   5.357123   4.423309   4.349848
                   11         12         13         14         15
    11  C    0.000000
    12  C    5.369598   0.000000
    13  O    5.021029   2.377819   0.000000
    14  H    3.483796   4.236676   2.576488   0.000000
    15  H    2.775903   4.133026   2.782607   1.755939   0.000000
    16  H    2.173783   6.053241   4.846152   2.502799   2.498435
    17  H    4.310265   3.598581   3.217418   2.553356   3.760271
    18  H    4.316860   2.932928   3.754085   3.769609   4.335519
    19  H    3.477857   2.697924   3.966675   4.332717   3.780443
    20  H    2.772801   3.271417   3.619867   3.771914   2.574821
    21  H    3.953073   5.297640   5.448641   4.159293   4.990662
    22  H    3.481190   5.732850   4.796770   2.569604   3.767461
    23  H    2.769013   6.491468   5.944840   3.777387   4.331211
    24  H    3.482453   4.688331   5.646489   5.027095   5.030945
    25  H    2.768916   5.974292   6.369692   5.029455   5.031812
    26  H    2.175109   5.083752   5.691144   4.990952   4.165562
    27  H    1.098216   6.388761   6.077216   4.333485   3.777288
    28  H    1.098259   5.532620   5.068141   3.770553   2.570954
    29  H    6.359054   1.091343   2.512390   4.768794   4.821494
    30  H    5.377760   1.097044   2.955789   4.772767   4.253858
    31  H    5.429432   1.093789   3.210987   4.636726   4.700435
                   16         17         18         19         20
    16  H    0.000000
    17  H    4.153413   0.000000
    18  H    4.993326   1.768076   0.000000
    19  H    4.992834   3.781098   2.581982   0.000000
    20  H    4.164348   4.333287   3.785530   1.767476   0.000000
    21  H    4.316930   2.498289   2.483107   4.156001   4.994531
    22  H    2.500825   2.560989   3.765973   5.033651   5.036269
    23  H    2.509270   3.768457   4.322092   5.025171   5.033635
    24  H    4.994382   3.772749   2.559340   2.548304   3.766653
    25  H    4.163959   4.328223   3.763559   3.755642   4.326601
    26  H    4.317115   4.993946   4.166163   2.482898   2.494004
    27  H    2.509440   5.030031   5.032836   4.320260   3.771288
    28  H    2.502209   5.028561   5.038595   3.767583   2.566281
    29  H    6.833994   4.129791   3.689654   3.783925   4.265199
    30  H    6.319569   4.468915   3.648952   2.525115   2.880474
    31  H    6.284476   3.399839   2.284997   2.453532   3.588016
                   21         22         23         24         25
    21  H    0.000000
    22  H    2.503800   0.000000
    23  H    2.506564   1.766441   0.000000
    24  H    2.503781   4.329081   3.767927   0.000000
    25  H    2.506799   3.767881   2.558992   1.765709   0.000000
    26  H    4.318143   4.995220   4.163398   2.502740   2.506214
    27  H    4.167016   3.770178   2.563292   3.769641   2.562152
    28  H    4.996329   4.327679   3.769829   4.329140   3.769706
    29  H    6.078553   6.405584   7.348105   5.686394   6.988549
    30  H    5.919161   6.364505   6.918933   4.888183   6.167439
    31  H    4.751426   5.651458   6.291502   4.034090   5.505727
                   26         27         28         29         30
    26  H    0.000000
    27  H    2.505538   0.000000
    28  H    2.504286   1.766165   0.000000
    29  H    6.172630   7.393916   6.492167   0.000000
    30  H    4.840052   6.401176   5.370310   1.776073   0.000000
    31  H    4.891556   6.354930   5.767774   1.792586   1.764678
                   31
    31  H    0.000000
 Symmetry turned off by external request.
 Stoichiometry    C12H18O
 Framework group  C1[X(C12H18O)]
 Deg. of freedom    87
 Full point group                 C1      NOp   1
 Rotational constants (GHZ):      1.4417729      0.6900294      0.6500624
 Leave Link  202 at Sat Apr 25 13:49:10 2015, MaxMem=   524288000 cpu:         0.0
 (Enter /opt/g09/l301.exe)
 Standard basis: 6-311+G(d,p) (5D, 7F)
 Ernie: Thresh=  0.10000D-02 Tol=  0.10000D-05 Strict=F.
 AO basis set in the form of general basis input (Overlap normalization):
      1 0
 S   6 1.00       0.000000000000
      0.4563240000D+04  0.1966650249D-02
      0.6820240000D+03  0.1523060193D-01
      0.1549730000D+03  0.7612690966D-01
      0.4445530000D+02  0.2608010331D+00
      0.1302900000D+02  0.6164620782D+00
      0.1827730000D+01  0.2210060280D+00
 SP   3 1.00       0.000000000000
      0.2096420000D+02  0.1146600807D+00  0.4024869267D-01
      0.4803310000D+01  0.9199996477D+00  0.2375939567D+00
      0.1459330000D+01 -0.3030682134D-02  0.8158538515D+00
 SP   1 1.00       0.000000000000
      0.4834560000D+00  0.1000000000D+01  0.1000000000D+01
 SP   1 1.00       0.000000000000
      0.1455850000D+00  0.1000000000D+01  0.1000000000D+01
 SP   1 1.00       0.000000000000
      0.4380000000D-01  0.1000000000D+01  0.1000000000D+01
 D   1 1.00       0.000000000000
      0.6260000000D+00  0.1000000000D+01
 ****
      2 0
 S   6 1.00       0.000000000000
      0.4563240000D+04  0.1966650249D-02
      0.6820240000D+03  0.1523060193D-01
      0.1549730000D+03  0.7612690966D-01
      0.4445530000D+02  0.2608010331D+00
      0.1302900000D+02  0.6164620782D+00
      0.1827730000D+01  0.2210060280D+00
 SP   3 1.00       0.000000000000
      0.2096420000D+02  0.1146600807D+00  0.4024869267D-01
      0.4803310000D+01  0.9199996477D+00  0.2375939567D+00
      0.1459330000D+01 -0.3030682134D-02  0.8158538515D+00
 SP   1 1.00       0.000000000000
      0.4834560000D+00  0.1000000000D+01  0.1000000000D+01
 SP   1 1.00       0.000000000000
      0.1455850000D+00  0.1000000000D+01  0.1000000000D+01
 SP   1 1.00       0.000000000000
      0.4380000000D-01  0.1000000000D+01  0.1000000000D+01
 D   1 1.00       0.000000000000
      0.6260000000D+00  0.1000000000D+01
 ****
      3 0
 S   6 1.00       0.000000000000
      0.4563240000D+04  0.1966650249D-02
      0.6820240000D+03  0.1523060193D-01
      0.1549730000D+03  0.7612690966D-01
      0.4445530000D+02  0.2608010331D+00
      0.1302900000D+02  0.6164620782D+00
      0.1827730000D+01  0.2210060280D+00
 SP   3 1.00       0.000000000000
      0.2096420000D+02  0.1146600807D+00  0.4024869267D-01
      0.4803310000D+01  0.9199996477D+00  0.2375939567D+00
      0.1459330000D+01 -0.3030682134D-02  0.8158538515D+00
 SP   1 1.00       0.000000000000
      0.4834560000D+00  0.1000000000D+01  0.1000000000D+01
 SP   1 1.00       0.000000000000
      0.1455850000D+00  0.1000000000D+01  0.1000000000D+01
 SP   1 1.00       0.000000000000
      0.4380000000D-01  0.1000000000D+01  0.1000000000D+01
 D   1 1.00       0.000000000000
      0.6260000000D+00  0.1000000000D+01
 ****
      4 0
 S   6 1.00       0.000000000000
      0.4563240000D+04  0.1966650249D-02
      0.6820240000D+03  0.1523060193D-01
      0.1549730000D+03  0.7612690966D-01
      0.4445530000D+02  0.2608010331D+00
      0.1302900000D+02  0.6164620782D+00
      0.1827730000D+01  0.2210060280D+00
 SP   3 1.00       0.000000000000
      0.2096420000D+02  0.1146600807D+00  0.4024869267D-01
      0.4803310000D+01  0.9199996477D+00  0.2375939567D+00
      0.1459330000D+01 -0.3030682134D-02  0.8158538515D+00
 SP   1 1.00       0.000000000000
      0.4834560000D+00  0.1000000000D+01  0.1000000000D+01
 SP   1 1.00       0.000000000000
      0.1455850000D+00  0.1000000000D+01  0.1000000000D+01
 SP   1 1.00       0.000000000000
      0.4380000000D-01  0.1000000000D+01  0.1000000000D+01
 D   1 1.00       0.000000000000
      0.6260000000D+00  0.1000000000D+01
 ****
      5 0
 S   6 1.00       0.000000000000
      0.4563240000D+04  0.1966650249D-02
      0.6820240000D+03  0.1523060193D-01
      0.1549730000D+03  0.7612690966D-01
      0.4445530000D+02  0.2608010331D+00
      0.1302900000D+02  0.6164620782D+00
      0.1827730000D+01  0.2210060280D+00
 SP   3 1.00       0.000000000000
      0.2096420000D+02  0.1146600807D+00  0.4024869267D-01
      0.4803310000D+01  0.9199996477D+00  0.2375939567D+00
      0.1459330000D+01 -0.3030682134D-02  0.8158538515D+00
 SP   1 1.00       0.000000000000
      0.4834560000D+00  0.1000000000D+01  0.1000000000D+01
 SP   1 1.00       0.000000000000
      0.1455850000D+00  0.1000000000D+01  0.1000000000D+01
 SP   1 1.00       0.000000000000
      0.4380000000D-01  0.1000000000D+01  0.1000000000D+01
 D   1 1.00       0.000000000000
      0.6260000000D+00  0.1000000000D+01
 ****
      6 0
 S   6 1.00       0.000000000000
      0.4563240000D+04  0.1966650249D-02
      0.6820240000D+03  0.1523060193D-01
      0.1549730000D+03  0.7612690966D-01
      0.4445530000D+02  0.2608010331D+00
      0.1302900000D+02  0.6164620782D+00
      0.1827730000D+01  0.2210060280D+00
 SP   3 1.00       0.000000000000
      0.2096420000D+02  0.1146600807D+00  0.4024869267D-01
      0.4803310000D+01  0.9199996477D+00  0.2375939567D+00
      0.1459330000D+01 -0.3030682134D-02  0.8158538515D+00
 SP   1 1.00       0.000000000000
      0.4834560000D+00  0.1000000000D+01  0.1000000000D+01
 SP   1 1.00       0.000000000000
      0.1455850000D+00  0.1000000000D+01  0.1000000000D+01
 SP   1 1.00       0.000000000000
      0.4380000000D-01  0.1000000000D+01  0.1000000000D+01
 D   1 1.00       0.000000000000
      0.6260000000D+00  0.1000000000D+01
 ****
      7 0
 S   6 1.00       0.000000000000
      0.4563240000D+04  0.1966650249D-02
      0.6820240000D+03  0.1523060193D-01
      0.1549730000D+03  0.7612690966D-01
      0.4445530000D+02  0.2608010331D+00
      0.1302900000D+02  0.6164620782D+00
      0.1827730000D+01  0.2210060280D+00
 SP   3 1.00       0.000000000000
      0.2096420000D+02  0.1146600807D+00  0.4024869267D-01
      0.4803310000D+01  0.9199996477D+00  0.2375939567D+00
      0.1459330000D+01 -0.3030682134D-02  0.8158538515D+00
 SP   1 1.00       0.000000000000
      0.4834560000D+00  0.1000000000D+01  0.1000000000D+01
 SP   1 1.00       0.000000000000
      0.1455850000D+00  0.1000000000D+01  0.1000000000D+01
 SP   1 1.00       0.000000000000
      0.4380000000D-01  0.1000000000D+01  0.1000000000D+01
 D   1 1.00       0.000000000000
      0.6260000000D+00  0.1000000000D+01
 ****
      8 0
 S   6 1.00       0.000000000000
      0.4563240000D+04  0.1966650249D-02
      0.6820240000D+03  0.1523060193D-01
      0.1549730000D+03  0.7612690966D-01
      0.4445530000D+02  0.2608010331D+00
      0.1302900000D+02  0.6164620782D+00
      0.1827730000D+01  0.2210060280D+00
 SP   3 1.00       0.000000000000
      0.2096420000D+02  0.1146600807D+00  0.4024869267D-01
      0.4803310000D+01  0.9199996477D+00  0.2375939567D+00
      0.1459330000D+01 -0.3030682134D-02  0.8158538515D+00
 SP   1 1.00       0.000000000000
      0.4834560000D+00  0.1000000000D+01  0.1000000000D+01
 SP   1 1.00       0.000000000000
      0.1455850000D+00  0.1000000000D+01  0.1000000000D+01
 SP   1 1.00       0.000000000000
      0.4380000000D-01  0.1000000000D+01  0.1000000000D+01
 D   1 1.00       0.000000000000
      0.6260000000D+00  0.1000000000D+01
 ****
      9 0
 S   6 1.00       0.000000000000
      0.4563240000D+04  0.1966650249D-02
      0.6820240000D+03  0.1523060193D-01
      0.1549730000D+03  0.7612690966D-01
      0.4445530000D+02  0.2608010331D+00
      0.1302900000D+02  0.6164620782D+00
      0.1827730000D+01  0.2210060280D+00
 SP   3 1.00       0.000000000000
      0.2096420000D+02  0.1146600807D+00  0.4024869267D-01
      0.4803310000D+01  0.9199996477D+00  0.2375939567D+00
      0.1459330000D+01 -0.3030682134D-02  0.8158538515D+00
 SP   1 1.00       0.000000000000
      0.4834560000D+00  0.1000000000D+01  0.1000000000D+01
 SP   1 1.00       0.000000000000
      0.1455850000D+00  0.1000000000D+01  0.1000000000D+01
 SP   1 1.00       0.000000000000
      0.4380000000D-01  0.1000000000D+01  0.1000000000D+01
 D   1 1.00       0.000000000000
      0.6260000000D+00  0.1000000000D+01
 ****
     10 0
 S   6 1.00       0.000000000000
      0.4563240000D+04  0.1966650249D-02
      0.6820240000D+03  0.1523060193D-01
      0.1549730000D+03  0.7612690966D-01
      0.4445530000D+02  0.2608010331D+00
      0.1302900000D+02  0.6164620782D+00
      0.1827730000D+01  0.2210060280D+00
 SP   3 1.00       0.000000000000
      0.2096420000D+02  0.1146600807D+00  0.4024869267D-01
      0.4803310000D+01  0.9199996477D+00  0.2375939567D+00
      0.1459330000D+01 -0.3030682134D-02  0.8158538515D+00
 SP   1 1.00       0.000000000000
      0.4834560000D+00  0.1000000000D+01  0.1000000000D+01
 SP   1 1.00       0.000000000000
      0.1455850000D+00  0.1000000000D+01  0.1000000000D+01
 SP   1 1.00       0.000000000000
      0.4380000000D-01  0.1000000000D+01  0.1000000000D+01
 D   1 1.00       0.000000000000
      0.6260000000D+00  0.1000000000D+01
 ****
     11 0
 S   6 1.00       0.000000000000
      0.4563240000D+04  0.1966650249D-02
      0.6820240000D+03  0.1523060193D-01
      0.1549730000D+03  0.7612690966D-01
      0.4445530000D+02  0.2608010331D+00
      0.1302900000D+02  0.6164620782D+00
      0.1827730000D+01  0.2210060280D+00
 SP   3 1.00       0.000000000000
      0.2096420000D+02  0.1146600807D+00  0.4024869267D-01
      0.4803310000D+01  0.9199996477D+00  0.2375939567D+00
      0.1459330000D+01 -0.3030682134D-02  0.8158538515D+00
 SP   1 1.00       0.000000000000
      0.4834560000D+00  0.1000000000D+01  0.1000000000D+01
 SP   1 1.00       0.000000000000
      0.1455850000D+00  0.1000000000D+01  0.1000000000D+01
 SP   1 1.00       0.000000000000
      0.4380000000D-01  0.1000000000D+01  0.1000000000D+01
 D   1 1.00       0.000000000000
      0.6260000000D+00  0.1000000000D+01
 ****
     12 0
 S   6 1.00       0.000000000000
      0.4563240000D+04  0.1966650249D-02
      0.6820240000D+03  0.1523060193D-01
      0.1549730000D+03  0.7612690966D-01
      0.4445530000D+02  0.2608010331D+00
      0.1302900000D+02  0.6164620782D+00
      0.1827730000D+01  0.2210060280D+00
 SP   3 1.00       0.000000000000
      0.2096420000D+02  0.1146600807D+00  0.4024869267D-01
      0.4803310000D+01  0.9199996477D+00  0.2375939567D+00
      0.1459330000D+01 -0.3030682134D-02  0.8158538515D+00
 SP   1 1.00       0.000000000000
      0.4834560000D+00  0.1000000000D+01  0.1000000000D+01
 SP   1 1.00       0.000000000000
      0.1455850000D+00  0.1000000000D+01  0.1000000000D+01
 SP   1 1.00       0.000000000000
      0.4380000000D-01  0.1000000000D+01  0.1000000000D+01
 D   1 1.00       0.000000000000
      0.6260000000D+00  0.1000000000D+01
 ****
     13 0
 S   6 1.00       0.000000000000
      0.8588500000D+04  0.1895150083D-02
      0.1297230000D+04  0.1438590063D-01
      0.2992960000D+03  0.7073200310D-01
      0.8737710000D+02  0.2400010105D+00
      0.2567890000D+02  0.5947970261D+00
      0.3740040000D+01  0.2808020123D+00
 SP   3 1.00       0.000000000000
      0.4211750000D+02  0.1138890124D+00  0.3651139738D-01
      0.9628370000D+01  0.9208111006D+00  0.2371529830D+00
      0.2853320000D+01 -0.3274470358D-02  0.8197019412D+00
 SP   1 1.00       0.000000000000
      0.9056610000D+00  0.1000000000D+01  0.1000000000D+01
 SP   1 1.00       0.000000000000
      0.2556110000D+00  0.1000000000D+01  0.1000000000D+01
 SP   1 1.00       0.000000000000
      0.8450000000D-01  0.1000000000D+01  0.1000000000D+01
 D   1 1.00       0.000000000000
      0.1292000000D+01  0.1000000000D+01
 ****
     14 0
 S   3 1.00       0.000000000000
      0.3386500000D+02  0.2549381454D-01
      0.5094790000D+01  0.1903731086D+00
      0.1158790000D+01  0.8521614860D+00
 S   1 1.00       0.000000000000
      0.3258400000D+00  0.1000000000D+01
 S   1 1.00       0.000000000000
      0.1027410000D+00  0.1000000000D+01
 P   1 1.00       0.000000000000
      0.7500000000D+00  0.1000000000D+01
 ****
     15 0
 S   3 1.00       0.000000000000
      0.3386500000D+02  0.2549381454D-01
      0.5094790000D+01  0.1903731086D+00
      0.1158790000D+01  0.8521614860D+00
 S   1 1.00       0.000000000000
      0.3258400000D+00  0.1000000000D+01
 S   1 1.00       0.000000000000
      0.1027410000D+00  0.1000000000D+01
 P   1 1.00       0.000000000000
      0.7500000000D+00  0.1000000000D+01
 ****
     16 0
 S   3 1.00       0.000000000000
      0.3386500000D+02  0.2549381454D-01
      0.5094790000D+01  0.1903731086D+00
      0.1158790000D+01  0.8521614860D+00
 S   1 1.00       0.000000000000
      0.3258400000D+00  0.1000000000D+01
 S   1 1.00       0.000000000000
      0.1027410000D+00  0.1000000000D+01
 P   1 1.00       0.000000000000
      0.7500000000D+00  0.1000000000D+01
 ****
     17 0
 S   3 1.00       0.000000000000
      0.3386500000D+02  0.2549381454D-01
      0.5094790000D+01  0.1903731086D+00
      0.1158790000D+01  0.8521614860D+00
 S   1 1.00       0.000000000000
      0.3258400000D+00  0.1000000000D+01
 S   1 1.00       0.000000000000
      0.1027410000D+00  0.1000000000D+01
 P   1 1.00       0.000000000000
      0.7500000000D+00  0.1000000000D+01
 ****
     18 0
 S   3 1.00       0.000000000000
      0.3386500000D+02  0.2549381454D-01
      0.5094790000D+01  0.1903731086D+00
      0.1158790000D+01  0.8521614860D+00
 S   1 1.00       0.000000000000
      0.3258400000D+00  0.1000000000D+01
 S   1 1.00       0.000000000000
      0.1027410000D+00  0.1000000000D+01
 P   1 1.00       0.000000000000
      0.7500000000D+00  0.1000000000D+01
 ****
     19 0
 S   3 1.00       0.000000000000
      0.3386500000D+02  0.2549381454D-01
      0.5094790000D+01  0.1903731086D+00
      0.1158790000D+01  0.8521614860D+00
 S   1 1.00       0.000000000000
      0.3258400000D+00  0.1000000000D+01
 S   1 1.00       0.000000000000
      0.1027410000D+00  0.1000000000D+01
 P   1 1.00       0.000000000000
      0.7500000000D+00  0.1000000000D+01
 ****
     20 0
 S   3 1.00       0.000000000000
      0.3386500000D+02  0.2549381454D-01
      0.5094790000D+01  0.1903731086D+00
      0.1158790000D+01  0.8521614860D+00
 S   1 1.00       0.000000000000
      0.3258400000D+00  0.1000000000D+01
 S   1 1.00       0.000000000000
      0.1027410000D+00  0.1000000000D+01
 P   1 1.00       0.000000000000
      0.7500000000D+00  0.1000000000D+01
 ****
     21 0
 S   3 1.00       0.000000000000
      0.3386500000D+02  0.2549381454D-01
      0.5094790000D+01  0.1903731086D+00
      0.1158790000D+01  0.8521614860D+00
 S   1 1.00       0.000000000000
      0.3258400000D+00  0.1000000000D+01
 S   1 1.00       0.000000000000
      0.1027410000D+00  0.1000000000D+01
 P   1 1.00       0.000000000000
      0.7500000000D+00  0.1000000000D+01
 ****
     22 0
 S   3 1.00       0.000000000000
      0.3386500000D+02  0.2549381454D-01
      0.5094790000D+01  0.1903731086D+00
      0.1158790000D+01  0.8521614860D+00
 S   1 1.00       0.000000000000
      0.3258400000D+00  0.1000000000D+01
 S   1 1.00       0.000000000000
      0.1027410000D+00  0.1000000000D+01
 P   1 1.00       0.000000000000
      0.7500000000D+00  0.1000000000D+01
 ****
     23 0
 S   3 1.00       0.000000000000
      0.3386500000D+02  0.2549381454D-01
      0.5094790000D+01  0.1903731086D+00
      0.1158790000D+01  0.8521614860D+00
 S   1 1.00       0.000000000000
      0.3258400000D+00  0.1000000000D+01
 S   1 1.00       0.000000000000
      0.1027410000D+00  0.1000000000D+01
 P   1 1.00       0.000000000000
      0.7500000000D+00  0.1000000000D+01
 ****
     24 0
 S   3 1.00       0.000000000000
      0.3386500000D+02  0.2549381454D-01
      0.5094790000D+01  0.1903731086D+00
      0.1158790000D+01  0.8521614860D+00
 S   1 1.00       0.000000000000
      0.3258400000D+00  0.1000000000D+01
 S   1 1.00       0.000000000000
      0.1027410000D+00  0.1000000000D+01
 P   1 1.00       0.000000000000
      0.7500000000D+00  0.1000000000D+01
 ****
     25 0
 S   3 1.00       0.000000000000
      0.3386500000D+02  0.2549381454D-01
      0.5094790000D+01  0.1903731086D+00
      0.1158790000D+01  0.8521614860D+00
 S   1 1.00       0.000000000000
      0.3258400000D+00  0.1000000000D+01
 S   1 1.00       0.000000000000
      0.1027410000D+00  0.1000000000D+01
 P   1 1.00       0.000000000000
      0.7500000000D+00  0.1000000000D+01
 ****
     26 0
 S   3 1.00       0.000000000000
      0.3386500000D+02  0.2549381454D-01
      0.5094790000D+01  0.1903731086D+00
      0.1158790000D+01  0.8521614860D+00
 S   1 1.00       0.000000000000
      0.3258400000D+00  0.1000000000D+01
 S   1 1.00       0.000000000000
      0.1027410000D+00  0.1000000000D+01
 P   1 1.00       0.000000000000
      0.7500000000D+00  0.1000000000D+01
 ****
     27 0
 S   3 1.00       0.000000000000
      0.3386500000D+02  0.2549381454D-01
      0.5094790000D+01  0.1903731086D+00
      0.1158790000D+01  0.8521614860D+00
 S   1 1.00       0.000000000000
      0.3258400000D+00  0.1000000000D+01
 S   1 1.00       0.000000000000
      0.1027410000D+00  0.1000000000D+01
 P   1 1.00       0.000000000000
      0.7500000000D+00  0.1000000000D+01
 ****
     28 0
 S   3 1.00       0.000000000000
      0.3386500000D+02  0.2549381454D-01
      0.5094790000D+01  0.1903731086D+00
      0.1158790000D+01  0.8521614860D+00
 S   1 1.00       0.000000000000
      0.3258400000D+00  0.1000000000D+01
 S   1 1.00       0.000000000000
      0.1027410000D+00  0.1000000000D+01
 P   1 1.00       0.000000000000
      0.7500000000D+00  0.1000000000D+01
 ****
     29 0
 S   3 1.00       0.000000000000
      0.3386500000D+02  0.2549381454D-01
      0.5094790000D+01  0.1903731086D+00
      0.1158790000D+01  0.8521614860D+00
 S   1 1.00       0.000000000000
      0.3258400000D+00  0.1000000000D+01
 S   1 1.00       0.000000000000
      0.1027410000D+00  0.1000000000D+01
 P   1 1.00       0.000000000000
      0.7500000000D+00  0.1000000000D+01
 ****
     30 0
 S   3 1.00       0.000000000000
      0.3386500000D+02  0.2549381454D-01
      0.5094790000D+01  0.1903731086D+00
      0.1158790000D+01  0.8521614860D+00
 S   1 1.00       0.000000000000
      0.3258400000D+00  0.1000000000D+01
 S   1 1.00       0.000000000000
      0.1027410000D+00  0.1000000000D+01
 P   1 1.00       0.000000000000
      0.7500000000D+00  0.1000000000D+01
 ****
     31 0
 S   3 1.00       0.000000000000
      0.3386500000D+02  0.2549381454D-01
      0.5094790000D+01  0.1903731086D+00
      0.1158790000D+01  0.8521614860D+00
 S   1 1.00       0.000000000000
      0.3258400000D+00  0.1000000000D+01
 S   1 1.00       0.000000000000
      0.1027410000D+00  0.1000000000D+01
 P   1 1.00       0.000000000000
      0.7500000000D+00  0.1000000000D+01
 ****

   394 basis functions,   612 primitive gaussians,   407 cartesian basis functions
    49 alpha electrons       49 beta electrons
       nuclear repulsion energy       882.8202009787 Hartrees.
 IExCor= 1614 DFT=T Ex+Corr=B971 ExCW=0 ScaHFX=  0.210000
 ScaDFX=  1.000000  1.000000  1.000000  1.000000 ScalE2=  1.000000  1.000000
 IRadAn=      5 IRanWt=     -1 IRanGd=            0 ICorTp=0 IEmpDi=  4
 NAtoms=   31 NActive=   31 NUniq=   31 SFac= 1.00D+00 NAtFMM=   60 NAOKFM=F Big=F
 Integral buffers will be    131072 words long.
 Raffenetti 2 integral format.
 Two-electron integral symmetry is turned off.
 Leave Link  301 at Sat Apr 25 13:49:10 2015, MaxMem=   524288000 cpu:         0.4
 (Enter /opt/g09/l302.exe)
 NPDir=0 NMtPBC=     1 NCelOv=     1 NCel=       1 NClECP=     1 NCelD=      1
         NCelK=      1 NCelE2=     1 NClLst=     1 CellRange=     0.0.
 One-electron integrals computed using PRISM.
 NBasis=   394 RedAO= T EigKep=  4.84D-06  NBF=   394
 NBsUse=   394 1.00D-06 EigRej= -1.00D+00 NBFU=   394
 Precomputing XC quadrature grid using
 IXCGrd= 4 IRadAn=           5 IRanWt=          -1 IRanGd=           0 AccXCQ= 0.00D+00.
 Generated NRdTot=       0 NPtTot=           0 NUsed=           0 NTot=          32
 NSgBfM=   407   407   407   407   407 MxSgAt=    31 MxSgA2=    31.
 Leave Link  302 at Sat Apr 25 13:49:11 2015, MaxMem=   524288000 cpu:         5.7
 (Enter /opt/g09/l303.exe)
 DipDrv:  MaxL=1.
 Leave Link  303 at Sat Apr 25 13:49:11 2015, MaxMem=   524288000 cpu:         0.6
 (Enter /opt/g09/l401.exe)
 ExpMin= 4.38D-02 ExpMax= 8.59D+03 ExpMxC= 1.30D+03 IAcc=3 IRadAn=         5 AccDes= 0.00D+00
 Harris functional with IExCor= 1614 and IRadAn=       5 diagonalized for initial guess.
 HarFok:  IExCor= 1614 AccDes= 0.00D+00 IRadAn=         5 IDoV= 1 UseB2=F ITyADJ=14
 ICtDFT=  3500011 ScaDFX=  1.000000  1.000000  1.000000  1.000000
 FoFCou: FMM=F IPFlag=           0 FMFlag=      100000 FMFlg1=           0
         NFxFlg=           0 DoJE=T BraDBF=F KetDBF=T FulRan=T
         wScrn=  0.000000 ICntrl=     500 IOpCl=  0 I1Cent=   200000004 NGrid=           0
         NMat0=    1 NMatS0=      1 NMatT0=    0 NMatD0=    1 NMtDS0=    0 NMtDT0=    0
 Symmetry not used in FoFCou.
 Harris En= -527.494259908072    
 JPrj=0 DoOrth=F DoCkMO=T.
 Mixing orbitals, IMix= 1 IMixAn=  0 NRI=1 NE=   49 Coef=  7.07106781D-01  7.07106781D-01
 Leave Link  401 at Sat Apr 25 13:49:17 2015, MaxMem=   524288000 cpu:        52.8
 (Enter /opt/g09/l502.exe)
 Closed shell SCF:
 Using DIIS extrapolation, IDIIS=  1040.
 Two-electron integral symmetry not used.
 IVT=      521257 IEndB=      521257 NGot=   524288000 MDV=   523949440
 LenX=   523949440 LenY=   523783350
 Requested convergence on RMS density matrix=1.00D-08 within 128 cycles.
 Requested convergence on MAX density matrix=1.00D-06.
 Requested convergence on             energy=1.00D-06.
 No special actions if energy rises.
 Fock matrices will be formed incrementally for  20 cycles.

 Cycle   1  Pass 1  IDiag  1:
 FoFJK:  IHMeth= 1 ICntrl=       0 DoSepK=F KAlg= 0 I1Cent=   0 FoldK=F
 IRaf= 930000000 NMat=   1 IRICut=       1 DoRegI=T DoRafI=F ISym2E= 0.
 FoFCou: FMM=F IPFlag=           0 FMFlag=      100000 FMFlg1=           0
         NFxFlg=           0 DoJE=F BraDBF=F KetDBF=F FulRan=T
         wScrn=  0.000000 ICntrl=       0 IOpCl=  0 I1Cent=           0 NGrid=           0
         NMat0=    1 NMatS0=      1 NMatT0=    0 NMatD0=    1 NMtDS0=    0 NMtDT0=    0
 Symmetry not used in FoFCou.
 E= -542.989437236171    
 DIIS: error= 5.68D-02 at cycle   1 NSaved=   1.
 NSaved= 1 IEnMin= 1 EnMin= -542.989437236171     IErMin= 1 ErrMin= 5.68D-02
 ErrMax= 5.68D-02  0.00D+00 EMaxC= 1.00D-01 BMatC= 1.06D+00 BMatP= 1.06D+00
 IDIUse=3 WtCom= 4.32D-01 WtEn= 5.68D-01
 Coeff-Com:  0.100D+01
 Coeff-En:   0.100D+01
 Coeff:      0.100D+01
 Gap=     0.058 Goal=   None    Shift=    0.000
 GapD=    0.058 DampG=0.500 DampE=0.500 DampFc=0.2500 IDamp=-1.
 Damping current iteration by 2.50D-01
 RMSDP=2.11D-02 MaxDP=2.30D+00              OVMax= 3.88D-01

 Cycle   2  Pass 1  IDiag  1:
 RMSU=  2.54D-03    CP:  8.29D-01
 E= -543.085436234349     Delta-E=       -0.095998998178 Rises=F Damp=T
 DIIS: error= 4.27D-02 at cycle   2 NSaved=   2.
 NSaved= 2 IEnMin= 2 EnMin= -543.085436234349     IErMin= 2 ErrMin= 4.27D-02
 ErrMax= 4.27D-02  0.00D+00 EMaxC= 1.00D-01 BMatC= 5.31D-01 BMatP= 1.06D+00
 IDIUse=3 WtCom= 5.73D-01 WtEn= 4.27D-01
 Coeff-Com: -0.163D+01 0.263D+01
 Coeff-En:   0.000D+00 0.100D+01
 Coeff:     -0.932D+00 0.193D+01
 Gap=     0.253 Goal=   None    Shift=    0.000
 RMSDP=1.59D-02 MaxDP=1.66D+00 DE=-9.60D-02 OVMax= 2.83D-01

 Cycle   3  Pass 1  IDiag  1:
 RMSU=  6.92D-03    CP:  3.68D-01  3.00D+00
 E= -543.259933308020     Delta-E=       -0.174497073671 Rises=F Damp=F
 DIIS: error= 2.24D-02 at cycle   3 NSaved=   3.
 NSaved= 3 IEnMin= 3 EnMin= -543.259933308020     IErMin= 3 ErrMin= 2.24D-02
 ErrMax= 2.24D-02  0.00D+00 EMaxC= 1.00D-01 BMatC= 1.08D-01 BMatP= 5.31D-01
 IDIUse=3 WtCom= 7.76D-01 WtEn= 2.24D-01
 Coeff-Com: -0.898D+00 0.127D+01 0.623D+00
 Coeff-En:   0.000D+00 0.000D+00 0.100D+01
 Coeff:     -0.696D+00 0.989D+00 0.707D+00
 Gap=     0.245 Goal=   None    Shift=    0.000
 RMSDP=4.75D-03 MaxDP=3.70D-01 DE=-1.74D-01 OVMax= 1.44D-01

 Cycle   4  Pass 1  IDiag  1:
 RMSU=  2.77D-03    CP:  3.35D-01  3.00D+00  4.58D-01
 E= -543.309113588315     Delta-E=       -0.049180280295 Rises=F Damp=F
 DIIS: error= 1.43D-02 at cycle   4 NSaved=   4.
 NSaved= 4 IEnMin= 4 EnMin= -543.309113588315     IErMin= 4 ErrMin= 1.43D-02
 ErrMax= 1.43D-02  0.00D+00 EMaxC= 1.00D-01 BMatC= 4.45D-02 BMatP= 1.08D-01
 IDIUse=3 WtCom= 8.57D-01 WtEn= 1.43D-01
 Coeff-Com: -0.229D+00 0.328D+00 0.426D+00 0.474D+00
 Coeff-En:   0.000D+00 0.000D+00 0.329D+00 0.671D+00
 Coeff:     -0.196D+00 0.281D+00 0.412D+00 0.502D+00
 Gap=     0.226 Goal=   None    Shift=    0.000
 RMSDP=1.41D-03 MaxDP=1.09D-01 DE=-4.92D-02 OVMax= 6.50D-02

 Cycle   5  Pass 1  IDiag  1:
 RMSU=  9.50D-04    CP:  3.46D-01  3.00D+00  5.95D-01  8.88D-01
 E= -543.341776690532     Delta-E=       -0.032663102217 Rises=F Damp=F
 DIIS: error= 1.84D-03 at cycle   5 NSaved=   5.
 NSaved= 5 IEnMin= 5 EnMin= -543.341776690532     IErMin= 5 ErrMin= 1.84D-03
 ErrMax= 1.84D-03  0.00D+00 EMaxC= 1.00D-01 BMatC= 1.30D-03 BMatP= 4.45D-02
 IDIUse=3 WtCom= 9.82D-01 WtEn= 1.84D-02
 Coeff-Com:  0.133D-01-0.149D-01 0.115D+00 0.250D+00 0.636D+00
 Coeff-En:   0.000D+00 0.000D+00 0.000D+00 0.000D+00 0.100D+01
 Coeff:      0.131D-01-0.146D-01 0.113D+00 0.246D+00 0.643D+00
 Gap=     0.226 Goal=   None    Shift=    0.000
 RMSDP=3.58D-04 MaxDP=2.51D-02 DE=-3.27D-02 OVMax= 1.23D-02

 Cycle   6  Pass 1  IDiag  1:
 RMSU=  2.23D-04    CP:  3.47D-01  3.00D+00  5.98D-01  9.50D-01  7.71D-01
 E= -543.342935956230     Delta-E=       -0.001159265699 Rises=F Damp=F
 DIIS: error= 6.61D-04 at cycle   6 NSaved=   6.
 NSaved= 6 IEnMin= 6 EnMin= -543.342935956230     IErMin= 6 ErrMin= 6.61D-04
 ErrMax= 6.61D-04  0.00D+00 EMaxC= 1.00D-01 BMatC= 1.10D-04 BMatP= 1.30D-03
 IDIUse=3 WtCom= 9.93D-01 WtEn= 6.61D-03
 Coeff-Com:  0.212D-01-0.289D-01 0.768D-02 0.553D-01 0.299D+00 0.645D+00
 Coeff-En:   0.000D+00 0.000D+00 0.000D+00 0.000D+00 0.000D+00 0.100D+01
 Coeff:      0.211D-01-0.287D-01 0.763D-02 0.549D-01 0.297D+00 0.648D+00
 Gap=     0.226 Goal=   None    Shift=    0.000
 RMSDP=1.18D-04 MaxDP=1.01D-02 DE=-1.16D-03 OVMax= 5.82D-03

 Cycle   7  Pass 1  IDiag  1:
 RMSU=  8.62D-05    CP:  3.46D-01  3.00D+00  5.91D-01  9.46D-01  8.07D-01
                    CP:  8.22D-01
 E= -543.343046379352     Delta-E=       -0.000110423122 Rises=F Damp=F
 DIIS: error= 1.86D-04 at cycle   7 NSaved=   7.
 NSaved= 7 IEnMin= 7 EnMin= -543.343046379352     IErMin= 7 ErrMin= 1.86D-04
 ErrMax= 1.86D-04  0.00D+00 EMaxC= 1.00D-01 BMatC= 1.93D-05 BMatP= 1.10D-04
 IDIUse=3 WtCom= 9.98D-01 WtEn= 1.86D-03
 Coeff-Com:  0.116D-02-0.226D-02-0.151D-01-0.200D-01 0.294D-01 0.327D+00
 Coeff-Com:  0.680D+00
 Coeff-En:   0.000D+00 0.000D+00 0.000D+00 0.000D+00 0.000D+00 0.000D+00
 Coeff-En:   0.100D+01
 Coeff:      0.116D-02-0.226D-02-0.150D-01-0.200D-01 0.294D-01 0.326D+00
 Coeff:      0.680D+00
 Gap=     0.226 Goal=   None    Shift=    0.000
 RMSDP=7.12D-05 MaxDP=9.34D-03 DE=-1.10D-04 OVMax= 3.17D-03

 Cycle   8  Pass 1  IDiag  1:
 RMSU=  4.13D-05    CP:  3.47D-01  3.00D+00  5.92D-01  9.56D-01  8.33D-01
                    CP:  9.01D-01  6.85D-01
 E= -543.343068541476     Delta-E=       -0.000022162124 Rises=F Damp=F
 DIIS: error= 4.87D-05 at cycle   8 NSaved=   8.
 NSaved= 8 IEnMin= 8 EnMin= -543.343068541476     IErMin= 8 ErrMin= 4.87D-05
 ErrMax= 4.87D-05  0.00D+00 EMaxC= 1.00D-01 BMatC= 1.10D-06 BMatP= 1.93D-05
 IDIUse=1 WtCom= 1.00D+00 WtEn= 0.00D+00
 Coeff-Com: -0.103D-02 0.117D-02-0.658D-02-0.110D-01-0.106D-01 0.725D-01
 Coeff-Com:  0.251D+00 0.705D+00
 Coeff:     -0.103D-02 0.117D-02-0.658D-02-0.110D-01-0.106D-01 0.725D-01
 Coeff:      0.251D+00 0.705D+00
 Gap=     0.226 Goal=   None    Shift=    0.000
 RMSDP=2.24D-05 MaxDP=2.68D-03 DE=-2.22D-05 OVMax= 8.89D-04

 Cycle   9  Pass 1  IDiag  1:
 RMSU=  8.59D-06    CP:  3.47D-01  3.00D+00  5.91D-01  9.54D-01  8.25D-01
                    CP:  9.10D-01  8.43D-01  8.25D-01
 E= -543.343069918130     Delta-E=       -0.000001376653 Rises=F Damp=F
 DIIS: error= 2.74D-05 at cycle   9 NSaved=   9.
 NSaved= 9 IEnMin= 9 EnMin= -543.343069918130     IErMin= 9 ErrMin= 2.74D-05
 ErrMax= 2.74D-05  0.00D+00 EMaxC= 1.00D-01 BMatC= 2.39D-07 BMatP= 1.10D-06
 IDIUse=1 WtCom= 1.00D+00 WtEn= 0.00D+00
 Coeff-Com: -0.499D-03 0.678D-03-0.402D-03-0.130D-02-0.102D-01-0.224D-01
 Coeff-Com: -0.409D-04 0.346D+00 0.688D+00
 Coeff:     -0.499D-03 0.678D-03-0.402D-03-0.130D-02-0.102D-01-0.224D-01
 Coeff:     -0.409D-04 0.346D+00 0.688D+00
 Gap=     0.226 Goal=   None    Shift=    0.000
 RMSDP=6.18D-06 MaxDP=7.85D-04 DE=-1.38D-06 OVMax= 3.72D-04

 Cycle  10  Pass 1  IDiag  1:
 RMSU=  2.58D-06    CP:  3.47D-01  3.00D+00  5.91D-01  9.54D-01  8.27D-01
                    CP:  9.13D-01  8.31D-01  9.28D-01  1.01D+00
 E= -543.343070196964     Delta-E=       -0.000000278834 Rises=F Damp=F
 DIIS: error= 4.95D-06 at cycle  10 NSaved=  10.
 NSaved=10 IEnMin=10 EnMin= -543.343070196964     IErMin=10 ErrMin= 4.95D-06
 ErrMax= 4.95D-06  0.00D+00 EMaxC= 1.00D-01 BMatC= 1.17D-08 BMatP= 2.39D-07
 IDIUse=1 WtCom= 1.00D+00 WtEn= 0.00D+00
 Coeff-Com: -0.243D-04 0.476D-04 0.352D-03 0.280D-03-0.343D-02-0.141D-01
 Coeff-Com: -0.192D-01 0.742D-01 0.257D+00 0.704D+00
 Coeff:     -0.243D-04 0.476D-04 0.352D-03 0.280D-03-0.343D-02-0.141D-01
 Coeff:     -0.192D-01 0.742D-01 0.257D+00 0.704D+00
 Gap=     0.226 Goal=   None    Shift=    0.000
 RMSDP=1.26D-06 MaxDP=6.26D-05 DE=-2.79D-07 OVMax= 6.92D-05

 Cycle  11  Pass 1  IDiag  1:
 RMSU=  7.57D-07    CP:  3.47D-01  3.00D+00  5.91D-01  9.54D-01  8.26D-01
                    CP:  9.14D-01  8.37D-01  9.33D-01  1.03D+00  8.01D-01
 E= -543.343070209638     Delta-E=       -0.000000012674 Rises=F Damp=F
 DIIS: error= 9.79D-07 at cycle  11 NSaved=  11.
 NSaved=11 IEnMin=11 EnMin= -543.343070209638     IErMin=11 ErrMin= 9.79D-07
 ErrMax= 9.79D-07  0.00D+00 EMaxC= 1.00D-01 BMatC= 4.06D-10 BMatP= 1.17D-08
 IDIUse=1 WtCom= 1.00D+00 WtEn= 0.00D+00
 Coeff-Com: -0.926D-05 0.175D-04 0.134D-03 0.851D-04-0.100D-02-0.437D-02
 Coeff-Com: -0.613D-02 0.174D-01 0.742D-01 0.241D+00 0.679D+00
 Coeff:     -0.926D-05 0.175D-04 0.134D-03 0.851D-04-0.100D-02-0.437D-02
 Coeff:     -0.613D-02 0.174D-01 0.742D-01 0.241D+00 0.679D+00
 Gap=     0.226 Goal=   None    Shift=    0.000
 RMSDP=2.60D-07 MaxDP=1.89D-05 DE=-1.27D-08 OVMax= 5.08D-06

 Cycle  12  Pass 1  IDiag  1:
 RMSU=  1.38D-07    CP:  3.47D-01  3.00D+00  5.91D-01  9.54D-01  8.26D-01
                    CP:  9.14D-01  8.38D-01  9.33D-01  1.03D+00  8.29D-01
                    CP:  1.05D+00
 E= -543.343070209979     Delta-E=       -0.000000000341 Rises=F Damp=F
 DIIS: error= 4.60D-07 at cycle  12 NSaved=  12.
 NSaved=12 IEnMin=12 EnMin= -543.343070209979     IErMin=12 ErrMin= 4.60D-07
 ErrMax= 4.60D-07  0.00D+00 EMaxC= 1.00D-01 BMatC= 8.25D-11 BMatP= 4.06D-10
 IDIUse=1 WtCom= 1.00D+00 WtEn= 0.00D+00
 Coeff-Com: -0.542D-05 0.757D-05 0.153D-04-0.690D-05 0.298D-05-0.106D-03
 Coeff-Com: -0.868D-04-0.230D-02-0.821D-03 0.144D-01 0.346D+00 0.643D+00
 Coeff:     -0.542D-05 0.757D-05 0.153D-04-0.690D-05 0.298D-05-0.106D-03
 Coeff:     -0.868D-04-0.230D-02-0.821D-03 0.144D-01 0.346D+00 0.643D+00
 Gap=     0.226 Goal=   None    Shift=    0.000
 RMSDP=1.27D-07 MaxDP=1.13D-05 DE=-3.41D-10 OVMax= 1.47D-06

 Cycle  13  Pass 1  IDiag  1:
 RMSU=  4.07D-08    CP:  3.47D-01  3.00D+00  5.91D-01  9.54D-01  8.26D-01
                    CP:  9.14D-01  8.39D-01  9.32D-01  1.04D+00  8.29D-01
                    CP:  1.10D+00  8.30D-01
 E= -543.343070209990     Delta-E=       -0.000000000010 Rises=F Damp=F
 DIIS: error= 7.57D-08 at cycle  13 NSaved=  13.
 NSaved=13 IEnMin=13 EnMin= -543.343070209990     IErMin=13 ErrMin= 7.57D-08
 ErrMax= 7.57D-08  0.00D+00 EMaxC= 1.00D-01 BMatC= 1.27D-12 BMatP= 8.25D-11
 IDIUse=1 WtCom= 1.00D+00 WtEn= 0.00D+00
 Coeff-Com: -0.667D-06 0.868D-06 0.424D-06 0.898D-06 0.265D-04 0.694D-04
 Coeff-Com:  0.675D-04-0.828D-03-0.186D-02-0.207D-02 0.520D-01 0.132D+00
 Coeff-Com:  0.821D+00
 Coeff:     -0.667D-06 0.868D-06 0.424D-06 0.898D-06 0.265D-04 0.694D-04
 Coeff:      0.675D-04-0.828D-03-0.186D-02-0.207D-02 0.520D-01 0.132D+00
 Coeff:      0.821D+00
 Gap=     0.226 Goal=   None    Shift=    0.000
 RMSDP=1.94D-08 MaxDP=1.62D-06 DE=-1.02D-11 OVMax= 3.97D-07

 Cycle  14  Pass 1  IDiag  1:
 RMSU=  1.47D-08    CP:  3.47D-01  3.00D+00  5.91D-01  9.54D-01  8.26D-01
                    CP:  9.14D-01  8.39D-01  9.32D-01  1.04D+00  8.31D-01
                    CP:  1.11D+00  8.79D-01  1.05D+00
 E= -543.343070210010     Delta-E=       -0.000000000021 Rises=F Damp=F
 DIIS: error= 1.90D-08 at cycle  14 NSaved=  14.
 NSaved=14 IEnMin=14 EnMin= -543.343070210010     IErMin=14 ErrMin= 1.90D-08
 ErrMax= 1.90D-08  0.00D+00 EMaxC= 1.00D-01 BMatC= 1.35D-13 BMatP= 1.27D-12
 IDIUse=1 WtCom= 1.00D+00 WtEn= 0.00D+00
 Coeff-Com:  0.189D-07-0.248D-07-0.183D-06 0.138D-05 0.924D-05 0.250D-04
 Coeff-Com:  0.158D-04-0.184D-03-0.624D-03-0.129D-02 0.318D-02 0.186D-01
 Coeff-Com:  0.340D+00 0.640D+00
 Coeff:      0.189D-07-0.248D-07-0.183D-06 0.138D-05 0.924D-05 0.250D-04
 Coeff:      0.158D-04-0.184D-03-0.624D-03-0.129D-02 0.318D-02 0.186D-01
 Coeff:      0.340D+00 0.640D+00
 Gap=     0.226 Goal=   None    Shift=    0.000
 RMSDP=6.50D-09 MaxDP=8.60D-07 DE=-2.09D-11 OVMax= 6.90D-08

 SCF Done:  E(RB971) =  -543.343070210     A.U. after   14 cycles
            NFock= 14  Conv=0.65D-08     -V/T= 2.0043
 KE= 5.410334549086D+02 PE=-3.028248017637D+03 EE= 1.061051291540D+03
 Leave Link  502 at Sat Apr 25 13:53:56 2015, MaxMem=   524288000 cpu:      2222.9
 (Enter /opt/g09/l801.exe)
 DoSCS=F DFT=T ScalE2(SS,OS)=  1.000000  1.000000
 Range of M.O.s used for correlation:     1   394
 NBasis=   394 NAE=    49 NBE=    49 NFC=     0 NFV=     0
 NROrb=    394 NOA=    49 NOB=    49 NVA=   345 NVB=   345

 **** Warning!!: The largest alpha MO coefficient is  0.90980072D+02

 Leave Link  801 at Sat Apr 25 13:53:56 2015, MaxMem=   524288000 cpu:         0.3
 (Enter /opt/g09/l1101.exe)
 Using compressed storage, NAtomX=    31.
 Will process     32 centers per pass.
 Leave Link 1101 at Sat Apr 25 13:53:57 2015, MaxMem=   524288000 cpu:         8.9
 (Enter /opt/g09/l1102.exe)
 Symmetrizing basis deriv contribution to polar:
 IMax=3 JMax=2 DiffMx= 0.00D+00
 Leave Link 1102 at Sat Apr 25 13:53:57 2015, MaxMem=   524288000 cpu:         0.5
 (Enter /opt/g09/l1110.exe)
 Forming Gx(P) for the SCF density, NAtomX=    31.
 Integral derivatives from FoFJK, PRISM(SPDF).
 Do as many integral derivatives as possible in FoFJK.
 G2DrvN: MDV=     524287648.
 G2DrvN: will do    32 centers at a time, making    1 passes.
 Calling FoFCou, ICntrl=  3107 FMM=F I1Cent=   0 AccDes= 0.00D+00.
 FoFJK:  IHMeth= 1 ICntrl=    3107 DoSepK=F KAlg= 0 I1Cent=   0 FoldK=F
 IRaf=         0 NMat=   1 IRICut=       1 DoRegI=T DoRafI=F ISym2E= 0.
 FoFCou: FMM=F IPFlag=           0 FMFlag=      100000 FMFlg1=           0
         NFxFlg=           0 DoJE=F BraDBF=F KetDBF=F FulRan=T
         wScrn=  0.000000 ICntrl=    3107 IOpCl=  0 I1Cent=           0 NGrid=           0
         NMat0=    1 NMatS0=      1 NMatT0=    0 NMatD0=    1 NMtDS0=    0 NMtDT0=    0
 Symmetry not used in FoFCou.
 End of G2Drv F.D. properties file   721 does not exist.
 End of G2Drv F.D. properties file   722 does not exist.
 End of G2Drv F.D. properties file   788 does not exist.
 Leave Link 1110 at Sat Apr 25 14:06:06 2015, MaxMem=   524288000 cpu:      5819.4
 (Enter /opt/g09/l1002.exe)
 Minotr:  Closed shell wavefunction.
          IDoAtm=1111111111111111111111111111111
          Direct CPHF calculation.
          Differentiating once with respect to electric field.
                with respect to dipole field.
          Differentiating once with respect to nuclear coordinates.
          Requested convergence is 1.0D-08 RMS, and 1.0D-07 maximum.
          Secondary convergence is 1.0D-12 RMS, and 1.0D-12 maximum.
          NewPWx=T KeepS1=F KeepF1=F KeepIn=T MapXYZ=F SortEE=F KeepMc=T.
          MDV=     524287292 using IRadAn=       1.
 Generate precomputed XC quadrature information.
          Solving linear equations simultaneously, MaxMat=       0.
 FoFJK:  IHMeth= 1 ICntrl=       0 DoSepK=F KAlg= 0 I1Cent=   0 FoldK=F
 IRaf= 930000000 NMat=  96 IRICut=     240 DoRegI=T DoRafI=T ISym2E= 0.
 FoFCou: FMM=F IPFlag=           0 FMFlag=      100000 FMFlg1=           0
         NFxFlg=           0 DoJE=F BraDBF=F KetDBF=F FulRan=T
         wScrn=  0.000000 ICntrl=       0 IOpCl=  0 I1Cent=           0 NGrid=           0
         NMat0=   96 NMatS0=     96 NMatT0=    0 NMatD0=   96 NMtDS0=    0 NMtDT0=    0
 Symmetry not used in FoFCou.
          There are    96 degrees of freedom in the 1st order CPHF.  IDoFFX=6 NUNeed=     3.
     93 vectors produced by pass  0 Test12= 1.76D-14 1.04D-09 XBig12= 9.33D+01 2.31D+00.
 AX will form    93 AO Fock derivatives at one time.
     93 vectors produced by pass  1 Test12= 1.76D-14 1.04D-09 XBig12= 1.09D+01 6.26D-01.
     93 vectors produced by pass  2 Test12= 1.76D-14 1.04D-09 XBig12= 9.41D-02 2.56D-02.
     93 vectors produced by pass  3 Test12= 1.76D-14 1.04D-09 XBig12= 2.13D-04 1.23D-03.
     93 vectors produced by pass  4 Test12= 1.76D-14 1.04D-09 XBig12= 3.66D-07 6.44D-05.
     78 vectors produced by pass  5 Test12= 1.76D-14 1.04D-09 XBig12= 5.25D-10 1.89D-06.
     13 vectors produced by pass  6 Test12= 1.76D-14 1.04D-09 XBig12= 5.80D-13 6.01D-08.
      3 vectors produced by pass  7 Test12= 1.76D-14 1.04D-09 XBig12= 1.32D-15 5.29D-09.
      2 vectors produced by pass  8 Test12= 1.76D-14 1.04D-09 XBig12= 3.27D-16 1.75D-09.
 InvSVY:  IOpt=1 It=  1 EMax= 1.24D-14
 Solved reduced A of dimension   561 with    96 vectors.
 FullF1:  Do perturbations    1 to     3.
 Isotropic polarizability for W=    0.000000      131.35 Bohr**3.
 End of Minotr F.D. properties file   721 does not exist.
 End of Minotr F.D. properties file   722 does not exist.
 End of Minotr F.D. properties file   788 does not exist.
 Leave Link 1002 at Sat Apr 25 14:30:08 2015, MaxMem=   524288000 cpu:     11514.6
 (Enter /opt/g09/l701.exe)
 Compute integral second derivatives.
 ... and contract with generalized density number  0.
 Leave Link  701 at Sat Apr 25 14:30:08 2015, MaxMem=   524288000 cpu:         3.7
 (Enter /opt/g09/l702.exe)
 L702 exits ... SP integral derivatives will be done elsewhere.
 Leave Link  702 at Sat Apr 25 14:30:09 2015, MaxMem=   524288000 cpu:         0.3
 (Enter /opt/g09/l703.exe)
 Compute integral second derivatives, UseDBF=F ICtDFT=           0.
 Integral derivatives from FoFJK, PRISM(SPDF).
 Calling FoFJK, ICntrl=    100127 FMM=F ISym2X=0 I1Cent= 0 IOpClX= 0 NMat=1 NMatS=1 NMatT=0.
 FoFJK:  IHMeth= 1 ICntrl=  100127 DoSepK=F KAlg= 0 I1Cent=   0 FoldK=F
 IRaf=         0 NMat=   1 IRICut=       1 DoRegI=T DoRafI=F ISym2E= 0.
 FoFCou: FMM=F IPFlag=           0 FMFlag=      100000 FMFlg1=         800
         NFxFlg=           0 DoJE=F BraDBF=F KetDBF=F FulRan=T
         wScrn=  0.000000 ICntrl=  100127 IOpCl=  0 I1Cent=           0 NGrid=           0
         NMat0=    1 NMatS0=      1 NMatT0=    0 NMatD0=    1 NMtDS0=    0 NMtDT0=    0
 Symmetry not used in FoFCou.
 Leave Link  703 at Sat Apr 25 14:48:20 2015, MaxMem=   524288000 cpu:      8715.9
 (Enter /opt/g09/l716.exe)
 Dipole        =-7.65048493D-01-9.03396601D-01-1.92297364D-01
 Polarizability= 1.37244266D+02 5.47324756D+00 1.26433529D+02
                -1.02889114D+01 1.68645263D+00 1.30383833D+02
 -------------------------------------------------------------------
 Center     Atomic                   Forces (Hartrees/Bohr)
 Number     Number              X              Y              Z
 -------------------------------------------------------------------
      1        6           0.000001511    0.000004151    0.000008916
      2        6          -0.000000018   -0.000005107   -0.000001650
      3        6           0.000001097   -0.000005347   -0.000003043
      4        6           0.000000317    0.000002951   -0.000001362
      5        6           0.000002124    0.000006343    0.000006363
      6        6          -0.000001403   -0.000008885   -0.000004173
      7        6          -0.000001574   -0.000007726    0.000000047
      8        6           0.000001384   -0.000003999    0.000003158
      9        6          -0.000002633   -0.000000762   -0.000005792
     10        6          -0.000001360    0.000002641   -0.000005360
     11        6           0.000001088    0.000005801    0.000004151
     12        6          -0.000003441    0.000003025    0.000004771
     13        8           0.000005818    0.000003782    0.000006258
     14        1           0.000000311   -0.000004397    0.000001226
     15        1           0.000004179   -0.000001174    0.000004777
     16        1           0.000002049   -0.000000884    0.000004517
[...]
 0.00003021,-0.00004328,0.00010464,0.00014551,0.00001498,-0.00002698,0.
 00006324,0.00008965,0.00002744,-0.00006874,-0.00004592,0.00003489,-0.0
 0001428,0.00004832,-0.00123468,-0.00033514,0.00069743,-0.00005121,0.00
 014607,0.00000079,-0.00047243,-0.00007614,0.00038768,0.00125098,0.0008
 3282,-0.00044317,0.00072823,0.00034150,0.00092043,0.00008196,0.0003052
 7,0.00011462,0.00024714,0.00006240,-0.00017942,0.01532151,0.00523277,-
 0.00939291,-0.10915893,-0.03730350,0.11553828,0.00007566,0.00038458,0.
 00050604,-0.00019137,0.00164393,0.00124953,-0.00401963,-0.00097358,0.0
 0490687,0.00067250,-0.00015267,0.00047962,-0.02112337,-0.00594772,-0.0
 1728481,0.00061323,0.00034672,-0.00239057,0.00099341,0.00152446,-0.000
 17270,-0.00000187,0.00018674,0.00011876,-0.00377121,-0.00079458,-0.003
 36167,-0.17650948,-0.03736033,-0.12013727,0.00817352,0.00248556,0.0078
 3992,0.00002016,-0.00007124,0.00027929,-0.00097828,-0.00099315,0.00049
 739,0.00005351,-0.00002462,-0.00010940,0.00001368,-0.00007385,-0.00004
 730,0.00042934,0.00025473,0.00042037,0.00004084,0.00000139,-0.00006176
 ,-0.00005458,0.00008800,-0.00002808,0.00057051,0.00075322,-0.00012291,
 0.00098344,-0.00033222,0.00005334,-0.00022987,-0.00018716,-0.00027720,
 -0.00001959,-0.00008574,0.00003975,0.00002231,-0.00002176,-0.00003427,
 -0.00015599,0.00026333,0.00009700,0.00061606,0.00030666,-0.00002966,0.
 19292944,0.00057423,0.00028180,0.00011328,0.00313951,-0.00375128,-0.00
 248065,-0.00140012,0.00031368,0.00145072,-0.00024899,-0.00026752,0.000
 22886,-0.00661959,-0.00219813,-0.00550711,0.00000647,0.00013847,-0.000
 70454,-0.00002098,-0.00508428,0.00255165,0.00017450,-0.00054518,0.0000
 0910,0.02072934,0.00517876,0.01928028,-0.03738398,-0.05699621,-0.03447
 212,-0.01844722,-0.00586090,-0.01726308,-0.00001746,-0.00003576,0.0000
 7987,-0.00023728,-0.00023691,0.00019487,-0.00006287,0.00000660,0.00005
 243,-0.00002358,-0.00003411,0.00001641,-0.00116755,-0.00029000,-0.0011
 9348,0.00007499,0.00008054,-0.00012177,0.00001750,0.00003196,-0.000032
 88,0.00036808,0.00038634,0.00029389,0.00009516,-0.00006774,-0.00032555
 ,0.00129497,0.00031506,0.00121321,-0.00008774,0.00023282,0.00001516,-0
 .00001987,0.00007832,-0.00000950,0.00003109,0.00096271,-0.00079344,-0.
 00052504,0.00102392,-0.00054160,0.03993523,0.06489935,0.00045121,0.000
 01372,-0.00018822,0.00296035,-0.00337868,-0.00106837,0.00346605,0.0007
 0305,-0.00149911,0.00017371,0.00023127,-0.00024486,0.01358008,0.003889
 26,0.01107462,0.00011821,-0.00023522,0.00123004,0.00057247,0.00422449,
 -0.00077798,0.00029122,0.00004248,0.00072233,-0.01314492,-0.00345621,-
 0.01248336,-0.12035487,-0.03441143,-0.15715885,-0.01381339,-0.00425794
 ,-0.01324174,-0.00010166,0.00005816,-0.00007921,0.00034149,0.00061165,
 -0.00026451,-0.00007838,0.00009784,0.00006794,-0.00004916,-0.00001914,
 0.00005068,-0.00104163,-0.00028011,-0.00080533,-0.00004355,-0.00012186
 ,0.00006501,-0.00004795,-0.00001505,0.00005120,-0.00073148,-0.00020015
 ,0.00078328,-0.00074627,-0.00024029,0.00073179,-0.00100079,-0.00028720
 ,-0.00074608,-0.00002987,-0.00000082,-0.00000919,0.00002939,0.00001570
 ,-0.00007681,0.00013263,0.00016398,0.00086096,0.00040034,-0.00035181,-
 0.00001956,0.12828041,0.03675417,0.17216116,-0.00201451,-0.00060329,-0
 .00520370,-0.02026218,-0.00604369,0.01183125,0.00066964,-0.00033089,-0
 .00032407,0.00006956,-0.00021636,0.00013218,0.00105853,0.00215205,0.00
 076664,0.00007944,-0.00008101,-0.00013771,-0.00014807,0.00027904,-0.00
 019650,0.00040780,-0.00058791,0.00155925,-0.00002436,-0.00087971,0.000
 12329,-0.00791587,-0.00232053,0.00433758,-0.22125050,-0.05242766,0.100
 66758,-0.00007248,-0.00001351,0.00007103,-0.00016426,0.00007552,0.0002
 2695,-0.00129824,-0.00024025,0.00085392,0.00023839,-0.00003486,0.00002
 571,0.00083561,-0.00029152,-0.00013555,0.00004078,0.00002029,-0.000027
 98,0.00002630,0.00009108,-0.00005330,-0.00048739,-0.00021652,0.0002818
 1,0.00002492,-0.00013719,0.00001652,-0.00004066,0.00007968,-0.00001441
 ,0.00050088,-0.00010194,-0.00018229,0.00029189,0.00079564,-0.00087717,
 0.00033998,0.00006144,-0.00013092,0.00020208,0.00071032,-0.00039152,0.
 00061899,0.00028599,0.00016300,0.24277415,-0.00115474,0.00003291,-0.00
 175215,-0.00590252,-0.00295995,0.00423140,-0.00026888,-0.00032377,-0.0
 0031520,-0.00006406,0.00002310,-0.00003029,0.00106021,-0.00413559,-0.0
 0252536,-0.00002463,-0.00016828,-0.00002851,0.00000320,-0.00011842,-0.
 00000650,0.00083602,0.00023325,0.00011542,0.00076379,0.00152358,-0.000
 52664,0.02184760,0.00554442,-0.01176823,-0.05377670,-0.06408301,0.0328
 2160,0.00001433,0.00002245,0.00002018,0.00001126,0.00020899,0.00011874
 ,-0.00074065,0.00029117,0.00017135,0.00040556,0.00031939,-0.00030106,-
 0.00001295,-0.00014347,0.00016453,0.00000561,-0.00006988,0.00005205,-0
 .00000850,0.00007335,-0.00000346,0.00124794,0.00047593,-0.00084863,-0.
 00003195,0.00014057,-0.00020096,0.00002442,0.00001110,0.00004709,0.000
 04373,-0.00008856,-0.00008671,0.00013118,0.00035058,-0.00004309,-0.000
 34410,0.00023401,-0.00002032,-0.00032595,-0.00034697,0.00022861,-0.000
 54337,0.00094127,0.00055054,0.05871108,0.06862637,-0.00319163,-0.00042
 645,-0.00316254,-0.01924563,-0.00509715,0.01071483,-0.00018808,-0.0003
 4282,-0.00052194,-0.00000592,0.00001660,-0.00006561,0.00027370,-0.0042
 4357,-0.00196238,-0.00024248,-0.00023878,0.00006353,0.00002244,-0.0000
 9793,-0.00004053,-0.00029036,-0.00052906,0.00131275,-0.00037718,0.0011
 7350,0.00039726,0.01689847,0.00588985,-0.01048815,0.10148921,0.0322806
 4,-0.10487542,0.00003927,0.00001196,-0.00000549,0.00012368,0.00031343,
 0.00017210,-0.00112309,-0.00035611,0.00071146,0.00005090,-0.00015363,0
 .00000213,0.00081879,0.00008402,0.00089011,0.00001414,-0.00006696,0.00
 009043,-0.00001615,0.00007216,-0.00003937,0.00151813,0.00003236,-0.000
 47034,-0.00041319,-0.00017234,0.00035332,0.00002154,0.00002914,0.00005
 569,0.00023996,-0.00021890,0.00010050,0.00025254,0.00010295,-0.0002023
 7,-0.00035024,0.00001596,-0.00004561,-0.00021791,-0.00047658,0.0006258
 1,-0.00036382,0.00045033,0.00001827,-0.11032757,-0.03234182,0.11513944
 ,0.00106551,0.00144749,-0.00049594,-0.00575116,0.01956907,-0.01292867,
 -0.00024575,-0.00008990,0.00010945,0.00015430,0.00002819,-0.00008322,0
 .00030672,0.00070277,-0.00089845,-0.00001813,0.00010304,0.00006214,0.0
 0028851,-0.00045590,0.00001107,-0.00338430,-0.00243471,-0.00256579,-0.
 00002864,0.00068839,0.00173691,-0.00299139,0.00747009,-0.00474067,-0.0
 5724222,0.03802106,-0.02492559,-0.00000175,0.00000574,-0.00001757,0.00
 001262,-0.00007790,-0.00002897,0.00033182,-0.00029319,0.00010667,-0.00
 035124,-0.00062857,0.00034149,0.00089233,-0.00028974,0.00050419,0.0000
 1809,-0.00001680,0.00002403,-0.00004068,-0.00004925,0.00005196,0.00015
 118,-0.00020889,0.00004859,-0.00011225,-0.00011234,0.00043141,-0.00000
 634,0.00000241,0.00009122,-0.00011074,0.00123550,-0.00091342,0.0002061
 5,0.00011589,-0.00021040,0.00026556,0.00041105,-0.00037845,0.00016849,
 0.00031530,-0.00027196,0.00031400,-0.00045128,0.00019741,0.00549594,-0
 .02188575,0.01462651,0.06062088,-0.00000855,0.00040368,-0.00019908,-0.
 00186328,0.00598364,-0.00386911,0.00023340,-0.00000168,-0.00018141,-0.
 00008956,-0.00006291,0.00007510,-0.00080898,0.00050945,0.00127881,-0.0
 0011486,-0.00007336,0.00009025,-0.00051908,0.00008662,-0.00040549,-0.0
 0130873,0.00091126,-0.00105119,0.00137934,-0.00259769,-0.00510790,0.00
 450054,-0.02096158,0.01439308,0.03920452,-0.21012794,0.11252907,0.0000
 2398,-0.00002120,-0.00000588,0.00009020,0.00011650,-0.00002893,0.00010
 686,0.00014263,-0.00011694,0.00035273,0.00017918,-0.00013017,0.0004859
 4,0.00066233,0.00042995,0.00009283,0.00008387,-0.00004787,-0.00005286,
 0.00000708,0.00000289,-0.00036113,0.00027895,-0.00023800,0.00061579,0.
 00065991,-0.00072544,0.00005850,0.00007316,0.00011981,-0.00010881,0.00
 033946,-0.00029796,-0.00002221,-0.00005539,-0.00007991,0.00075336,-0.0
 0144564,0.00094334,-0.00009568,0.00040050,-0.00019153,-0.00066879,0.00
 045379,-0.00005983,0.00123367,-0.00664103,0.00423963,-0.04311686,0.230
 68930,0.00127763,0.00047133,0.00049589,-0.00372217,0.01862422,-0.01306
 423,-0.00013454,-0.00008053,-0.00001254,0.00001318,0.00003244,-0.00004
 417,-0.00032231,-0.00039982,0.00113262,0.00012902,0.00012146,0.0000248
 0,0.00006715,-0.00043965,-0.00037673,-0.00386556,-0.00260299,-0.002473
 12,0.00159465,-0.00296885,-0.00228758,0.00469790,-0.01663908,0.0110659
 5,-0.02581730,0.11304594,-0.12300410,-0.00003407,0.00000514,0.00001192
 ,-0.00007257,-0.00008817,0.00000404,0.00023085,-0.00032240,0.00000435,
 -0.00041052,-0.00045726,0.00065492,0.00064736,-0.00011257,0.00012357,0
 .00007830,0.00001786,-0.00003945,-0.00008409,-0.00001873,0.00010391,-0
 .00029355,0.00005145,0.00007955,-0.00011228,0.00022579,-0.00004826,0.0
 0004588,0.00014550,0.00013586,-0.00078375,0.00142315,-0.00071388,0.000
 07069,-0.00042474,0.00037140,0.00026155,-0.00111109,0.00070586,-0.0001
 2600,-0.00004182,-0.00005457,-0.00038463,0.00070501,0.00088973,-0.0030
 5148,0.01220866,-0.00885419,0.03009988,-0.12135567,0.13517457,-0.00030
 227,-0.00041598,0.00014896,0.00004112,0.00020900,0.00006056,0.00075757
 ,0.00114831,0.00086609,-0.00023991,0.00018705,-0.00006116,0.00037917,-
 0.00019134,0.00002271,-0.01162549,-0.00353513,0.00119242,0.00008970,-0
 .00012213,0.00002116,0.00000232,0.00001659,-0.00005041,-0.00001251,0.0
 0004075,0.00000994,0.00016127,0.00012089,0.00003517,-0.00000895,-0.000
 05762,0.00004698,-0.30436605,-0.04446083,0.04176617,0.00298593,-0.0003
 3975,-0.00189829,0.00001046,0.00003960,0.00007894,-0.00002483,0.000032
 34,-0.00002969,-0.00007320,-0.00001299,0.00005437,0.00002691,-0.000009
 44,0.00008267,-0.00001261,-0.00003661,-0.00002508,0.00000107,0.0002518
 4,0.00010033,0.00003488,-0.00000913,-0.00003931,-0.00004805,-0.0000312
 6,0.00004338,0.00001287,0.00000407,0.00001002,-0.00001281,-0.00001029,
 0.00000837,0.00000822,0.00000142,-0.00001037,-0.00001497,-0.00001791,0
 .00002446,-0.00002730,-0.00001425,-0.00000724,-0.00002729,0.00001460,0
 .00002959,0.00000687,0.00000502,-0.00000945,0.32771803,0.00062262,0.00
 044135,-0.00036871,-0.00001121,-0.00026670,-0.00011400,-0.00046555,-0.
 00133414,-0.00238803,0.00041810,-0.00031287,-0.00022126,-0.00045435,-0
 .00052887,-0.00046609,0.01958272,0.00299771,-0.00198713,-0.00010464,0.
 00024120,0.00000133,-0.00003937,-0.00004003,0.00003528,0.00000592,-0.0
 0005137,-0.00004945,-0.00001297,0.00019284,0.00007336,-0.00009433,-0.0
 0005806,-0.00000255,-0.04720002,-0.05647249,0.00786873,-0.00102276,0.0
 0060002,0.00097642,-0.00002505,0.00001980,0.00000476,-0.00000616,0.000
 02115,0.00004108,0.00009457,0.00002427,-0.00005359,-0.00004150,0.00009
 578,0.00009472,-0.00007405,0.00031035,-0.00008785,0.00002727,0.0002508
 9,0.00036160,-0.00014323,0.00014475,0.00008282,0.00005313,0.00001443,-
 0.00003138,0.00000248,0.00000194,0.00000215,-0.00001179,0.00002775,-0.
 00000035,0.00001150,0.00004185,0.00001115,-0.00000875,0.00001249,0.000
 01690,0.00002367,0.00000414,-0.00000481,0.00000213,0.00002579,0.000032
 44,0.00000283,-0.00000132,-0.00000130,0.04946758,0.05562310,0.00114220
 ,0.00083065,-0.00047653,-0.00002215,-0.00048304,-0.00026308,-0.0001287
 3,-0.00381267,-0.00289415,0.00017302,-0.00018041,0.00015907,-0.0010061
 1,-0.00062178,-0.00007598,0.02954174,0.00444868,-0.00772639,-0.0001066
 5,0.00003607,-0.00004803,0.00003719,-0.00003576,0.00005374,-0.00006344
 ,-0.00000866,0.00000084,0.00005195,0.00017994,0.00012968,-0.00013675,-
 0.00006692,-0.00002271,0.03984483,0.00695767,-0.04865185,-0.00254330,0
 .00313268,0.00242904,-0.00002869,0.00001395,-0.00005683,0.00002408,-0.
 00003317,0.00005990,0.00017442,0.00004592,-0.00009790,0.00000695,-0.00
 001953,-0.00012766,-0.00000357,0.00000294,0.00009585,-0.00014246,0.000
 44085,0.00018013,0.00018756,-0.00013536,-0.00001707,0.00004240,0.00003
 562,-0.00001971,-0.00000697,-0.00000175,-0.00000253,0.00000818,0.00001
 601,-0.00001569,-0.00000102,0.00001147,0.00000509,0.00001066,-0.000014
 74,0.00001372,0.00002990,0.00001519,-0.00000365,0.00000728,0.00003778,
 0.00003781,0.00000330,-0.00000771,0.00000288,-0.04563829,-0.00607882,0
 .05440467,-0.00024647,0.00005017,-0.00014985,0.00002600,0.00002989,0.0
 0002676,-0.00081391,0.00067478,-0.00099816,-0.00001018,0.00006862,-0.0
 0012854,-0.00115434,-0.00065717,0.00085908,0.00539327,-0.00635448,0.00
 745153,0.00002728,0.00008799,0.00004399,-0.00004406,0.00000250,0.00002
 285,0.00008200,-0.00000016,-0.00000036,-0.00010974,0.00003822,-0.00022
 283,-0.00000161,0.00003040,0.00000320,-0.10955655,0.03737683,-0.105934
 29,0.00064554,0.00111162,-0.00034729,0.00001715,-0.00003635,-0.0000606
 9,0.00000731,0.00003509,0.00004398,-0.00001402,-0.00000965,-0.00000325
 ,0.00001785,0.00000591,-0.00000166,-0.00001142,0.00011355,0.00002716,-
 0.00056596,-0.00022019,0.00054340,-0.00013300,0.00019653,-0.00000619,-
 0.00000096,0.00000370,-0.00000756,-0.00000471,-0.00000102,-0.00000738,
 0.00000200,0.00000654,0.00000974,-0.00000225,-0.00001950,0.00000445,0.
 00000267,0.00002011,-0.00002161,-0.00005782,-0.00001169,0.00003166,0.0
 0000970,-0.00000373,-0.00002422,-0.00000873,0.00000710,0.00000581,-0.0
 1390602,0.00930779,-0.02589771,0.11854929,0.00003481,0.00003794,0.0000
 0605,0.00001139,-0.00003765,0.00003651,0.00124067,-0.00114711,0.001157
 71,-0.00069926,-0.00063991,0.00040074,0.00064162,0.00109211,-0.0001869
 9,-0.01242842,0.00555990,-0.01539502,0.00019851,0.00013509,0.00012639,
 -0.00009306,-0.00008201,0.00003497,-0.00000007,-0.00000513,0.00006542,
 0.00003875,-0.00033262,0.00002896,0.00009603,0.00011356,-0.00004506,0.
 03516086,-0.05708830,0.05469008,0.00218906,-0.00416544,0.00024582,-0.0
 0002864,-0.00004021,0.00001907,-0.00000657,0.00001512,-0.00004040,-0.0
 0000013,0.00000724,-0.00002002,-0.00000359,0.00001778,0.00001046,-0.00
 001759,0.00041863,0.00010866,-0.00007611,-0.00051870,0.00002343,0.0000
 9899,-0.00007453,0.00004526,-0.00004310,-0.00000950,0.00001422,-0.0000
 0200,-0.00000557,-0.00001254,-0.00002175,0.00004222,0.00002561,0.00000
 591,-0.00001346,0.00000318,-0.00001993,0.00000449,-0.00002701,0.000005
 19,0.00003016,-0.00001825,0.00002265,-0.00003533,-0.00003736,-0.000001
 59,0.,0.00000170,-0.00266720,0.00072542,-0.00521805,-0.04019759,0.0640
 7818,0.00045936,0.00009302,0.00012172,-0.00005013,-0.00010389,-0.00005
 814,0.00143196,-0.00171021,0.00042216,-0.00045979,-0.00013460,0.000502
 64,-0.00007275,-0.00024590,-0.00045552,-0.01520731,0.00828867,-0.02039
 291,-0.00001971,-0.00021580,0.00004185,0.00006946,0.00000414,-0.000020
 76,-0.00011775,0.00001680,0.00001179,0.00037932,0.00018550,0.00038858,
 -0.00012594,-0.00008312,0.00002065,-0.11085155,0.06037275,-0.21926343,
 0.00280226,-0.00299459,0.00052511,-0.00003708,0.00003558,0.00011779,-0
 .00000108,-0.00004822,-0.00007843,0.00005373,0.00001793,-0.00001180,0.
 00000830,-0.00000371,0.00005267,-0.00005507,-0.00013331,-0.00002884,0.
 00024586,0.00062115,0.00010532,0.00036651,-0.00028750,0.00004144,-0.00
 001498,-0.00000785,0.00002897,0.00000819,0.00000384,0.00002289,0.00001
 038,-0.00000363,-0.00002185,0.00000361,0.00001587,-0.00000673,0.000012
 12,-0.00004358,0.00005362,0.00005658,0.00001389,-0.00003925,-0.0000181
 3,0.00005132,0.00006484,0.00001620,-0.00001236,-0.00000348,0.00321149,
 -0.00178112,0.00510972,0.11990195,-0.06284387,0.23622804,0.00011361,0.
 00014285,-0.00006095,0.00001597,-0.00009083,-0.00003117,0.00025080,-0.
 00109373,0.00041139,-0.00078619,0.00020266,0.00073152,-0.00018276,0.00
 075046,0.00022060,0.00028254,0.00801192,-0.00806512,0.00009660,-0.0001
 0742,0.00006185,-0.00001003,0.00001058,0.00001963,-0.00000912,0.000061
 22,0.00008611,-0.00009541,-0.00026347,-0.00004141,0.00008981,0.0000797
 9,-0.00002500,-0.05512927,-0.04173605,0.01097949,0.00205567,0.00085523
 ,0.00241228,0.00000785,-0.00004061,-0.00008541,0.00003283,-0.00002718,
 0.00000509,0.00002477,0.00000325,-0.00002872,0.00003109,-0.00013476,-0
 .00017746,0.00004102,-0.00021661,0.00065358,-0.00097927,-0.00002032,-0
 .00010288,0.00009592,-0.00015223,0.00004094,-0.00003370,0.00001073,0.0
 0000723,-0.00001272,-0.00000744,-0.00001567,0.00000417,0.00000074,0.00
 000024,-0.00001350,-0.00006557,-0.00001267,0.00001134,-0.00001125,-0.0
 0004244,-0.00000026,0.00001242,0.00000151,0.00002124,-0.00003205,-0.00
 004142,-0.00000568,-0.00000438,0.00000438,-0.00153412,-0.02990660,0.00
 444017,0.00186167,0.01656216,-0.00200602,0.05375512,0.00012612,0.00008
 035,0.00000492,-0.00006135,-0.00006359,0.00005041,-0.00001576,0.000217
 96,-0.00112583,-0.00024856,-0.00081366,0.00047074,-0.00014000,-0.00047
 657,-0.00037757,-0.00612524,-0.01445377,0.00714699,0.00005103,0.000556
 90,0.00006051,-0.00014767,-0.00008137,0.00006709,0.00001875,-0.0000142
 7,-0.00000303,0.00004431,0.00025913,0.00012789,-0.00005997,-0.00007514
 ,0.00001841,-0.04069564,-0.29759426,0.03864706,0.00163682,-0.00183872,
 -0.00488413,-0.00003346,0.00003284,0.00017221,-0.00006232,0.00004905,0
 .00000036,0.00002796,0.00002235,-0.00000877,0.00002117,-0.00001828,0.0
 0011768,-0.00038977,0.00095131,0.00053137,0.00022644,0.00041152,0.0003
 9679,-0.00016019,0.00016008,0.00006399,0.00006184,0.00001446,-0.000014
 74,0.00001115,-0.00000495,0.00000587,-0.00003942,0.00007389,0.00002442
 ,0.00001537,0.00003642,0.00000041,-0.00003257,0.00000116,0.00001236,0.
 00002736,0.00000833,-0.00001749,0.00000626,0.00003603,0.00005451,-0.00
 000614,0.00000843,-0.00001498,0.00039278,-0.00275116,0.00051295,-0.001
 65581,-0.00808236,0.00093278,0.04720649,0.32334791,-0.00037609,-0.0000
 6347,-0.00021008,0.00002492,0.00011273,0.00010851,-0.00053949,0.001844
 76,-0.00037518,0.00101544,-0.00066820,-0.00121814,0.00001380,0.0005576
 9,0.00030873,-0.00755641,-0.02340646,0.01010798,-0.00004638,0.00047051
 ,-0.00008941,-0.00012985,-0.00011077,0.00001533,-0.00001779,0.00000023
 ,0.00007954,0.00006236,-0.00023898,-0.00011818,0.00007734,0.00006832,-
 0.00002549,0.01109943,0.03721953,-0.04700416,0.00027799,-0.00422211,-0
 .00761859,-0.00000360,-0.00003127,0.00007383,-0.00007181,0.00008638,0.
 00002993,-0.00005477,-0.00000457,0.00001362,-0.00005092,0.00004471,-0.
 00001037,0.00071228,0.00076397,-0.00086912,0.00021545,-0.00029727,-0.0
 0000399,-0.00006805,-0.00001331,0.00002430,0.00005183,-0.00000291,-0.0
 0004270,0.00000939,-0.00000839,-0.00001461,-0.00003485,0.00004779,0.00
 004433,0.00002215,-0.00000323,0.00000667,-0.00004052,-0.00000401,-0.00
 001447,-0.00004872,0.00000737,-0.00000096,0.00000832,-0.00002033,-0.00
 001633,-0.00000333,0.00001044,-0.00000553,-0.00004449,0.00403372,-0.00
 218238,0.00483604,0.02680032,-0.00347866,-0.00933968,-0.04297320,0.052
 48556\\-0.00000153,-0.00000414,-0.00000890,0.00000001,0.00000510,0.000
 00164,-0.00000109,0.00000534,0.00000304,-0.00000030,-0.00000293,0.0000
 0134,-0.00000210,-0.00000633,-0.00000638,0.00000139,0.00000887,0.00000
 417,0.00000157,0.00000774,-0.00000003,-0.00000140,0.00000403,-0.000003
 15,0.00000263,0.00000075,0.00000578,0.00000135,-0.00000262,0.00000537,
 -0.00000110,-0.00000578,-0.00000413,0.00000345,-0.00000301,-0.00000476
 ,-0.00000582,-0.00000379,-0.00000626,-0.00000031,0.00000440,-0.0000012
 3,-0.00000417,0.00000117,-0.00000477,-0.00000204,0.00000087,-0.0000045
 3,0.00000208,0.00000573,0.00000158,0.00000213,0.00000323,0.00000389,0.
 00000063,-0.00000245,0.00000316,-0.00000065,-0.00000461,-0.00000033,0.
 00000372,0.00000027,0.00000576,0.00000004,0.00000541,0.00000058,0.0000
 0142,0.00000258,0.00000195,0.00000360,-0.00000352,0.00000261,0.0000015
 0,-0.00000183,0.00000447,0.00000055,-0.00000535,0.00000013,-0.00000074
 ,-0.00000225,-0.00000097,-0.00000266,-0.00000271,-0.00000303,-0.000003
 25,0.00000009,0.00000037,0.00000019,-0.00000448,0.00000102,0.00000091,
 0.00000023,0.00000160\\\@


 "THE TIME HAS COME", THE WALRUS SAID,
 "TO TALK OF MANY THINGS,
 OF SHOES AND SHIPS AND SEALING WAX,
 OF CABBAGES AND KINGS,
 AND WHY THE SEA IS BOILING HOT,
 AND WHETHER PIGS HAVE WINGS."
 Job cpu time:       0 days  7 hours 17 minutes 25.4 seconds.
 File lengths (MBytes):  RWF=    442 Int=      0 D2E=      0 Chk=     12 Scr=      1
 Normal termination of Gaussian 09 at Sat Apr 25 15:43:08 2015.
