 Entering Gaussian System, Link 0=g09
 Input=0_0freq-b971_20532-03-0.gau
 Output=0_0freq-b971_20532-03-0.log
 Initial command:
 /opt/g09/l1.exe "/scratch/pb556/g09_run/add_hco//Gau-13294.inp" -scrdir="/scratch/pb556/g09_run/add_hco//"
 Entering Link 1 = /opt/g09/l1.exe PID=     13303.
  
 Copyright (c) 1988,1990,1992,1993,1995,1998,2003,2009,2013,
            Gaussian, Inc.  All Rights Reserved.
  
 This is part of the Gaussian(R) 09 program.  It is based on
 the Gaussian(R) 03 system (copyright 2003, Gaussian, Inc.),
 the Gaussian(R) 98 system (copyright 1998, Gaussian, Inc.),
 the Gaussian(R) 94 system (copyright 1995, Gaussian, Inc.),
 the Gaussian 92(TM) system (copyright 1992, Gaussian, Inc.),
 the Gaussian 90(TM) system (copyright 1990, Gaussian, Inc.),
 the Gaussian 88(TM) system (copyright 1988, Gaussian, Inc.),
 the Gaussian 86(TM) system (copyright 1986, Carnegie Mellon
 University), and the Gaussian 82(TM) system (copyright 1983,
 Carnegie Mellon University). Gaussian is a federally registered
 trademark of Gaussian, Inc.
  
 This software contains proprietary and confidential information,
 including trade secrets, belonging to Gaussian, Inc.
  
 This software is provided under written license and may be
 used, copied, transmitted, or stored only in accord with that
 written license.
  
 The following legend is applicable only to US Government
 contracts under FAR:
  
                    RESTRICTED RIGHTS LEGEND
  
 Use, reproduction and disclosure by the US Government is
 subject to restrictions as set forth in subparagraphs (a)
 and (c) of the Commercial Computer Software - Restricted
 Rights clause in FAR 52.227-19.
  
 Gaussian, Inc.
 340 Quinnipiac St., Bldg. 40, Wallingford CT 06492
  
  
 ---------------------------------------------------------------
 Warning -- This program may not be used in any manner that
 competes with the business of Gaussian, Inc. or will provide
 assistance to any competitor of Gaussian, Inc.  The licensee
 of this program is prohibited from giving any competitor of
 Gaussian, Inc. access to this program.  By using this program,
 the user acknowledges that Gaussian, Inc. is engaged in the
 business of creating and licensing software in the field of
 computational chemistry and represents and warrants to the
 licensee that it is not a competitor of Gaussian, Inc. and that
 it will not use this program in any manner prohibited above.
 ---------------------------------------------------------------
  

 Cite this work as:
 Gaussian 09, Revision D.01,
 M. J. Frisch, G. W. Trucks, H. B. Schlegel, G. E. Scuseria, 
 M. A. Robb, J. R. Cheeseman, G. Scalmani, V. Barone, B. Mennucci, 
 G. A. Petersson, H. Nakatsuji, M. Caricato, X. Li, H. P. Hratchian, 
 A. F. Izmaylov, J. Bloino, G. Zheng, J. L. Sonnenberg, M. Hada, 
 M. Ehara, K. Toyota, R. Fukuda, J. Hasegawa, M. Ishida, T. Nakajima, 
 Y. Honda, O. Kitao, H. Nakai, T. Vreven, J. A. Montgomery, Jr., 
 J. E. Peralta, F. Ogliaro, M. Bearpark, J. J. Heyd, E. Brothers, 
 K. N. Kudin, V. N. Staroverov, T. Keith, R. Kobayashi, J. Normand, 
 K. Raghavachari, A. Rendell, J. C. Burant, S. S. Iyengar, J. Tomasi, 
 M. Cossi, N. Rega, J. M. Millam, M. Klene, J. E. Knox, J. B. Cross, 
 V. Bakken, C. Adamo, J. Jaramillo, R. Gomperts, R. E. Stratmann, 
 O. Yazyev, A. J. Austin, R. Cammi, C. Pomelli, J. W. Ochterski, 
 R. L. Martin, K. Morokuma, V. G. Zakrzewski, G. A. Voth, 
 P. Salvador, J. J. Dannenberg, S. Dapprich, A. D. Daniels, 
 O. Farkas, J. B. Foresman, J. V. Ortiz, J. Cioslowski, 
 and D. J. Fox, Gaussian, Inc., Wallingford CT, 2013.
 
 ******************************************
 Gaussian 09:  ES64L-G09RevD.01 24-Apr-2013
                25-Apr-2015 
 ******************************************
 %NProcShared=8
 Will use up to    8 processors via shared memory.
 %Mem=500MW
 ----------------------------------------------------------------------
 #p rB971/6-311+G(d,p) Opt=(Tight, CalcAll) Freq GFInput Population=Non
 e Integral(Grid=UltraFine) Guess=MIX NoSymmetry
 ----------------------------------------------------------------------
 1/7=10,10=4,14=-1,18=20,19=15,26=4,38=1/1,3;
 2/9=110,12=2,15=1,17=6,18=5,40=1/2;
 3/5=4,6=6,7=111,11=2,16=1,24=10,25=1,30=1,71=2,74=-20,75=-5,116=1,140=1/1,2,3;
 4/13=-1/1;
 5/5=2,38=5/2;
 8/6=4,10=90,11=11/1;
 11/6=1,8=1,9=11,15=111,16=1,31=1/1,2,10;
 10/6=1,31=1/2;
 7/10=1,25=1,30=1/1,2,3,16;
 1/7=10,10=4,14=-1,18=20,19=15,26=4/3(3);
 2/9=110,15=1/2;
 7/8=1,9=1,25=1,30=1,44=-1/16;
 99//99;
 2/9=110,15=1/2;
 3/5=4,6=6,7=111,11=2,16=1,25=1,30=1,71=2,74=-20,75=-5,116=1,140=1/1,2,3;
 4/5=5,16=3,69=1/1;
 5/5=2,38=5/2;
 8/6=4,10=90,11=11/1;
 11/6=1,8=1,9=11,15=111,16=1,31=1/1,2,10;
 10/6=1,31=1/2;
 7/10=1,25=1,30=1/1,2,3,16;
 1/7=10,10=4,14=-1,18=20,19=15,26=4/3(-8);
 2/9=110,15=1/2;
 7/8=1,9=1,25=1,30=1,44=-1/16;
 99//99;
 Leave Link    1 at Sat Apr 25 19:38:16 2015, MaxMem=   524288000 cpu:         0.6
 (Enter /opt/g09/l101.exe)
 ------------------------
 freq-b971_20532-03-0.gau
 ------------------------
 Symbolic Z-matrix:
 Charge =  0 Multiplicity = 1
 C                     3.52233   6.17436   1.96014 
 C                     3.19308   6.96068   0.82879 
 C                     2.54217   5.93786   2.96618 
 C                     4.8385    5.62073   2.1043 
 C                     1.93166   7.50542   0.68443 
 C                     0.95833   7.27684   1.67726 
 C                     1.25902   6.51121   2.79063 
 C                     2.9024    5.1195    4.11887 
 C                     5.1994    4.86489   3.18312 
 C                     4.22429   4.58582   4.22177 
 C                     6.59119   4.31545   3.26713 
 C                     4.55704   3.77469   5.33594 
 C                     1.97928   4.81917   5.15041 
 C                     2.33134   4.03104   6.23132 
 C                     3.63169   3.50079   6.32512 
 C                     8.56404   1.53987   1.72937 
 C                     8.2514    2.66404   2.53259 
 C                     9.8245    0.97484   1.7571 
 C                     6.93622   3.23762   2.50252 
 C                     9.24751   3.22467   3.38245 
 C                     7.58266   4.92712   4.13339 
 C                     8.90415   4.38619   4.19552 
 C                     7.2663    6.06885   4.91209 
 C                     9.84345   5.01541   5.04887 
 C                     10.52928   2.62213   3.39011 
 C                     10.81361   1.52364   2.59724 
 C                     8.20724   6.65892   5.73442 
 C                     9.50728   6.12427   5.80442 
 H                     3.95485   7.13014   0.07223 
 H                     5.57067   5.82811   1.32788 
 H                     1.6903    8.10682  -0.18672 
 H                    -0.0345    7.70348   1.57016 
 H                     0.48733   6.35518   3.53601 
 H                     5.55829   3.3622    5.4032 
 H                     0.9687    5.20832   5.09973 
 H                     1.59986   3.81873   7.00533 
 H                     3.90688   2.87688   7.17005 
 H                     7.79025   1.12624   1.08786 
 H                     10.05307   0.11311   1.13743 
 H                     6.1918    2.7815    1.85467 
 H                     6.26519   6.48285   4.85225 
 H                     10.85404   4.6288    5.11633 
 H                     11.31287   3.01935   4.02542 
 H                     11.8058   1.08315   2.62443 
 H                     7.94442   7.53309   6.32236 
 H                     10.25092   6.58404   6.4485 
 
 NAtoms=     46 NQM=       46 NQMF=       0 NMMI=      0 NMMIF=      0
                NMic=       0 NMicF=      0.
                    Isotopes and Nuclear Properties:
 (Nuclear quadrupole moments (NQMom) in fm**2, nuclear magnetic moments (NMagM)
  in nuclear magnetons)

  Atom         1           2           3           4           5           6           7           8           9          10
 IAtWgt=          12          12          12          12          12          12          12          12          12          12
 AtmWgt=  12.0000000  12.0000000  12.0000000  12.0000000  12.0000000  12.0000000  12.0000000  12.0000000  12.0000000  12.0000000
 NucSpn=           0           0           0           0           0           0           0           0           0           0
 AtZEff=   0.0000000   0.0000000   0.0000000   0.0000000   0.0000000   0.0000000   0.0000000   0.0000000   0.0000000   0.0000000
 NQMom=    0.0000000   0.0000000   0.0000000   0.0000000   0.0000000   0.0000000   0.0000000   0.0000000   0.0000000   0.0000000
 NMagM=    0.0000000   0.0000000   0.0000000   0.0000000   0.0000000   0.0000000   0.0000000   0.0000000   0.0000000   0.0000000
 AtZNuc=   6.0000000   6.0000000   6.0000000   6.0000000   6.0000000   6.0000000   6.0000000   6.0000000   6.0000000   6.0000000

  Atom        11          12          13          14          15          16          17          18          19          20
 IAtWgt=          12          12          12          12          12          12          12          12          12          12
 AtmWgt=  12.0000000  12.0000000  12.0000000  12.0000000  12.0000000  12.0000000  12.0000000  12.0000000  12.0000000  12.0000000
 NucSpn=           0           0           0           0           0           0           0           0           0           0
 AtZEff=   0.0000000   0.0000000   0.0000000   0.0000000   0.0000000   0.0000000   0.0000000   0.0000000   0.0000000   0.0000000
 NQMom=    0.0000000   0.0000000   0.0000000   0.0000000   0.0000000   0.0000000   0.0000000   0.0000000   0.0000000   0.0000000
 NMagM=    0.0000000   0.0000000   0.0000000   0.0000000   0.0000000   0.0000000   0.0000000   0.0000000   0.0000000   0.0000000
 AtZNuc=   6.0000000   6.0000000   6.0000000   6.0000000   6.0000000   6.0000000   6.0000000   6.0000000   6.0000000   6.0000000

  Atom        21          22          23          24          25          26          27          28          29          30
 IAtWgt=          12          12          12          12          12          12          12          12           1           1
 AtmWgt=  12.0000000  12.0000000  12.0000000  12.0000000  12.0000000  12.0000000  12.0000000  12.0000000   1.0078250   1.0078250
 NucSpn=           0           0           0           0           0           0           0           0           1           1
 AtZEff=   0.0000000   0.0000000   0.0000000   0.0000000   0.0000000   0.0000000   0.0000000   0.0000000   0.0000000   0.0000000
 NQMom=    0.0000000   0.0000000   0.0000000   0.0000000   0.0000000   0.0000000   0.0000000   0.0000000   0.0000000   0.0000000
 NMagM=    0.0000000   0.0000000   0.0000000   0.0000000   0.0000000   0.0000000   0.0000000   0.0000000   2.7928460   2.7928460
 AtZNuc=   6.0000000   6.0000000   6.0000000   6.0000000   6.0000000   6.0000000   6.0000000   6.0000000   1.0000000   1.0000000

  Atom        31          32          33          34          35          36          37          38          39          40
 IAtWgt=           1           1           1           1           1           1           1           1           1           1
 AtmWgt=   1.0078250   1.0078250   1.0078250   1.0078250   1.0078250   1.0078250   1.0078250   1.0078250   1.0078250   1.0078250
 NucSpn=           1           1           1           1           1           1           1           1           1           1
 AtZEff=   0.0000000   0.0000000   0.0000000   0.0000000   0.0000000   0.0000000   0.0000000   0.0000000   0.0000000   0.0000000
 NQMom=    0.0000000   0.0000000   0.0000000   0.0000000   0.0000000   0.0000000   0.0000000   0.0000000   0.0000000   0.0000000
 NMagM=    2.7928460   2.7928460   2.7928460   2.7928460   2.7928460   2.7928460   2.7928460   2.7928460   2.7928460   2.7928460
 AtZNuc=   1.0000000   1.0000000   1.0000000   1.0000000   1.0000000   1.0000000   1.0000000   1.0000000   1.0000000   1.0000000

  Atom        41          42          43          44          45          46
 IAtWgt=           1           1           1           1           1           1
 AtmWgt=   1.0078250   1.0078250   1.0078250   1.0078250   1.0078250   1.0078250
 NucSpn=           1           1           1           1           1           1
 AtZEff=   0.0000000   0.0000000   0.0000000   0.0000000   0.0000000   0.0000000
 NQMom=    0.0000000   0.0000000   0.0000000   0.0000000   0.0000000   0.0000000
 NMagM=    2.7928460   2.7928460   2.7928460   2.7928460   2.7928460   2.7928460
 AtZNuc=   1.0000000   1.0000000   1.0000000   1.0000000   1.0000000   1.0000000
 Leave Link  101 at Sat Apr 25 19:38:16 2015, MaxMem=   524288000 cpu:         2.1
 (Enter /opt/g09/l103.exe)

 GradGradGradGradGradGradGradGradGradGradGradGradGradGradGradGradGradGrad
 Berny optimization.
 Initialization pass.
                           ----------------------------
                           !    Initial Parameters    !
                           ! (Angstroms and Degrees)  !
 --------------------------                            --------------------------
 ! Name  Definition              Value          Derivative Info.                !
 --------------------------------------------------------------------------------
 ! R1    R(1,2)                  1.4166         calculate D2E/DX2 analytically  !
 ! R2    R(1,3)                  1.4243         calculate D2E/DX2 analytically  !
 ! R3    R(1,4)                  1.4351         calculate D2E/DX2 analytically  !
 ! R4    R(2,5)                  1.3816         calculate D2E/DX2 analytically  !
 ! R5    R(2,29)                 1.0869         calculate D2E/DX2 analytically  !
 ! R6    R(3,7)                  1.4163         calculate D2E/DX2 analytically  !
 ! R7    R(3,8)                  1.4588         calculate D2E/DX2 analytically  !
 ! R8    R(4,9)                  1.3658         calculate D2E/DX2 analytically  !
 ! R9    R(4,30)                 1.0872         calculate D2E/DX2 analytically  !
 ! R10   R(5,6)                  1.409          calculate D2E/DX2 analytically  !
 ! R11   R(5,31)                 1.0857         calculate D2E/DX2 analytically  !
 ! R12   R(6,7)                  1.3843         calculate D2E/DX2 analytically  !
 ! R13   R(6,32)                 1.0859         calculate D2E/DX2 analytically  !
 ! R14   R(7,33)                 1.0842         calculate D2E/DX2 analytically  !
 ! R15   R(8,10)                 1.4293         calculate D2E/DX2 analytically  !
 ! R16   R(8,13)                 1.4165         calculate D2E/DX2 analytically  !
 ! R17   R(9,10)                 1.4517         calculate D2E/DX2 analytically  !
 ! R18   R(9,11)                 1.4987         calculate D2E/DX2 analytically  !
 ! R19   R(10,12)                1.4178         calculate D2E/DX2 analytically  !
 ! R20   R(11,19)                1.3658         calculate D2E/DX2 analytically  !
 ! R21   R(11,21)                1.4517         calculate D2E/DX2 analytically  !
 ! R22   R(12,15)                1.3819         calculate D2E/DX2 analytically  !
 ! R23   R(12,34)                1.085          calculate D2E/DX2 analytically  !
 ! R24   R(13,14)                1.3833         calculate D2E/DX2 analytically  !
 ! R25   R(13,35)                1.0841         calculate D2E/DX2 analytically  !
 ! R26   R(14,15)                1.4074         calculate D2E/DX2 analytically  !
 ! R27   R(14,36)                1.0859         calculate D2E/DX2 analytically  !
 ! R28   R(15,37)                1.0858         calculate D2E/DX2 analytically  !
 ! R29   R(16,17)                1.4166         calculate D2E/DX2 analytically  !
 ! R30   R(16,18)                1.3816         calculate D2E/DX2 analytically  !
 ! R31   R(16,38)                1.0869         calculate D2E/DX2 analytically  !
 ! R32   R(17,19)                1.4351         calculate D2E/DX2 analytically  !
 ! R33   R(17,20)                1.4244         calculate D2E/DX2 analytically  !
 ! R34   R(18,26)                1.409          calculate D2E/DX2 analytically  !
 ! R35   R(18,39)                1.0857         calculate D2E/DX2 analytically  !
 ! R36   R(19,40)                1.0872         calculate D2E/DX2 analytically  !
 ! R37   R(20,22)                1.4588         calculate D2E/DX2 analytically  !
 ! R38   R(20,25)                1.4164         calculate D2E/DX2 analytically  !
 ! R39   R(21,22)                1.4293         calculate D2E/DX2 analytically  !
 ! R40   R(21,23)                1.4177         calculate D2E/DX2 analytically  !
 ! R41   R(22,24)                1.4165         calculate D2E/DX2 analytically  !
 ! R42   R(23,27)                1.3819         calculate D2E/DX2 analytically  !
 ! R43   R(23,41)                1.085          calculate D2E/DX2 analytically  !
 ! R44   R(24,28)                1.3833         calculate D2E/DX2 analytically  !
 ! R45   R(24,42)                1.0841         calculate D2E/DX2 analytically  !
 ! R46   R(25,26)                1.3843         calculate D2E/DX2 analytically  !
 ! R47   R(25,43)                1.0842         calculate D2E/DX2 analytically  !
 ! R48   R(26,44)                1.0859         calculate D2E/DX2 analytically  !
 ! R49   R(27,28)                1.4074         calculate D2E/DX2 analytically  !
 ! R50   R(27,45)                1.0858         calculate D2E/DX2 analytically  !
 ! R51   R(28,46)                1.0859         calculate D2E/DX2 analytically  !
 ! A1    A(2,1,3)              119.7573         calculate D2E/DX2 analytically  !
 ! A2    A(2,1,4)              120.4991         calculate D2E/DX2 analytically  !
 ! A3    A(3,1,4)              119.7425         calculate D2E/DX2 analytically  !
 ! A4    A(1,2,5)              120.966          calculate D2E/DX2 analytically  !
 ! A5    A(1,2,29)             118.6565         calculate D2E/DX2 analytically  !
 ! A6    A(5,2,29)             120.3774         calculate D2E/DX2 analytically  !
 ! A7    A(1,3,7)              117.9483         calculate D2E/DX2 analytically  !
 ! A8    A(1,3,8)              118.7713         calculate D2E/DX2 analytically  !
 ! A9    A(7,3,8)              123.2802         calculate D2E/DX2 analytically  !
 ! A10   A(1,4,9)              122.3555         calculate D2E/DX2 analytically  !
 ! A11   A(1,4,30)             118.1851         calculate D2E/DX2 analytically  !
 ! A12   A(9,4,30)             119.4538         calculate D2E/DX2 analytically  !
 ! A13   A(2,5,6)              119.5457         calculate D2E/DX2 analytically  !
 ! A14   A(2,5,31)             120.3447         calculate D2E/DX2 analytically  !
 ! A15   A(6,5,31)             120.1096         calculate D2E/DX2 analytically  !
 ! A16   A(5,6,7)              120.4248         calculate D2E/DX2 analytically  !
 ! A17   A(5,6,32)             119.8904         calculate D2E/DX2 analytically  !
 ! A18   A(7,6,32)             119.6849         calculate D2E/DX2 analytically  !
 ! A19   A(3,7,6)              121.3578         calculate D2E/DX2 analytically  !
 ! A20   A(3,7,33)             120.0905         calculate D2E/DX2 analytically  !
 ! A21   A(6,7,33)             118.5517         calculate D2E/DX2 analytically  !
 ! A22   A(3,8,10)             119.652          calculate D2E/DX2 analytically  !
 ! A23   A(3,8,13)             122.2378         calculate D2E/DX2 analytically  !
 ! A24   A(10,8,13)            118.1084         calculate D2E/DX2 analytically  !
 ! A25   A(4,9,10)             119.6054         calculate D2E/DX2 analytically  !
 ! A26   A(4,9,11)             119.5092         calculate D2E/DX2 analytically  !
 ! A27   A(10,9,11)            120.8775         calculate D2E/DX2 analytically  !
 ! A28   A(8,10,9)             119.8638         calculate D2E/DX2 analytically  !
 ! A29   A(8,10,12)            119.1617         calculate D2E/DX2 analytically  !
 ! A30   A(9,10,12)            120.9701         calculate D2E/DX2 analytically  !
 ! A31   A(9,11,19)            119.5079         calculate D2E/DX2 analytically  !
 ! A32   A(9,11,21)            120.8788         calculate D2E/DX2 analytically  !
 ! A33   A(19,11,21)           119.6054         calculate D2E/DX2 analytically  !
 ! A34   A(10,12,15)           121.2487         calculate D2E/DX2 analytically  !
 ! A35   A(10,12,34)           118.8697         calculate D2E/DX2 analytically  !
 ! A36   A(15,12,34)           119.8812         calculate D2E/DX2 analytically  !
 ! A37   A(8,13,14)            121.6005         calculate D2E/DX2 analytically  !
 ! A38   A(8,13,35)            119.8247         calculate D2E/DX2 analytically  !
 ! A39   A(14,13,35)           118.5744         calculate D2E/DX2 analytically  !
 ! A40   A(13,14,15)           120.1244         calculate D2E/DX2 analytically  !
 ! A41   A(13,14,36)           119.7963         calculate D2E/DX2 analytically  !
 ! A42   A(15,14,36)           120.0787         calculate D2E/DX2 analytically  !
 ! A43   A(12,15,14)           119.754          calculate D2E/DX2 analytically  !
 ! A44   A(12,15,37)           120.079          calculate D2E/DX2 analytically  !
 ! A45   A(14,15,37)           120.1668         calculate D2E/DX2 analytically  !
 ! A46   A(17,16,18)           120.9658         calculate D2E/DX2 analytically  !
 ! A47   A(17,16,38)           118.6556         calculate D2E/DX2 analytically  !
 ! A48   A(18,16,38)           120.3785         calculate D2E/DX2 analytically  !
 ! A49   A(16,17,19)           120.5007         calculate D2E/DX2 analytically  !
 ! A50   A(16,17,20)           119.7574         calculate D2E/DX2 analytically  !
 ! A51   A(19,17,20)           119.7408         calculate D2E/DX2 analytically  !
 ! A52   A(16,18,26)           119.5455         calculate D2E/DX2 analytically  !
 ! A53   A(16,18,39)           120.3449         calculate D2E/DX2 analytically  !
 ! A54   A(26,18,39)           120.1096         calculate D2E/DX2 analytically  !
 ! A55   A(11,19,17)           122.3563         calculate D2E/DX2 analytically  !
 ! A56   A(11,19,40)           119.4538         calculate D2E/DX2 analytically  !
 ! A57   A(17,19,40)           118.1844         calculate D2E/DX2 analytically  !
 ! A58   A(17,20,22)           118.7728         calculate D2E/DX2 analytically  !
 ! A59   A(17,20,25)           117.948          calculate D2E/DX2 analytically  !
 ! A60   A(22,20,25)           123.2789         calculate D2E/DX2 analytically  !
 ! A61   A(11,21,22)           119.8631         calculate D2E/DX2 analytically  !
 ! A62   A(11,21,23)           120.9741         calculate D2E/DX2 analytically  !
 ! A63   A(22,21,23)           119.1584         calculate D2E/DX2 analytically  !
 ! A64   A(20,22,21)           119.6523         calculate D2E/DX2 analytically  !
 ! A65   A(20,22,24)           122.2345         calculate D2E/DX2 analytically  !
 ! A66   A(21,22,24)           118.1114         calculate D2E/DX2 analytically  !
 ! A67   A(21,23,27)           121.2489         calculate D2E/DX2 analytically  !
 ! A68   A(21,23,41)           118.8739         calculate D2E/DX2 analytically  !
 ! A69   A(27,23,41)           119.8768         calculate D2E/DX2 analytically  !
 ! A70   A(22,24,28)           121.6006         calculate D2E/DX2 analytically  !
 ! A71   A(22,24,42)           119.8165         calculate D2E/DX2 analytically  !
 ! A72   A(28,24,42)           118.5825         calculate D2E/DX2 analytically  !
 ! A73   A(20,25,26)           121.3579         calculate D2E/DX2 analytically  !
 ! A74   A(20,25,43)           120.0917         calculate D2E/DX2 analytically  !
 ! A75   A(26,25,43)           118.5504         calculate D2E/DX2 analytically  !
 ! A76   A(18,26,25)           120.4253         calculate D2E/DX2 analytically  !
 ! A77   A(18,26,44)           119.8896         calculate D2E/DX2 analytically  !
 ! A78   A(25,26,44)           119.685          calculate D2E/DX2 analytically  !
 ! A79   A(23,27,28)           119.757          calculate D2E/DX2 analytically  !
 ! A80   A(23,27,45)           120.0776         calculate D2E/DX2 analytically  !
 ! A81   A(28,27,45)           120.1653         calculate D2E/DX2 analytically  !
 ! A82   A(24,28,27)           120.1214         calculate D2E/DX2 analytically  !
 ! A83   A(24,28,46)           119.7978         calculate D2E/DX2 analytically  !
 ! A84   A(27,28,46)           120.0802         calculate D2E/DX2 analytically  !
 ! D1    D(3,1,2,5)              0.0453         calculate D2E/DX2 analytically  !
 ! D2    D(3,1,2,29)           179.9715         calculate D2E/DX2 analytically  !
 ! D3    D(4,1,2,5)           -179.5831         calculate D2E/DX2 analytically  !
 ! D4    D(4,1,2,29)             0.3431         calculate D2E/DX2 analytically  !
 ! D5    D(2,1,3,7)             -0.1307         calculate D2E/DX2 analytically  !
 ! D6    D(2,1,3,8)            179.6978         calculate D2E/DX2 analytically  !
 ! D7    D(4,1,3,7)            179.5005         calculate D2E/DX2 analytically  !
 ! D8    D(4,1,3,8)             -0.671          calculate D2E/DX2 analytically  !
 ! D9    D(2,1,4,9)            179.5638         calculate D2E/DX2 analytically  !
 ! D10   D(2,1,4,30)             0.4281         calculate D2E/DX2 analytically  !
 ! D11   D(3,1,4,9)             -0.0647         calculate D2E/DX2 analytically  !
 ! D12   D(3,1,4,30)          -179.2004         calculate D2E/DX2 analytically  !
 ! D13   D(1,2,5,6)              0.0553         calculate D2E/DX2 analytically  !
 ! D14   D(1,2,5,31)           179.9819         calculate D2E/DX2 analytically  !
 ! D15   D(29,2,5,6)          -179.8696         calculate D2E/DX2 analytically  !
 ! D16   D(29,2,5,31)            0.057          calculate D2E/DX2 analytically  !
 ! D17   D(1,3,7,6)              0.1202         calculate D2E/DX2 analytically  !
 ! D18   D(1,3,7,33)          -179.8721         calculate D2E/DX2 analytically  !
 ! D19   D(8,3,7,6)           -179.6999         calculate D2E/DX2 analytically  !
 ! D20   D(8,3,7,33)             0.3077         calculate D2E/DX2 analytically  !
 ! D21   D(1,3,8,10)             0.5797         calculate D2E/DX2 analytically  !
 ! D22   D(1,3,8,13)          -178.9179         calculate D2E/DX2 analytically  !
 ! D23   D(7,3,8,10)          -179.6015         calculate D2E/DX2 analytically  !
 ! D24   D(7,3,8,13)             0.9009         calculate D2E/DX2 analytically  !
 ! D25   D(1,4,9,10)             0.8814         calculate D2E/DX2 analytically  !
 ! D26   D(1,4,9,11)           179.863          calculate D2E/DX2 analytically  !
 ! D27   D(30,4,9,10)         -179.9934         calculate D2E/DX2 analytically  !
 ! D28   D(30,4,9,11)           -1.0119         calculate D2E/DX2 analytically  !
 ! D29   D(2,5,6,7)             -0.0677         calculate D2E/DX2 analytically  !
 ! D30   D(2,5,6,32)           179.9138         calculate D2E/DX2 analytically  !
 ! D31   D(31,5,6,7)          -179.9945         calculate D2E/DX2 analytically  !
 ! D32   D(31,5,6,32)           -0.013          calculate D2E/DX2 analytically  !
 ! D33   D(5,6,7,3)             -0.022          calculate D2E/DX2 analytically  !
 ! D34   D(5,6,7,33)           179.9704         calculate D2E/DX2 analytically  !
 ! D35   D(32,6,7,3)           179.9964         calculate D2E/DX2 analytically  !
 ! D36   D(32,6,7,33)           -0.0111         calculate D2E/DX2 analytically  !
 ! D37   D(3,8,10,9)             0.2188         calculate D2E/DX2 analytically  !
 ! D38   D(3,8,10,12)         -179.0267         calculate D2E/DX2 analytically  !
 ! D39   D(13,8,10,9)          179.737          calculate D2E/DX2 analytically  !
 ! D40   D(13,8,10,12)           0.4915         calculate D2E/DX2 analytically  !
 ! D41   D(3,8,13,14)          179.3695         calculate D2E/DX2 analytically  !
 ! D42   D(3,8,13,35)           -0.4066         calculate D2E/DX2 analytically  !
 ! D43   D(10,8,13,14)          -0.1355         calculate D2E/DX2 analytically  !
 ! D44   D(10,8,13,35)        -179.9116         calculate D2E/DX2 analytically  !
 ! D45   D(4,9,10,8)            -0.9515         calculate D2E/DX2 analytically  !
 ! D46   D(4,9,10,12)          178.2801         calculate D2E/DX2 analytically  !
 ! D47   D(11,9,10,8)         -179.9188         calculate D2E/DX2 analytically  !
 ! D48   D(11,9,10,12)          -0.6873         calculate D2E/DX2 analytically  !
 ! D49   D(4,9,11,19)          -76.1482         calculate D2E/DX2 analytically  !
 ! D50   D(4,9,11,21)          102.8273         calculate D2E/DX2 analytically  !
 ! D51   D(10,9,11,19)         102.8202         calculate D2E/DX2 analytically  !
 ! D52   D(10,9,11,21)         -78.2044         calculate D2E/DX2 analytically  !
 ! D53   D(8,10,12,15)          -0.492          calculate D2E/DX2 analytically  !
 ! D54   D(8,10,12,34)         179.2694         calculate D2E/DX2 analytically  !
 ! D55   D(9,10,12,15)        -179.7288         calculate D2E/DX2 analytically  !
 ! D56   D(9,10,12,34)           0.0325         calculate D2E/DX2 analytically  !
 ! D57   D(9,11,19,17)         179.8626         calculate D2E/DX2 analytically  !
 ! D58   D(9,11,19,40)          -1.0099         calculate D2E/DX2 analytically  !
 ! D59   D(21,11,19,17)          0.8739         calculate D2E/DX2 analytically  !
 ! D60   D(21,11,19,40)       -179.9986         calculate D2E/DX2 analytically  !
 ! D61   D(9,11,21,22)        -179.9251         calculate D2E/DX2 analytically  !
 ! D62   D(9,11,21,23)          -0.6937         calculate D2E/DX2 analytically  !
 ! D63   D(19,11,21,22)         -0.9506         calculate D2E/DX2 analytically  !
 ! D64   D(19,11,21,23)        178.2808         calculate D2E/DX2 analytically  !
 ! D65   D(10,12,15,14)          0.1189         calculate D2E/DX2 analytically  !
 ! D66   D(10,12,15,37)        179.9783         calculate D2E/DX2 analytically  !
 ! D67   D(34,12,15,14)       -179.6401         calculate D2E/DX2 analytically  !
 ! D68   D(34,12,15,37)          0.2194         calculate D2E/DX2 analytically  !
 ! D69   D(8,13,14,15)          -0.2386         calculate D2E/DX2 analytically  !
 ! D70   D(8,13,14,36)        -179.9559         calculate D2E/DX2 analytically  !
 ! D71   D(35,13,14,15)        179.5403         calculate D2E/DX2 analytically  !
 ! D72   D(35,13,14,36)         -0.177          calculate D2E/DX2 analytically  !
 ! D73   D(13,14,15,12)          0.2496         calculate D2E/DX2 analytically  !
 ! D74   D(13,14,15,37)       -179.6097         calculate D2E/DX2 analytically  !
 ! D75   D(36,14,15,12)        179.9661         calculate D2E/DX2 analytically  !
 ! D76   D(36,14,15,37)          0.1068         calculate D2E/DX2 analytically  !
 ! D77   D(18,16,17,19)       -179.5884         calculate D2E/DX2 analytically  !
 ! D78   D(18,16,17,20)          0.0411         calculate D2E/DX2 analytically  !
 ! D79   D(38,16,17,19)          0.3408         calculate D2E/DX2 analytically  !
 ! D80   D(38,16,17,20)        179.9703         calculate D2E/DX2 analytically  !
 ! D81   D(17,16,18,26)          0.0538         calculate D2E/DX2 analytically  !
 ! D82   D(17,16,18,39)        179.9833         calculate D2E/DX2 analytically  !
 ! D83   D(38,16,18,26)       -179.8742         calculate D2E/DX2 analytically  !
 ! D84   D(38,16,18,39)          0.0553         calculate D2E/DX2 analytically  !
 ! D85   D(16,17,19,11)        179.5678         calculate D2E/DX2 analytically  !
 ! D86   D(16,17,19,40)          0.4297         calculate D2E/DX2 analytically  !
 ! D87   D(20,17,19,11)         -0.0618         calculate D2E/DX2 analytically  !
 ! D88   D(20,17,19,40)       -179.1999         calculate D2E/DX2 analytically  !
 ! D89   D(16,17,20,22)        179.7049         calculate D2E/DX2 analytically  !
 ! D90   D(16,17,20,25)         -0.1232         calculate D2E/DX2 analytically  !
 ! D91   D(19,17,20,22)         -0.6627         calculate D2E/DX2 analytically  !
 ! D92   D(19,17,20,25)        179.5092         calculate D2E/DX2 analytically  !
 ! D93   D(16,18,26,25)         -0.0639         calculate D2E/DX2 analytically  !
 ! D94   D(16,18,26,44)        179.9178         calculate D2E/DX2 analytically  !
 ! D95   D(39,18,26,25)       -179.9935         calculate D2E/DX2 analytically  !
 ! D96   D(39,18,26,44)         -0.0119         calculate D2E/DX2 analytically  !
 ! D97   D(17,20,22,21)          0.565          calculate D2E/DX2 analytically  !
 ! D98   D(17,20,22,24)       -178.932          calculate D2E/DX2 analytically  !
 ! D99   D(25,20,22,21)       -179.6166         calculate D2E/DX2 analytically  !
 ! D100  D(25,20,22,24)          0.8863         calculate D2E/DX2 analytically  !
 ! D101  D(17,20,25,26)          0.1148         calculate D2E/DX2 analytically  !
 ! D102  D(17,20,25,43)       -179.8783         calculate D2E/DX2 analytically  !
 ! D103  D(22,20,25,26)       -179.7049         calculate D2E/DX2 analytically  !
 ! D104  D(22,20,25,43)          0.302          calculate D2E/DX2 analytically  !
 ! D105  D(11,21,22,20)          0.229          calculate D2E/DX2 analytically  !
 ! D106  D(11,21,22,24)        179.7467         calculate D2E/DX2 analytically  !
 ! D107  D(23,21,22,20)       -179.0164         calculate D2E/DX2 analytically  !
 ! D108  D(23,21,22,24)          0.5013         calculate D2E/DX2 analytically  !
 ! D109  D(11,21,23,27)       -179.7327         calculate D2E/DX2 analytically  !
 ! D110  D(11,21,23,41)          0.0304         calculate D2E/DX2 analytically  !
 ! D111  D(22,21,23,27)         -0.496          calculate D2E/DX2 analytically  !
 ! D112  D(22,21,23,41)        179.2672         calculate D2E/DX2 analytically  !
 ! D113  D(20,22,24,28)        179.3605         calculate D2E/DX2 analytically  !
 ! D114  D(20,22,24,42)         -0.42           calculate D2E/DX2 analytically  !
 ! D115  D(21,22,24,28)         -0.144          calculate D2E/DX2 analytically  !
 ! D116  D(21,22,24,42)       -179.9245         calculate D2E/DX2 analytically  !
 ! D117  D(21,23,27,28)          0.1155         calculate D2E/DX2 analytically  !
 ! D118  D(21,23,27,45)        179.9796         calculate D2E/DX2 analytically  !
 ! D119  D(41,23,27,28)       -179.6453         calculate D2E/DX2 analytically  !
 ! D120  D(41,23,27,45)          0.2188         calculate D2E/DX2 analytically  !
 ! D121  D(22,24,28,27)         -0.2374         calculate D2E/DX2 analytically  !
 ! D122  D(22,24,28,46)       -179.9548         calculate D2E/DX2 analytically  !
 ! D123  D(42,24,28,27)        179.5458         calculate D2E/DX2 analytically  !
 ! D124  D(42,24,28,46)         -0.1716         calculate D2E/DX2 analytically  !
 ! D125  D(20,25,26,18)         -0.0223         calculate D2E/DX2 analytically  !
 ! D126  D(20,25,26,44)        179.9961         calculate D2E/DX2 analytically  !
 ! D127  D(43,25,26,18)        179.9709         calculate D2E/DX2 analytically  !
 ! D128  D(43,25,26,44)         -0.0107         calculate D2E/DX2 analytically  !
 ! D129  D(23,27,28,24)          0.2545         calculate D2E/DX2 analytically  !
 ! D130  D(23,27,28,46)        179.9711         calculate D2E/DX2 analytically  !
 ! D131  D(45,27,28,24)       -179.6095         calculate D2E/DX2 analytically  !
 ! D132  D(45,27,28,46)          0.1071         calculate D2E/DX2 analytically  !
 --------------------------------------------------------------------------------
 Trust Radius=3.00D-01 FncErr=1.00D-07 GrdErr=1.00D-06
 Number of steps in this run=    276 maximum allowed number of steps=    276.
 GradGradGradGradGradGradGradGradGradGradGradGradGradGradGradGradGradGrad

 Leave Link  103 at Sat Apr 25 19:38:17 2015, MaxMem=   524288000 cpu:         0.1
 (Enter /opt/g09/l202.exe)
                          Input orientation:                          
 ---------------------------------------------------------------------
 Center     Atomic      Atomic             Coordinates (Angstroms)
 Number     Number       Type             X           Y           Z
 ---------------------------------------------------------------------
      1          6           0        3.522330    6.174360    1.960140
      2          6           0        3.193080    6.960680    0.828790
      3          6           0        2.542170    5.937860    2.966180
      4          6           0        4.838500    5.620730    2.104300
      5          6           0        1.931660    7.505420    0.684430
      6          6           0        0.958330    7.276840    1.677260
      7          6           0        1.259020    6.511210    2.790630
      8          6           0        2.902400    5.119500    4.118870
      9          6           0        5.199400    4.864890    3.183120
     10          6           0        4.224290    4.585820    4.221770
     11          6           0        6.591190    4.315450    3.267130
     12          6           0        4.557040    3.774690    5.335940
     13          6           0        1.979280    4.819170    5.150410
     14          6           0        2.331340    4.031040    6.231320
     15          6           0        3.631690    3.500790    6.325120
     16          6           0        8.564040    1.539870    1.729370
     17          6           0        8.251400    2.664040    2.532590
     18          6           0        9.824500    0.974840    1.757100
     19          6           0        6.936220    3.237620    2.502520
     20          6           0        9.247510    3.224670    3.382450
     21          6           0        7.582660    4.927120    4.133390
     22          6           0        8.904150    4.386190    4.195520
     23          6           0        7.266300    6.068850    4.912090
     24          6           0        9.843450    5.015410    5.048870
     25          6           0       10.529280    2.622130    3.390110
     26          6           0       10.813610    1.523640    2.597240
     27          6           0        8.207240    6.658920    5.734420
     28          6           0        9.507280    6.124270    5.804420
     29          1           0        3.954850    7.130140    0.072230
     30          1           0        5.570670    5.828110    1.327880
     31          1           0        1.690300    8.106820   -0.186720
     32          1           0       -0.034500    7.703480    1.570160
     33          1           0        0.487330    6.355180    3.536010
     34          1           0        5.558290    3.362200    5.403200
     35          1           0        0.968700    5.208320    5.099730
     36          1           0        1.599860    3.818730    7.005330
     37          1           0        3.906880    2.876880    7.170050
     38          1           0        7.790250    1.126240    1.087860
     39          1           0       10.053070    0.113110    1.137430
     40          1           0        6.191800    2.781500    1.854670
     41          1           0        6.265190    6.482850    4.852250
     42          1           0       10.854040    4.628800    5.116330
     43          1           0       11.312870    3.019350    4.025420
     44          1           0       11.805800    1.083150    2.624430
     45          1           0        7.944420    7.533090    6.322360
     46          1           0       10.250920    6.584040    6.448500
 ---------------------------------------------------------------------
                    Distance matrix (angstroms):
                    1          2          3          4          5
     1  C    0.000000
     2  C    1.416565   0.000000
     3  C    1.424346   2.457291   0.000000
     4  C    1.435128   2.475843   2.473164   0.000000
     5  C    2.435033   1.381579   2.834846   3.744036   0.000000
     6  C    2.805277   2.411217   2.441870   4.240375   1.409018
     7  C    2.434287   2.791313   1.416341   3.751890   2.424248
     8  C    2.481362   3.781410   1.458826   2.838698   4.293056
     9  C    2.454171   3.736379   2.873882   1.365795   4.888146
    10  C    2.851522   4.267982   2.496807   2.435564   5.127669
    11  C    3.818595   4.948727   4.372339   2.475450   6.209466
    12  C    4.269083   5.685536   3.788769   3.732369   6.515175
    13  C    3.794123   4.973507   2.517771   4.253989   5.211831
    14  C    4.924963   6.205861   3.787024   5.083823   6.557366
    15  C    5.119862   6.509444   4.290553   4.875024   7.123521
    16  C    6.852050   7.683973   7.558765   5.538379   8.981545
    17  C    5.917275   6.852055   6.595544   4.535784   8.172746
    18  C    8.172734   8.981524   8.895267   6.823858  10.300292
    19  C    4.535776   5.538379   5.178219   3.199722   6.823869
    20  C    6.595553   7.558775   7.245431   5.178237   8.895268
    21  C    4.771258   5.858682   5.271671   3.482630   7.104700
    22  C    6.095774   7.111905   6.662863   4.735694   8.406721
    23  C    4.768905   5.836079   5.110883   3.738811   6.956668
    24  C    7.130216   8.112988   7.648346   5.838358   9.372561
    25  C    7.985017   8.899618   8.658389   6.559717  10.251161
    26  C    8.671670   9.526872   9.382866   7.261617  10.877940
    27  C    6.035592   7.021258   6.346345   5.060041   8.099498
    28  C    7.113412   8.082425   7.523504   5.978457   9.247264
    29  H    2.159813   1.086919   3.433969   2.681131   2.146840
    30  H    2.171483   2.680437   3.444980   1.087156   4.058299
    31  H    3.420489   2.145517   3.920567   4.619586   1.085743
    32  H    3.891186   3.393914   3.421332   5.326282   2.165532
    33  H    3.424513   3.875146   2.172839   4.639169   3.397153
    34  H    4.889585   6.282396   4.655112   4.062240   7.251587
    35  H    4.160683   5.124408   2.749559   4.911012   5.069402
    36  H    5.890571   7.110545   4.657617   6.144598   7.324995
    37  H    6.177735   7.576181   5.376296   5.835962   8.209028
    38  H    6.667798   7.432481   7.363567   5.472332   8.670627
    39  H    8.947970   9.697625   9.679135   7.645944  10.991304
    40  H    4.318413   5.245026   4.951551   3.155149   6.467896
    41  H    3.997843   5.084723   4.208937   3.214020   6.098840
    42  H    8.130453   9.083555   8.684697   6.800218  10.369452
    43  H    8.655171   9.575151   9.304024   7.237081  10.922186
    44  H    9.745644  10.580578  10.464217   8.330873  11.937663
    45  H    6.358458   7.285753   6.556905   5.576369   8.242591
    46  H    8.098589   9.029734   8.483450   7.006735  10.162851
                    6          7          8          9         10
     6  C    0.000000
     7  C    1.384268   0.000000
     8  C    3.794072   2.530173   0.000000
     9  C    5.106054   4.288474   2.493324   0.000000
    10  C    4.937876   3.814199   1.429264   1.451728   0.000000
    11  C    6.559469   5.786229   3.870288   1.498673   2.566448
    12  C    6.213027   4.984384   2.455119   2.497158   1.417755
    13  C    4.375529   2.991711   1.416483   3.773790   2.440675
    14  C    5.758458   4.374867   2.444033   4.267622   2.815907
    15  C    6.558049   5.213906   2.831894   3.767048   2.439784
    16  C    9.526928   8.899652   7.111795   4.948732   5.858609
    17  C    8.671700   7.985028   6.095684   3.818591   4.771182
    18  C   10.877985  10.251196   8.406642   6.209474   7.104655
    19  C    7.261647   6.559726   4.735585   2.475433   3.482532
    20  C    9.382871   8.658381   6.662816   4.372328   5.271615
    21  C    7.445502   6.655882   4.684235   2.566479   3.376825
    22  C    8.822332   8.058377   6.046869   3.870307   4.684189
    23  C    7.191234   6.386211   4.535867   2.951429   3.453946
    24  C    9.768683   9.001639   7.003850   5.007083   5.695928
    25  C   10.779762  10.070851   8.058365   5.786228   6.655872
    26  C   11.448678  10.779770   8.822291   6.559463   7.445481
    27  C    8.330010   7.547548   5.755097   4.332987   4.738116
    28  C    9.562762   8.790133   6.890216   5.197603   5.725521
    29  H    3.402466   3.878179   4.639571   4.044490   4.874920
    30  H    4.847119   4.603975   3.925738   2.123099   3.425000
    31  H    2.167733   3.405376   5.378789   5.846342   6.184928
    32  H    1.085911   2.141086   4.668860   6.168707   5.906618
    33  H    2.127498   1.084178   2.774742   4.954705   4.191154
    34  H    7.096948   5.935108   3.433855   2.704743   2.161615
    35  H    3.999023   2.667162   2.170062   4.657270   3.428875
    36  H    6.384232   5.012915   3.423487   5.353544   3.901829
    37  H    7.630487   6.276849   3.917655   4.638793   3.422511
    38  H    9.211536   8.634483   7.001730   5.008006   5.874194
    39  H   11.589855  11.000185   9.224153   7.093826   7.968247
    40  H    6.901360   6.254524   4.627418   2.662734   3.567889
    41  H    6.234881   5.414131   3.702016   2.557283   2.856834
    42  H   10.805757  10.050709   8.028966   5.980635   6.689968
    43  H   11.439256  10.714369   8.669220   6.441273   7.262255
    44  H   12.527032  11.862800   9.889186   7.632707   8.502910
    45  H    8.393335   7.629674   6.008556   4.950682   5.190207
    46  H   10.468855   9.707707   7.846834   6.255880   6.728408
                   11         12         13         14         15
    11  C    0.000000
    12  C    2.951298   0.000000
    13  C    5.007014   2.787509   0.000000
    14  C    5.197464   2.412708   1.383279   0.000000
    15  C    4.332853   1.381945   2.418373   1.407435   0.000000
    16  C    3.736400   5.835908   8.112730   8.082081   7.020983
    17  C    2.454180   4.768712   7.130011   7.113115   6.035326
    18  C    4.888165   6.956536   9.372348   9.246970   8.099267
    19  C    1.365793   3.738611   5.838140   5.978159   5.059787
    20  C    2.873871   5.110690   7.648221   7.523277   6.346100
    21  C    1.451744   3.453780   5.695950   5.725437   4.737960
    22  C    2.493330   4.535621   7.003793   6.890025   5.754821
    23  C    2.497214   3.575319   5.437929   5.499715   4.669259
    24  C    3.773823   5.437640   7.867273   7.668049   6.519881
    25  C    4.288474   6.386102   9.001563   8.789978   7.547389
    26  C    5.106054   7.191131   9.768551   9.562557   8.329837
    27  C    3.767093   4.669211   6.520217   6.455917   5.590918
    28  C    4.267699   5.499534   7.668233   7.487187   6.455721
    29  H    5.008009   6.271230   5.918731   7.083403   7.237074
    30  H    2.662760   4.616116   5.341140   6.145441   5.843669
    31  H    7.093820   7.581908   6.275118   7.629820   8.209054
    32  H    7.632707   7.120304   5.019237   6.388304   7.328929
    33  H    6.441266   5.144047   2.681703   4.008328   5.080716
    34  H    2.557022   1.084976   3.872464   3.397990   2.140311
    35  H    5.980638   3.871340   1.084102   2.126799   3.392456
    36  H    6.255737   3.396133   2.141394   1.085924   2.166127
    37  H    4.950534   2.143066   3.401041   2.166939   1.085772
    38  H    4.044505   5.959372   7.994337   8.043180   7.096549
    39  H    5.846358   7.825663  10.170403  10.046044   8.923151
    40  H    2.123101   3.972167   5.723576   5.968213   5.201583
    41  H    2.704904   3.238188   4.607142   4.836154   4.242328
    42  H    4.657212   6.358454   8.876867   8.616086   7.409178
    43  H    4.954709   6.923095   9.571878   9.303623   8.032492
    44  H    6.168710   8.193973  10.811980  10.557704   9.292802
    45  H    4.638843   5.154895   6.657456   6.616594   5.904159
    46  H    5.353619   6.445968   8.556859   8.323745   7.303140
                   16         17         18         19         20
    16  C    0.000000
    17  C    1.416568   0.000000
    18  C    1.381589   2.435041   0.000000
    19  C    2.475866   1.435129   3.744060   0.000000
    20  C    2.457307   1.424361   2.834857   2.473157   0.000000
    21  C    4.268007   2.851544   5.127682   2.435576   2.496792
    22  C    3.781416   2.481374   4.293046   2.838699   1.458803
    23  C    5.685551   4.269095   6.515158   3.732405   3.788714
    24  C    4.973464   3.794105   5.211748   4.253989   2.517707
    25  C    2.791328   2.434304   2.424253   3.751896   1.416350
    26  C    2.411229   2.805283   1.409026   4.240384   2.441870
    27  C    6.509409   5.119837   7.123438   4.875035   4.290454
    28  C    6.205841   4.924967   6.557290   5.083861   3.786964
    29  H    7.432487   6.667815   8.670600   5.472348   7.363593
    30  H    5.245042   4.318446   6.467884   3.155177   4.951597
    31  H    9.697656   8.947991  10.991305   7.645966   9.679142
    32  H   10.580658   9.745684  11.937731   8.330915  10.464217
    33  H    9.575197   8.655180  10.922240   7.237089   9.304001
    34  H    5.084530   3.997583   6.098695   3.213745   4.208645
    35  H    9.083284   8.130270  10.369220   6.800033   8.684619
    36  H    9.029328   8.098253  10.162496   7.006406   8.483202
    37  H    7.285447   6.358159   8.242330   5.576098   6.556615
    38  H    1.086911   2.159799   2.146853   2.681148   3.433971
    39  H    2.145518   3.420487   1.085732   4.619609   3.920567
    40  H    2.680460   2.171480   4.058331   1.087160   3.444978
    41  H    6.282527   4.889700   7.251677   4.062392   4.655135
    42  H    5.124167   4.160496   5.069103   4.910875   2.749338
    43  H    3.875148   3.424527   3.397137   4.639174   2.172850
    44  H    3.393926   3.891196   2.165535   5.326294   3.421337
    45  H    7.576158   6.177721   8.208955   5.835984   5.376207
    46  H    7.110514   5.890571   7.324902   6.144634   4.657560
                   21         22         23         24         25
    21  C    0.000000
    22  C    1.429266   0.000000
    23  C    1.417746   2.455070   0.000000
    24  C    2.440711   1.416478   2.787498   0.000000
    25  C    3.814186   2.530146   4.984309   2.991594   0.000000
    26  C    4.937861   3.794039   6.212960   4.375404   1.384257
    27  C    2.439780   2.831819   1.381947   2.418323   5.213764
    28  C    2.815967   2.444023   2.412740   1.383270   4.374741
    29  H    5.874293   7.001882   5.959554   7.994663   8.634443
    30  H    3.568021   4.627589   3.972364   5.723888   6.254511
    31  H    7.968296   9.224248   7.825788  10.170648  11.000141
    32  H    8.502908   9.889206   8.194034  10.812078  11.862790
    33  H    7.262226   8.669183   6.923151   9.571871  10.714369
    34  H    2.856478   3.701598   3.237969   4.606653   5.413961
    35  H    6.690094   8.029001   6.358890   8.876992  10.050665
    36  H    6.728333   7.846636   6.446180   8.556667   9.707534
    37  H    5.190004   6.008207   5.154877   6.656995   7.629484
    38  H    4.874940   4.639569   6.271256   5.918689   3.878186
    39  H    6.184933   5.378768   7.581885   6.275018   3.405367
    40  H    3.425017   3.925742   4.616171   5.341144   4.603988
    41  H    2.161662   3.433859   1.084988   3.872465   5.935105
    42  H    3.428862   2.169982   3.871348   1.084117   2.666839
    43  H    4.191147   2.774728   5.143964   2.681585   1.084166
    44  H    5.906605   4.668830   7.120228   5.019103   2.141081
    45  H    3.422505   3.917590   2.143060   3.401000   6.276712
    46  H    3.901888   3.423485   3.396164   2.141400   5.012780
                   26         27         28         29         30
    26  C    0.000000
    27  C    6.557908   0.000000
    28  C    5.758324   1.407428   0.000000
    29  H    9.211466   7.096849   8.043585   0.000000
    30  H    6.901316   5.201859   5.968586   2.425451   0.000000
    31  H   11.589801   8.923386  10.046364   2.479747   4.748032
    32  H   12.527043   9.292924  10.557861   4.299701   5.915542
    33  H   11.439280   8.032576   9.303682   4.962059   5.567224
    34  H    6.234750   4.242052   4.835755   6.722175   4.763308
    35  H   10.805627   7.409692   8.616432   6.155180   5.982401
    36  H   10.468614   7.303380   8.323761   8.036124   7.213763
    37  H    8.393138   5.904063   6.616265   8.274755   6.753437
    38  H    3.402479   7.237054   7.083391   7.196431   5.204971
    39  H    2.167732   8.208961   7.629727   9.357438   7.265632
    40  H    4.847138   5.843701   6.145490   5.204970   3.153592
    41  H    7.096968   2.140276   3.397993   5.348387   3.651332
    42  H    3.998683   3.392488   2.126890   8.904969   6.610953
    43  H    2.127465   5.080560   4.008182   9.309499   6.938207
    44  H    1.085915   7.328771   6.388147  10.233144   7.941822
    45  H    7.630351   1.085781   2.166926   7.425844   5.786750
    46  H    6.384080   2.166136   1.085923   8.977502   6.978318
                   31         32         33         34         35
    31  H    0.000000
    32  H    2.494844   0.000000
    33  H    4.286502   2.440243   0.000000
    34  H    8.289751   8.050976   6.177294   0.000000
    35  H    6.071949   4.437353   1.998055   4.956268   0.000000
    36  H    8.373857   6.877753   4.439311   4.294695   2.441441
    37  H    9.294491   8.377906   6.082610   2.466668   4.284243
    38  H    9.357481  10.233250   9.309559   5.348207   8.904607
    39  H   11.644256  12.631708  11.671333   6.996887  11.143912
    40  H    7.265660   7.941892   6.938233   3.651111   6.610646
    41  H    6.997008   7.207506   5.927264   3.246800   5.453300
    42  H   11.144195  11.857035  10.627628   5.452663   9.902326
    43  H   11.671261  12.519272  11.338413   5.927142  10.627680
    44  H   12.631621  13.606357  12.519307   7.207428  11.856934
    45  H    9.044960   9.288466   8.047323   4.892320   7.453861
    46  H   10.937514  11.438584  10.191303   5.787373   9.480052
                   36         37         38         39         40
    36  H    0.000000
    37  H    2.497310   0.000000
    38  H    8.977020   7.425519   0.000000
    39  H   10.937122   9.044699   2.479767   0.000000
    40  H    6.977898   5.786469   2.425474   4.748067   0.000000
    41  H    5.787797   4.892529   6.722329   8.289844   4.763493
    42  H    9.479683   7.453189   6.154942   6.071627   5.982259
    43  H   10.191243   8.047216   4.962054   4.286469   5.567233
    44  H   11.438396   9.288330   4.299715   2.494836   5.915566
    45  H    7.383519   6.220981   8.274750   9.294407   6.753483
    46  H    9.099332   7.383124   8.036102   8.373741   7.213809
                   41         42         43         44         45
    41  H    0.000000
    42  H    4.956287   0.000000
    43  H    6.177261   1.997733   0.000000
    44  H    8.050981   4.437009   2.440210   0.000000
    45  H    2.466585   4.284308   6.082453   8.377748   0.000000
    46  H    4.294682   2.441597   4.439152   6.877569   2.497308
                   46
    46  H    0.000000
 Symmetry turned off by external request.
 Stoichiometry    C28H18
 Framework group  C1[X(C28H18)]
 Deg. of freedom   132
 Full point group                 C1      NOp   1
 Rotational constants (GHZ):      0.3176092      0.1094133      0.1026517
 Leave Link  202 at Sat Apr 25 19:38:17 2015, MaxMem=   524288000 cpu:         0.0
 (Enter /opt/g09/l301.exe)
 Standard basis: 6-311+G(d,p) (5D, 7F)
 Ernie: Thresh=  0.10000D-02 Tol=  0.10000D-05 Strict=F.
 AO basis set in the form of general basis input (Overlap normalization):
      1 0
 S   6 1.00       0.000000000000
      0.4563240000D+04  0.1966650249D-02
      0.6820240000D+03  0.1523060193D-01
      0.1549730000D+03  0.7612690966D-01
      0.4445530000D+02  0.2608010331D+00
      0.1302900000D+02  0.6164620782D+00
      0.1827730000D+01  0.2210060280D+00
 SP   3 1.00       0.000000000000
      0.2096420000D+02  0.1146600807D+00  0.4024869267D-01
      0.4803310000D+01  0.9199996477D+00  0.2375939567D+00
      0.1459330000D+01 -0.3030682134D-02  0.8158538515D+00
 SP   1 1.00       0.000000000000
      0.4834560000D+00  0.1000000000D+01  0.1000000000D+01
 SP   1 1.00       0.000000000000
      0.1455850000D+00  0.1000000000D+01  0.1000000000D+01
 SP   1 1.00       0.000000000000
      0.4380000000D-01  0.1000000000D+01  0.1000000000D+01
 D   1 1.00       0.000000000000
      0.6260000000D+00  0.1000000000D+01
 ****
      2 0
 S   6 1.00       0.000000000000
      0.4563240000D+04  0.1966650249D-02
      0.6820240000D+03  0.1523060193D-01
      0.1549730000D+03  0.7612690966D-01
      0.4445530000D+02  0.2608010331D+00
      0.1302900000D+02  0.6164620782D+00
      0.1827730000D+01  0.2210060280D+00
 SP   3 1.00       0.000000000000
      0.2096420000D+02  0.1146600807D+00  0.4024869267D-01
      0.4803310000D+01  0.9199996477D+00  0.2375939567D+00
      0.1459330000D+01 -0.3030682134D-02  0.8158538515D+00
 SP   1 1.00       0.000000000000
      0.4834560000D+00  0.1000000000D+01  0.1000000000D+01
 SP   1 1.00       0.000000000000
      0.1455850000D+00  0.1000000000D+01  0.1000000000D+01
 SP   1 1.00       0.000000000000
      0.4380000000D-01  0.1000000000D+01  0.1000000000D+01
 D   1 1.00       0.000000000000
      0.6260000000D+00  0.1000000000D+01
 ****
      3 0
 S   6 1.00       0.000000000000
      0.4563240000D+04  0.1966650249D-02
      0.6820240000D+03  0.1523060193D-01
      0.1549730000D+03  0.7612690966D-01
      0.4445530000D+02  0.2608010331D+00
      0.1302900000D+02  0.6164620782D+00
      0.1827730000D+01  0.2210060280D+00
 SP   3 1.00       0.000000000000
      0.2096420000D+02  0.1146600807D+00  0.4024869267D-01
      0.4803310000D+01  0.9199996477D+00  0.2375939567D+00
      0.1459330000D+01 -0.3030682134D-02  0.8158538515D+00
 SP   1 1.00       0.000000000000
      0.4834560000D+00  0.1000000000D+01  0.1000000000D+01
 SP   1 1.00       0.000000000000
      0.1455850000D+00  0.1000000000D+01  0.1000000000D+01
 SP   1 1.00       0.000000000000
      0.4380000000D-01  0.1000000000D+01  0.1000000000D+01
 D   1 1.00       0.000000000000
      0.6260000000D+00  0.1000000000D+01
 ****
      4 0
 S   6 1.00       0.000000000000
      0.4563240000D+04  0.1966650249D-02
      0.6820240000D+03  0.1523060193D-01
      0.1549730000D+03  0.7612690966D-01
      0.4445530000D+02  0.2608010331D+00
      0.1302900000D+02  0.6164620782D+00
      0.1827730000D+01  0.2210060280D+00
 SP   3 1.00       0.000000000000
      0.2096420000D+02  0.1146600807D+00  0.4024869267D-01
      0.4803310000D+01  0.9199996477D+00  0.2375939567D+00
      0.1459330000D+01 -0.3030682134D-02  0.8158538515D+00
 SP   1 1.00       0.000000000000
      0.4834560000D+00  0.1000000000D+01  0.1000000000D+01
 SP   1 1.00       0.000000000000
      0.1455850000D+00  0.1000000000D+01  0.1000000000D+01
 SP   1 1.00       0.000000000000
      0.4380000000D-01  0.1000000000D+01  0.1000000000D+01
 D   1 1.00       0.000000000000
      0.6260000000D+00  0.1000000000D+01
 ****
      5 0
 S   6 1.00       0.000000000000
      0.4563240000D+04  0.1966650249D-02
      0.6820240000D+03  0.1523060193D-01
      0.1549730000D+03  0.7612690966D-01
      0.4445530000D+02  0.2608010331D+00
      0.1302900000D+02  0.6164620782D+00
      0.1827730000D+01  0.2210060280D+00
 SP   3 1.00       0.000000000000
      0.2096420000D+02  0.1146600807D+00  0.4024869267D-01
      0.4803310000D+01  0.9199996477D+00  0.2375939567D+00
      0.1459330000D+01 -0.3030682134D-02  0.8158538515D+00
 SP   1 1.00       0.000000000000
      0.4834560000D+00  0.1000000000D+01  0.1000000000D+01
 SP   1 1.00       0.000000000000
      0.1455850000D+00  0.1000000000D+01  0.1000000000D+01
 SP   1 1.00       0.000000000000
      0.4380000000D-01  0.1000000000D+01  0.1000000000D+01
 D   1 1.00       0.000000000000
      0.6260000000D+00  0.1000000000D+01
 ****
      6 0
 S   6 1.00       0.000000000000
      0.4563240000D+04  0.1966650249D-02
      0.6820240000D+03  0.1523060193D-01
      0.1549730000D+03  0.7612690966D-01
      0.4445530000D+02  0.2608010331D+00
      0.1302900000D+02  0.6164620782D+00
      0.1827730000D+01  0.2210060280D+00
 SP   3 1.00       0.000000000000
      0.2096420000D+02  0.1146600807D+00  0.4024869267D-01
      0.4803310000D+01  0.9199996477D+00  0.2375939567D+00
      0.1459330000D+01 -0.3030682134D-02  0.8158538515D+00
 SP   1 1.00       0.000000000000
      0.4834560000D+00  0.1000000000D+01  0.1000000000D+01
 SP   1 1.00       0.000000000000
      0.1455850000D+00  0.1000000000D+01  0.1000000000D+01
 SP   1 1.00       0.000000000000
      0.4380000000D-01  0.1000000000D+01  0.1000000000D+01
 D   1 1.00       0.000000000000
      0.6260000000D+00  0.1000000000D+01
 ****
      7 0
 S   6 1.00       0.000000000000
      0.4563240000D+04  0.1966650249D-02
      0.6820240000D+03  0.1523060193D-01
      0.1549730000D+03  0.7612690966D-01
      0.4445530000D+02  0.2608010331D+00
      0.1302900000D+02  0.6164620782D+00
      0.1827730000D+01  0.2210060280D+00
 SP   3 1.00       0.000000000000
      0.2096420000D+02  0.1146600807D+00  0.4024869267D-01
      0.4803310000D+01  0.9199996477D+00  0.2375939567D+00
      0.1459330000D+01 -0.3030682134D-02  0.8158538515D+00
 SP   1 1.00       0.000000000000
      0.4834560000D+00  0.1000000000D+01  0.1000000000D+01
 SP   1 1.00       0.000000000000
      0.1455850000D+00  0.1000000000D+01  0.1000000000D+01
 SP   1 1.00       0.000000000000
      0.4380000000D-01  0.1000000000D+01  0.1000000000D+01
 D   1 1.00       0.000000000000
      0.6260000000D+00  0.1000000000D+01
 ****
      8 0
 S   6 1.00       0.000000000000
      0.4563240000D+04  0.1966650249D-02
      0.6820240000D+03  0.1523060193D-01
      0.1549730000D+03  0.7612690966D-01
      0.4445530000D+02  0.2608010331D+00
      0.1302900000D+02  0.6164620782D+00
      0.1827730000D+01  0.2210060280D+00
 SP   3 1.00       0.000000000000
      0.2096420000D+02  0.1146600807D+00  0.4024869267D-01
      0.4803310000D+01  0.9199996477D+00  0.2375939567D+00
      0.1459330000D+01 -0.3030682134D-02  0.8158538515D+00
 SP   1 1.00       0.000000000000
      0.4834560000D+00  0.1000000000D+01  0.1000000000D+01
 SP   1 1.00       0.000000000000
      0.1455850000D+00  0.1000000000D+01  0.1000000000D+01
 SP   1 1.00       0.000000000000
      0.4380000000D-01  0.1000000000D+01  0.1000000000D+01
 D   1 1.00       0.000000000000
      0.6260000000D+00  0.1000000000D+01
 ****
      9 0
 S   6 1.00       0.000000000000
      0.4563240000D+04  0.1966650249D-02
      0.6820240000D+03  0.1523060193D-01
      0.1549730000D+03  0.7612690966D-01
      0.4445530000D+02  0.2608010331D+00
      0.1302900000D+02  0.6164620782D+00
      0.1827730000D+01  0.2210060280D+00
 SP   3 1.00       0.000000000000
      0.2096420000D+02  0.1146600807D+00  0.4024869267D-01
      0.4803310000D+01  0.9199996477D+00  0.2375939567D+00
      0.1459330000D+01 -0.3030682134D-02  0.8158538515D+00
 SP   1 1.00       0.000000000000
      0.4834560000D+00  0.1000000000D+01  0.1000000000D+01
 SP   1 1.00       0.000000000000
      0.1455850000D+00  0.1000000000D+01  0.1000000000D+01
 SP   1 1.00       0.000000000000
      0.4380000000D-01  0.1000000000D+01  0.1000000000D+01
 D   1 1.00       0.000000000000
      0.6260000000D+00  0.1000000000D+01
 ****
     10 0
 S   6 1.00       0.000000000000
      0.4563240000D+04  0.1966650249D-02
      0.6820240000D+03  0.1523060193D-01
      0.1549730000D+03  0.7612690966D-01
      0.4445530000D+02  0.2608010331D+00
      0.1302900000D+02  0.6164620782D+00
      0.1827730000D+01  0.2210060280D+00
 SP   3 1.00       0.000000000000
      0.2096420000D+02  0.1146600807D+00  0.4024869267D-01
      0.4803310000D+01  0.9199996477D+00  0.2375939567D+00
      0.1459330000D+01 -0.3030682134D-02  0.8158538515D+00
 SP   1 1.00       0.000000000000
      0.4834560000D+00  0.1000000000D+01  0.1000000000D+01
 SP   1 1.00       0.000000000000
      0.1455850000D+00  0.1000000000D+01  0.1000000000D+01
 SP   1 1.00       0.000000000000
      0.4380000000D-01  0.1000000000D+01  0.1000000000D+01
 D   1 1.00       0.000000000000
      0.6260000000D+00  0.1000000000D+01
 ****
     11 0
 S   6 1.00       0.000000000000
      0.4563240000D+04  0.1966650249D-02
      0.6820240000D+03  0.1523060193D-01
      0.1549730000D+03  0.7612690966D-01
      0.4445530000D+02  0.2608010331D+00
      0.1302900000D+02  0.6164620782D+00
      0.1827730000D+01  0.2210060280D+00
 SP   3 1.00       0.000000000000
      0.2096420000D+02  0.1146600807D+00  0.4024869267D-01
      0.4803310000D+01  0.9199996477D+00  0.2375939567D+00
      0.1459330000D+01 -0.3030682134D-02  0.8158538515D+00
 SP   1 1.00       0.000000000000
      0.4834560000D+00  0.1000000000D+01  0.1000000000D+01
 SP   1 1.00       0.000000000000
      0.1455850000D+00  0.1000000000D+01  0.1000000000D+01
 SP   1 1.00       0.000000000000
      0.4380000000D-01  0.1000000000D+01  0.1000000000D+01
 D   1 1.00       0.000000000000
      0.6260000000D+00  0.1000000000D+01
 ****
     12 0
 S   6 1.00       0.000000000000
      0.4563240000D+04  0.1966650249D-02
      0.6820240000D+03  0.1523060193D-01
      0.1549730000D+03  0.7612690966D-01
      0.4445530000D+02  0.2608010331D+00
      0.1302900000D+02  0.6164620782D+00
      0.1827730000D+01  0.2210060280D+00
 SP   3 1.00       0.000000000000
      0.2096420000D+02  0.1146600807D+00  0.4024869267D-01
      0.4803310000D+01  0.9199996477D+00  0.2375939567D+00
      0.1459330000D+01 -0.3030682134D-02  0.8158538515D+00
 SP   1 1.00       0.000000000000
      0.4834560000D+00  0.1000000000D+01  0.1000000000D+01
 SP   1 1.00       0.000000000000
      0.1455850000D+00  0.1000000000D+01  0.1000000000D+01
 SP   1 1.00       0.000000000000
      0.4380000000D-01  0.1000000000D+01  0.1000000000D+01
 D   1 1.00       0.000000000000
      0.6260000000D+00  0.1000000000D+01
 ****
     13 0
 S   6 1.00       0.000000000000
      0.4563240000D+04  0.1966650249D-02
      0.6820240000D+03  0.1523060193D-01
      0.1549730000D+03  0.7612690966D-01
      0.4445530000D+02  0.2608010331D+00
      0.1302900000D+02  0.6164620782D+00
      0.1827730000D+01  0.2210060280D+00
 SP   3 1.00       0.000000000000
      0.2096420000D+02  0.1146600807D+00  0.4024869267D-01
      0.4803310000D+01  0.9199996477D+00  0.2375939567D+00
      0.1459330000D+01 -0.3030682134D-02  0.8158538515D+00
 SP   1 1.00       0.000000000000
      0.4834560000D+00  0.1000000000D+01  0.1000000000D+01
 SP   1 1.00       0.000000000000
      0.1455850000D+00  0.1000000000D+01  0.1000000000D+01
 SP   1 1.00       0.000000000000
      0.4380000000D-01  0.1000000000D+01  0.1000000000D+01
 D   1 1.00       0.000000000000
      0.6260000000D+00  0.1000000000D+01
 ****
     14 0
 S   6 1.00       0.000000000000
      0.4563240000D+04  0.1966650249D-02
      0.6820240000D+03  0.1523060193D-01
      0.1549730000D+03  0.7612690966D-01
      0.4445530000D+02  0.2608010331D+00
      0.1302900000D+02  0.6164620782D+00
      0.1827730000D+01  0.2210060280D+00
 SP   3 1.00       0.000000000000
      0.2096420000D+02  0.1146600807D+00  0.4024869267D-01
      0.4803310000D+01  0.9199996477D+00  0.2375939567D+00
      0.1459330000D+01 -0.3030682134D-02  0.8158538515D+00
 SP   1 1.00       0.000000000000
      0.4834560000D+00  0.1000000000D+01  0.1000000000D+01
 SP   1 1.00       0.000000000000
      0.1455850000D+00  0.1000000000D+01  0.1000000000D+01
 SP   1 1.00       0.000000000000
      0.4380000000D-01  0.1000000000D+01  0.1000000000D+01
 D   1 1.00       0.000000000000
      0.6260000000D+00  0.1000000000D+01
 ****
     15 0
 S   6 1.00       0.000000000000
      0.4563240000D+04  0.1966650249D-02
      0.6820240000D+03  0.1523060193D-01
      0.1549730000D+03  0.7612690966D-01
      0.4445530000D+02  0.2608010331D+00
      0.1302900000D+02  0.6164620782D+00
      0.1827730000D+01  0.2210060280D+00
 SP   3 1.00       0.000000000000
      0.2096420000D+02  0.1146600807D+00  0.4024869267D-01
      0.4803310000D+01  0.9199996477D+00  0.2375939567D+00
      0.1459330000D+01 -0.3030682134D-02  0.8158538515D+00
 SP   1 1.00       0.000000000000
      0.4834560000D+00  0.1000000000D+01  0.1000000000D+01
 SP   1 1.00       0.000000000000
      0.1455850000D+00  0.1000000000D+01  0.1000000000D+01
 SP   1 1.00       0.000000000000
      0.4380000000D-01  0.1000000000D+01  0.1000000000D+01
 D   1 1.00       0.000000000000
      0.6260000000D+00  0.1000000000D+01
 ****
     16 0
 S   6 1.00       0.000000000000
      0.4563240000D+04  0.1966650249D-02
      0.6820240000D+03  0.1523060193D-01
      0.1549730000D+03  0.7612690966D-01
      0.4445530000D+02  0.2608010331D+00
      0.1302900000D+02  0.6164620782D+00
      0.1827730000D+01  0.2210060280D+00
 SP   3 1.00       0.000000000000
      0.2096420000D+02  0.1146600807D+00  0.4024869267D-01
      0.4803310000D+01  0.9199996477D+00  0.2375939567D+00
      0.1459330000D+01 -0.3030682134D-02  0.8158538515D+00
 SP   1 1.00       0.000000000000
      0.4834560000D+00  0.1000000000D+01  0.1000000000D+01
 SP   1 1.00       0.000000000000
      0.1455850000D+00  0.1000000000D+01  0.1000000000D+01
 SP   1 1.00       0.000000000000
      0.4380000000D-01  0.1000000000D+01  0.1000000000D+01
 D   1 1.00       0.000000000000
      0.6260000000D+00  0.1000000000D+01
 ****
     17 0
 S   6 1.00       0.000000000000
      0.4563240000D+04  0.1966650249D-02
      0.6820240000D+03  0.1523060193D-01
      0.1549730000D+03  0.7612690966D-01
      0.4445530000D+02  0.2608010331D+00
      0.1302900000D+02  0.6164620782D+00
      0.1827730000D+01  0.2210060280D+00
 SP   3 1.00       0.000000000000
      0.2096420000D+02  0.1146600807D+00  0.4024869267D-01
      0.4803310000D+01  0.9199996477D+00  0.2375939567D+00
      0.1459330000D+01 -0.3030682134D-02  0.8158538515D+00
 SP   1 1.00       0.000000000000
      0.4834560000D+00  0.1000000000D+01  0.1000000000D+01
 SP   1 1.00       0.000000000000
      0.1455850000D+00  0.1000000000D+01  0.1000000000D+01
 SP   1 1.00       0.000000000000
      0.4380000000D-01  0.1000000000D+01  0.1000000000D+01
 D   1 1.00       0.000000000000
      0.6260000000D+00  0.1000000000D+01
 ****
     18 0
 S   6 1.00       0.000000000000
      0.4563240000D+04  0.1966650249D-02
      0.6820240000D+03  0.1523060193D-01
      0.1549730000D+03  0.7612690966D-01
      0.4445530000D+02  0.2608010331D+00
      0.1302900000D+02  0.6164620782D+00
      0.1827730000D+01  0.2210060280D+00
 SP   3 1.00       0.000000000000
      0.2096420000D+02  0.1146600807D+00  0.4024869267D-01
      0.4803310000D+01  0.9199996477D+00  0.2375939567D+00
      0.1459330000D+01 -0.3030682134D-02  0.8158538515D+00
 SP   1 1.00       0.000000000000
      0.4834560000D+00  0.1000000000D+01  0.1000000000D+01
 SP   1 1.00       0.000000000000
      0.1455850000D+00  0.1000000000D+01  0.1000000000D+01
 SP   1 1.00       0.000000000000
      0.4380000000D-01  0.1000000000D+01  0.1000000000D+01
 D   1 1.00       0.000000000000
      0.6260000000D+00  0.1000000000D+01
 ****
     19 0
 S   6 1.00       0.000000000000
      0.4563240000D+04  0.1966650249D-02
      0.6820240000D+03  0.1523060193D-01
      0.1549730000D+03  0.7612690966D-01
      0.4445530000D+02  0.2608010331D+00
      0.1302900000D+02  0.6164620782D+00
      0.1827730000D+01  0.2210060280D+00
 SP   3 1.00       0.000000000000
      0.2096420000D+02  0.1146600807D+00  0.4024869267D-01
      0.4803310000D+01  0.9199996477D+00  0.2375939567D+00
      0.1459330000D+01 -0.3030682134D-02  0.8158538515D+00
 SP   1 1.00       0.000000000000
      0.4834560000D+00  0.1000000000D+01  0.1000000000D+01
 SP   1 1.00       0.000000000000
      0.1455850000D+00  0.1000000000D+01  0.1000000000D+01
 SP   1 1.00       0.000000000000
      0.4380000000D-01  0.1000000000D+01  0.1000000000D+01
 D   1 1.00       0.000000000000
      0.6260000000D+00  0.1000000000D+01
 ****
     20 0
 S   6 1.00       0.000000000000
      0.4563240000D+04  0.1966650249D-02
      0.6820240000D+03  0.1523060193D-01
      0.1549730000D+03  0.7612690966D-01
      0.4445530000D+02  0.2608010331D+00
      0.1302900000D+02  0.6164620782D+00
      0.1827730000D+01  0.2210060280D+00
 SP   3 1.00       0.000000000000
      0.2096420000D+02  0.1146600807D+00  0.4024869267D-01
      0.4803310000D+01  0.9199996477D+00  0.2375939567D+00
      0.1459330000D+01 -0.3030682134D-02  0.8158538515D+00
 SP   1 1.00       0.000000000000
      0.4834560000D+00  0.1000000000D+01  0.1000000000D+01
 SP   1 1.00       0.000000000000
      0.1455850000D+00  0.1000000000D+01  0.1000000000D+01
 SP   1 1.00       0.000000000000
      0.4380000000D-01  0.1000000000D+01  0.1000000000D+01
 D   1 1.00       0.000000000000
      0.6260000000D+00  0.1000000000D+01
 ****
     21 0
 S   6 1.00       0.000000000000
      0.4563240000D+04  0.1966650249D-02
      0.6820240000D+03  0.1523060193D-01
      0.1549730000D+03  0.7612690966D-01
      0.4445530000D+02  0.2608010331D+00
      0.1302900000D+02  0.6164620782D+00
      0.1827730000D+01  0.2210060280D+00
 SP   3 1.00       0.000000000000
      0.2096420000D+02  0.1146600807D+00  0.4024869267D-01
      0.4803310000D+01  0.9199996477D+00  0.2375939567D+00
      0.1459330000D+01 -0.3030682134D-02  0.8158538515D+00
 SP   1 1.00       0.000000000000
      0.4834560000D+00  0.1000000000D+01  0.1000000000D+01
 SP   1 1.00       0.000000000000
      0.1455850000D+00  0.1000000000D+01  0.1000000000D+01
 SP   1 1.00       0.000000000000
      0.4380000000D-01  0.1000000000D+01  0.1000000000D+01
 D   1 1.00       0.000000000000
      0.6260000000D+00  0.1000000000D+01
 ****
     22 0
 S   6 1.00       0.000000000000
      0.4563240000D+04  0.1966650249D-02
      0.6820240000D+03  0.1523060193D-01
      0.1549730000D+03  0.7612690966D-01
      0.4445530000D+02  0.2608010331D+00
      0.1302900000D+02  0.6164620782D+00
      0.1827730000D+01  0.2210060280D+00
 SP   3 1.00       0.000000000000
      0.2096420000D+02  0.1146600807D+00  0.4024869267D-01
      0.4803310000D+01  0.9199996477D+00  0.2375939567D+00
      0.1459330000D+01 -0.3030682134D-02  0.8158538515D+00
 SP   1 1.00       0.000000000000
      0.4834560000D+00  0.1000000000D+01  0.1000000000D+01
 SP   1 1.00       0.000000000000
      0.1455850000D+00  0.1000000000D+01  0.1000000000D+01
 SP   1 1.00       0.000000000000
      0.4380000000D-01  0.1000000000D+01  0.1000000000D+01
 D   1 1.00       0.000000000000
      0.6260000000D+00  0.1000000000D+01
 ****
     23 0
 S   6 1.00       0.000000000000
      0.4563240000D+04  0.1966650249D-02
      0.6820240000D+03  0.1523060193D-01
      0.1549730000D+03  0.7612690966D-01
      0.4445530000D+02  0.2608010331D+00
      0.1302900000D+02  0.6164620782D+00
      0.1827730000D+01  0.2210060280D+00
 SP   3 1.00       0.000000000000
      0.2096420000D+02  0.1146600807D+00  0.4024869267D-01
      0.4803310000D+01  0.9199996477D+00  0.2375939567D+00
      0.1459330000D+01 -0.3030682134D-02  0.8158538515D+00
 SP   1 1.00       0.000000000000
      0.4834560000D+00  0.1000000000D+01  0.1000000000D+01
 SP   1 1.00       0.000000000000
      0.1455850000D+00  0.1000000000D+01  0.1000000000D+01
 SP   1 1.00       0.000000000000
      0.4380000000D-01  0.1000000000D+01  0.1000000000D+01
 D   1 1.00       0.000000000000
      0.6260000000D+00  0.1000000000D+01
 ****
     24 0
 S   6 1.00       0.000000000000
      0.4563240000D+04  0.1966650249D-02
      0.6820240000D+03  0.1523060193D-01
      0.1549730000D+03  0.7612690966D-01
      0.4445530000D+02  0.2608010331D+00
      0.1302900000D+02  0.6164620782D+00
      0.1827730000D+01  0.2210060280D+00
 SP   3 1.00       0.000000000000
      0.2096420000D+02  0.1146600807D+00  0.4024869267D-01
      0.4803310000D+01  0.9199996477D+00  0.2375939567D+00
      0.1459330000D+01 -0.3030682134D-02  0.8158538515D+00
 SP   1 1.00       0.000000000000
      0.4834560000D+00  0.1000000000D+01  0.1000000000D+01
 SP   1 1.00       0.000000000000
      0.1455850000D+00  0.1000000000D+01  0.1000000000D+01
 SP   1 1.00       0.000000000000
      0.4380000000D-01  0.1000000000D+01  0.1000000000D+01
 D   1 1.00       0.000000000000
      0.6260000000D+00  0.1000000000D+01
 ****
     25 0
 S   6 1.00       0.000000000000
      0.4563240000D+04  0.1966650249D-02
      0.6820240000D+03  0.1523060193D-01
      0.1549730000D+03  0.7612690966D-01
      0.4445530000D+02  0.2608010331D+00
      0.1302900000D+02  0.6164620782D+00
      0.1827730000D+01  0.2210060280D+00
 SP   3 1.00       0.000000000000
      0.2096420000D+02  0.1146600807D+00  0.4024869267D-01
      0.4803310000D+01  0.9199996477D+00  0.2375939567D+00
      0.1459330000D+01 -0.3030682134D-02  0.8158538515D+00
 SP   1 1.00       0.000000000000
      0.4834560000D+00  0.1000000000D+01  0.1000000000D+01
 SP   1 1.00       0.000000000000
      0.1455850000D+00  0.1000000000D+01  0.1000000000D+01
 SP   1 1.00       0.000000000000
      0.4380000000D-01  0.1000000000D+01  0.1000000000D+01
 D   1 1.00       0.000000000000
      0.6260000000D+00  0.1000000000D+01
 ****
     26 0
 S   6 1.00       0.000000000000
      0.4563240000D+04  0.1966650249D-02
      0.6820240000D+03  0.1523060193D-01
      0.1549730000D+03  0.7612690966D-01
      0.4445530000D+02  0.2608010331D+00
      0.1302900000D+02  0.6164620782D+00
      0.1827730000D+01  0.2210060280D+00
 SP   3 1.00       0.000000000000
      0.2096420000D+02  0.1146600807D+00  0.4024869267D-01
      0.4803310000D+01  0.9199996477D+00  0.2375939567D+00
      0.1459330000D+01 -0.3030682134D-02  0.8158538515D+00
 SP   1 1.00       0.000000000000
      0.4834560000D+00  0.1000000000D+01  0.1000000000D+01
 SP   1 1.00       0.000000000000
      0.1455850000D+00  0.1000000000D+01  0.1000000000D+01
 SP   1 1.00       0.000000000000
      0.4380000000D-01  0.1000000000D+01  0.1000000000D+01
 D   1 1.00       0.000000000000
      0.6260000000D+00  0.1000000000D+01
 ****
     27 0
 S   6 1.00       0.000000000000
      0.4563240000D+04  0.1966650249D-02
      0.6820240000D+03  0.1523060193D-01
      0.1549730000D+03  0.7612690966D-01
      0.4445530000D+02  0.2608010331D+00
      0.1302900000D+02  0.6164620782D+00
      0.1827730000D+01  0.2210060280D+00
 SP   3 1.00       0.000000000000
      0.2096420000D+02  0.1146600807D+00  0.4024869267D-01
      0.4803310000D+01  0.9199996477D+00  0.2375939567D+00
      0.1459330000D+01 -0.3030682134D-02  0.8158538515D+00
 SP   1 1.00       0.000000000000
      0.4834560000D+00  0.1000000000D+01  0.1000000000D+01
 SP   1 1.00       0.000000000000
      0.1455850000D+00  0.1000000000D+01  0.1000000000D+01
 SP   1 1.00       0.000000000000
      0.4380000000D-01  0.1000000000D+01  0.1000000000D+01
 D   1 1.00       0.000000000000
      0.6260000000D+00  0.1000000000D+01
 ****
     28 0
 S   6 1.00       0.000000000000
      0.4563240000D+04  0.1966650249D-02
      0.6820240000D+03  0.1523060193D-01
      0.1549730000D+03  0.7612690966D-01
      0.4445530000D+02  0.2608010331D+00
      0.1302900000D+02  0.6164620782D+00
      0.1827730000D+01  0.2210060280D+00
 SP   3 1.00       0.000000000000
      0.2096420000D+02  0.1146600807D+00  0.4024869267D-01
      0.4803310000D+01  0.9199996477D+00  0.2375939567D+00
      0.1459330000D+01 -0.3030682134D-02  0.8158538515D+00
 SP   1 1.00       0.000000000000
      0.4834560000D+00  0.1000000000D+01  0.1000000000D+01
 SP   1 1.00       0.000000000000
      0.1455850000D+00  0.1000000000D+01  0.1000000000D+01
 SP   1 1.00       0.000000000000
      0.4380000000D-01  0.1000000000D+01  0.1000000000D+01
 D   1 1.00       0.000000000000
      0.6260000000D+00  0.1000000000D+01
 ****
     29 0
 S   3 1.00       0.000000000000
      0.3386500000D+02  0.2549381454D-01
      0.5094790000D+01  0.1903731086D+00
      0.1158790000D+01  0.8521614860D+00
 S   1 1.00       0.000000000000
      0.3258400000D+00  0.1000000000D+01
 S   1 1.00       0.000000000000
      0.1027410000D+00  0.1000000000D+01
 P   1 1.00       0.000000000000
      0.7500000000D+00  0.1000000000D+01
 ****
     30 0
 S   3 1.00       0.000000000000
      0.3386500000D+02  0.2549381454D-01
      0.5094790000D+01  0.1903731086D+00
      0.1158790000D+01  0.8521614860D+00
 S   1 1.00       0.000000000000
      0.3258400000D+00  0.1000000000D+01
 S   1 1.00       0.000000000000
      0.1027410000D+00  0.1000000000D+01
 P   1 1.00       0.000000000000
      0.7500000000D+00  0.1000000000D+01
 ****
     31 0
 S   3 1.00       0.000000000000
      0.3386500000D+02  0.2549381454D-01
      0.5094790000D+01  0.1903731086D+00
      0.1158790000D+01  0.8521614860D+00
 S   1 1.00       0.000000000000
      0.3258400000D+00  0.1000000000D+01
 S   1 1.00       0.000000000000
      0.1027410000D+00  0.1000000000D+01
 P   1 1.00       0.000000000000
[...]
 ,0.00007138,-0.00011285,-0.00005325,0.00070543,0.00003546,0.00044238,0
 .00000058,-0.00000385,-0.00000048,0.00000160,-0.00001124,0.00000566,-0
 .00000180,0.00000056,-0.00000189,-0.00000177,-0.00000022,-0.00000068,-
 0.00000305,-0.00000057,0.00000064,-0.00000145,-0.00000523,-0.00002845,
 -0.00000335,-0.00000112,0.00000125,-0.00000289,-0.00000158,0.00000052,
 -0.00000438,-0.00000583,0.00000395,-0.00008980,-0.00028137,0.00014328,
 0.00021668,0.00025951,0.00025135,-0.00043775,0.00020241,-0.00001210,0.
 00000036,0.00000892,0.00000224,0.00135258,0.00093254,0.00067630,0.2102
 4661,0.00000652,0.00000445,0.00000678,-0.00000249,-0.00000209,-0.00000
 269,-0.00000178,-0.00000214,-0.00000032,-0.00000902,-0.00000769,-0.000
 00007,0.00000071,-0.00000023,0.00000131,-0.00000212,-0.00000067,-0.000
 00034,0.00000018,0.00000002,-0.00000104,0.00000408,-0.00000082,-0.0000
 0179,-0.00000645,-0.00001652,-0.00003991,0.00000531,-0.00000025,-0.000
 00727,-0.00003192,0.00005491,0.00016132,-0.00001041,-0.00001250,0.0000
 0105,-0.00000002,-0.00000065,0.00000530,-0.00000451,0.00000103,0.,0.00
 000221,0.00000097,-0.00000898,0.00052441,-0.00081308,0.00038306,0.0037
 1936,0.00125894,-0.00258025,0.00334336,-0.00053802,-0.00577380,0.00042
 272,0.00045428,0.00041038,0.00805050,0.00879532,0.00844305,-0.00012864
 ,0.00003347,0.00008659,-0.00127597,-0.00120797,0.00062693,-0.00009799,
 0.00009976,-0.00006180,0.00144700,-0.00124168,-0.00022933,-0.06921489,
 -0.08569892,-0.06852689,-0.01948761,-0.00543578,-0.01533307,-0.0000461
 2,0.00001578,0.00000254,-0.00020234,-0.00018817,0.00009659,0.00000085,
 0.00000039,0.00000186,0.00000075,0.00000187,0.00000395,0.00000010,0.00
 000089,-0.00000052,-0.00000099,0.00000081,0.00000012,-0.00000073,0.000
 00028,0.00000105,0.00000132,0.00001371,-0.00000325,-0.00000072,0.00000
 066,0.00000029,-0.00000169,0.00000092,0.00000130,-0.00000089,0.0000000
 3,0.00000357,-0.00025851,-0.00033741,0.00047421,-0.00090621,-0.0003659
 8,-0.00075443,0.00022893,-0.00007616,-0.00000189,-0.00000654,0.0000237
 5,0.00000587,0.00104031,-0.00203183,-0.00231620,0.07368586,0.08829091,
 0.00000659,-0.00000612,-0.00000758,-0.00000815,0.00000212,0.00000749,-
 0.00000256,0.00000210,0.00000366,-0.00001421,0.00000342,0.00001158,-0.
 00000194,0.00000053,-0.00000186,-0.00000428,0.00000416,-0.00000124,0.0
 0000346,0.00000111,-0.00000394,-0.00000098,-0.00000240,0.00000739,0.00
 002295,-0.00001832,0.00001387,-0.00001922,0.00001200,-0.00000922,0.000
 04810,0.00013293,-0.00002699,0.00001128,-0.00000198,0.00000262,-0.0000
 0565,-0.00000039,-0.00000465,0.00000162,0.00000200,0.00000076,-0.00000
 378,0.00000211,-0.00000234,0.00069996,0.00040450,-0.00041323,-0.000564
 47,-0.00227695,0.00410052,0.00027244,-0.00607169,0.00317036,0.00008119
 ,-0.00016295,0.00005207,-0.00020003,0.00036765,0.00260324,-0.00010682,
 0.00013153,-0.00005792,0.00017113,0.00044755,-0.00210119,-0.00006480,-
 0.00004145,0.00007388,0.00087631,-0.00088895,-0.00054175,-0.12262477,-
 0.06875872,-0.14044524,-0.01466529,-0.00605570,-0.00681247,-0.00002229
 ,-0.00001645,-0.00004062,0.00028637,0.00015721,-0.00015520,0.00000147,
 -0.00000133,-0.00000133,0.00000154,-0.00000340,0.00000120,-0.00000178,
 0.00000130,-0.00000198,-0.00000167,0.00000057,-0.00000051,-0.00000033,
 -0.00000077,0.00000103,0.00000142,0.00000221,-0.00000593,-0.00000254,0
 .00000062,0.00000064,-0.00000200,-0.00000023,0.00000119,0.00000221,-0.
 00000016,-0.00000099,0.00015739,0.00046531,-0.00059361,-0.00070609,-0.
 00029453,-0.00040762,-0.00000637,-0.00000336,0.00001936,-0.00000895,0.
 00001320,0.00001637,0.00080627,-0.00232928,-0.00009809,0.13423419,0.08
 234205,0.14369785,0.00001144,-0.00000932,0.00000012,-0.00000802,0.0000
 0203,0.00000166,-0.00000589,0.00000085,0.00000104,-0.00002036,0.000004
 43,0.00000840,-0.00000034,0.00000033,0.00000138,-0.00000659,0.00000287
 ,-0.00000182,0.00000366,0.00000095,-0.00000237,0.00000172,-0.00000282,
 0.00000377,0.00004869,0.00001418,-0.00001793,-0.00000881,0.00001259,-0
 .00001596,0.00002737,-0.00000924,-0.00004247,0.00000268,-0.00000770,0.
 00000594,-0.00000299,-0.00000037,0.00000119,-0.00000391,-0.00000018,0.
 00000233,-0.00000140,0.00000487,-0.00000857,-0.00081271,-0.00184636,-0
 .00421430,0.00045487,-0.00066056,0.00000675,-0.01498247,0.01079657,0.0
 0195064,-0.00012182,-0.00009245,0.00023171,0.00240694,0.00164665,-0.00
 090947,0.00003859,0.00006066,0.00025418,-0.00022746,-0.00000901,-0.000
 21975,-0.00002787,-0.00002756,-0.00002711,-0.00003717,0.00003852,-0.00
 002800,-0.00239624,0.00040398,-0.00185370,-0.28759562,0.10660799,-0.01
 120548,0.00001950,0.00004447,0.00002461,-0.00002614,0.00001785,0.00001
 300,0.00000174,-0.00000214,0.00000108,0.00000141,-0.00000551,0.0000061
 7,-0.00000130,0.00000182,-0.00000228,-0.00000263,0.00000112,-0.0000003
 2,-0.00000172,-0.00000037,0.00000193,0.00000183,0.00000839,-0.00001053
 ,-0.00000299,0.00000096,0.00000050,-0.00000361,0.00000033,0.00000227,0
 .00000049,-0.00000094,0.00000328,-0.00086722,0.00058400,0.00006854,0.0
 0048108,-0.00088599,0.00069538,0.00003532,-0.00001486,-0.00001434,-0.0
 0000918,0.00000822,0.00002202,-0.00000756,-0.00000466,-0.00001816,0.00
 041879,-0.00078517,0.00137098,0.30322390,-0.00000888,-0.00000298,-0.00
 000255,0.00000627,0.00000086,-0.00000301,0.00000109,0.00000226,-0.0000
 0320,0.00000253,0.00000467,-0.00000575,0.00000057,-0.00000053,0.000001
 29,0.00000343,-0.00000183,0.00000056,-0.00000118,-0.00000099,0.0000036
 7,0.00000032,0.00000241,-0.00000498,0.00000865,0.00005585,-0.00004244,
 0.00001708,-0.00000940,0.00000991,-0.00008643,-0.00007263,-0.00018617,
 -0.00000673,0.00000683,-0.00000229,0.00000457,-0.00000235,0.00000037,0
 .00000068,-0.00000068,0.00000087,0.00000195,-0.00000250,0.00000387,-0.
 00119032,0.00168020,-0.00404771,-0.00046010,-0.00085981,-0.00013279,-0
 .01235678,0.00815469,-0.00035414,-0.00025461,-0.00014247,0.00054008,0.
 00111414,-0.00037872,-0.00657580,-0.00002103,-0.00046289,0.00001521,0.
 00118834,0.00028242,0.00041222,0.00012484,-0.00005882,0.00000812,0.000
 04090,-0.00000576,-0.00008322,0.02370175,-0.00615249,0.00163603,0.1060
 8826,-0.09508685,-0.00725446,0.00007383,0.00000372,-0.00000638,-0.0000
 8008,0.00003780,0.00001760,-0.00000158,-0.00000016,0.00000029,-0.00000
 157,0.00000192,-0.00000084,0.00000118,-0.00000123,0.00000136,0.0000011
 7,-0.00000070,0.00000027,0.,0.00000044,-0.00000091,-0.00000316,-0.0000
 0608,0.00000571,0.00000215,-0.00000037,-0.00000071,0.00000165,-0.00000
 011,-0.00000097,-0.00000134,0.00000034,0.00000051,-0.00063210,0.000324
 58,-0.00013521,-0.00024771,-0.00071664,0.00190281,0.00006248,0.0000012
 1,-0.00000481,0.00000185,-0.00006317,-0.00000476,-0.00000339,0.0000075
 2,-0.00002005,-0.00117222,-0.00112622,0.00249352,-0.11591874,0.0946143
 8,0.00000107,0.00000522,0.00000322,0.00000003,-0.00000029,0.00000243,0
 .00000200,-0.00000225,0.00000104,0.00001306,-0.00000434,-0.00000129,-0
 .00000052,0.00000012,-0.00000132,0.00000087,-0.00000016,0.00000035,0.0
 0000019,0.00000117,-0.00000109,-0.00000250,-0.00000139,0.00000431,-0.0
 0002382,-0.00004085,0.00007294,-0.00001296,0.00000677,0.00000118,-0.00
 010243,-0.00015458,-0.00005168,0.00000395,0.00000591,-0.00000246,-0.00
 000254,0.00000147,-0.00000223,0.00000263,0.00000068,-0.00000239,0.0000
 0089,-0.00000037,0.00000372,-0.00366928,-0.00431657,0.00103606,0.00016
 316,-0.00021510,-0.00104724,-0.01709221,0.00876102,0.00317460,0.000092
 25,0.00060362,-0.00038091,-0.00131318,-0.00640448,0.00239401,0.0001625
 9,0.00003446,-0.00039212,0.00078451,-0.00003756,0.00060033,0.00009591,
 -0.00004980,-0.00001871,-0.00002677,-0.00008332,0.00003743,0.01730573,
 -0.00747778,0.00379724,-0.01165084,-0.00707125,-0.04606091,0.00005814,
 -0.00001968,0.00005425,-0.00007131,0.00006535,-0.00000186,0.00000020,-
 0.00000011,-0.00000076,-0.00000074,-0.00000328,-0.00000270,-0.00000037
 ,0.00000007,-0.00000023,-0.00000003,-0.00000006,-0.00000007,0.00000075
 ,-0.00000046,-0.00000018,-0.00000203,-0.00000568,0.00000084,-0.0000005
 9,-0.00000042,0.00000006,0.00000061,-0.00000058,-0.00000039,0.00000105
 ,0.00000008,-0.00000262,-0.00093917,0.00034163,0.00010914,0.00121852,0
 .00165143,-0.00130564,0.00005407,-0.00003182,0.00002958,0.00001681,-0.
 00000584,-0.00004819,-0.00002113,-0.00001928,0.00000757,0.00105686,0.0
 0264242,-0.00212215,0.01389639,0.01183717,0.04012746,-0.00000360,-0.00
 000237,-0.00000626,-0.00000070,0.00000512,-0.00000204,-0.00001056,0.00
 000898,-0.00001115,-0.00001614,0.00002880,0.00000586,-0.00000107,-0.00
 000042,0.00000246,-0.00000519,0.00000509,-0.00000129,0.00000050,0.0000
 0277,0.00000627,-0.00000521,0.00000094,-0.00000213,0.00012333,0.000009
 46,-0.00001127,-0.00001079,0.00000375,-0.00002693,0.00069544,-0.000620
 71,-0.00030635,0.00001787,-0.00000035,0.00000890,-0.00000635,0.0000077
 8,0.00000483,-0.00000877,0.00000252,0.00001562,-0.00000276,0.00000375,
 0.00001856,0.00008167,-0.00004246,-0.00002406,-0.00021546,0.00013607,-
 0.00001429,-0.00007720,0.00001042,-0.00001646,-0.00019877,-0.00032398,
 -0.00013095,0.00002070,0.00002821,0.00038413,-0.00219192,-0.00041016,-
 0.00430034,-0.00099008,-0.00054007,-0.00049510,0.00891083,-0.01839356,
 -0.01236895,-0.00469360,0.00245683,-0.00214687,-0.00002702,-0.00003214
 ,-0.00005593,0.00007970,0.00003126,0.00008647,-0.07282506,0.05826695,0
 .03187599,-0.00180244,0.02355464,0.01683391,-0.00000107,-0.00000145,0.
 00000131,0.00000047,-0.00000326,0.00000378,-0.00000009,-0.00000139,0.0
 0000076,0.00000043,-0.00000164,-0.00000058,-0.00000449,-0.00000163,-0.
 00000171,0.00000208,0.00000210,-0.00000948,-0.00000259,-0.00000312,-0.
 00000129,-0.00000231,-0.00000407,-0.00000169,-0.00000316,-0.00000832,-
 0.00000082,0.00000177,0.00000720,0.00000610,0.00000825,0.00000914,-0.0
 0000066,0.00002531,-0.00009686,-0.00006919,0.00043550,-0.00063595,0.00
 145683,-0.00031299,0.00118383,0.00080322,0.00009830,-0.00001672,-0.000
 00916,-0.00000151,0.00000106,-0.00000053,0.07229112,-0.00000004,-0.000
 01101,-0.00000540,-0.00000827,-0.00000020,0.00000304,-0.00001822,0.000
 01592,-0.00001431,-0.00002844,0.00002049,0.00004040,-0.00000379,0.0000
 0046,0.00000709,-0.00001068,0.00000770,-0.00000554,0.00000880,-0.00000
 024,0.00000415,0.00002050,-0.00001423,-0.00000305,0.00013845,0.0000154
 6,-0.00007011,-0.00003001,0.00000979,-0.00006376,0.00057111,-0.0003582
 7,-0.00028359,0.00001519,0.00000404,0.00000554,-0.00000591,0.00000252,
 0.00001222,-0.00002708,0.00001051,0.00002217,0.00000171,0.00002234,0.0
 0001829,0.00000242,0.00002447,-0.00002133,0.00001316,0.00005621,-0.000
 04573,0.00001158,-0.00000541,0.00000564,-0.00038858,-0.00023784,0.0001
 0042,-0.00014906,-0.00035370,0.00039124,-0.00098676,0.00357517,-0.0041
 1512,-0.00028526,0.00011982,0.00062423,0.00522973,-0.00692331,-0.00613
 888,0.00311884,0.00269144,-0.00146237,0.00004098,-0.00000208,-0.000024
 54,-0.00001005,-0.00004236,0.00003040,0.05796334,-0.23016808,-0.130573
 55,-0.00014058,-0.00555239,-0.00650942,0.00000074,-0.00000293,0.000002
 77,0.00000341,-0.00000581,0.00001363,-0.00000144,0.00000081,-0.0000012
 8,-0.00000201,-0.00000018,-0.00000092,-0.00000685,-0.00000114,0.000000
 36,0.00000535,-0.00000202,-0.00003084,-0.00000479,-0.00000179,-0.00000
 010,-0.00000903,-0.00000644,-0.00000030,-0.00000758,-0.00002594,0.0000
 0288,-0.00000512,-0.00000184,-0.00000325,0.00000564,0.00000280,-0.0000
 1927,0.00001711,-0.00007248,-0.00003202,-0.00106950,-0.00109527,0.0024
 2285,0.00000634,-0.00036663,-0.00038751,-0.00001999,0.00004696,-0.0000
 4124,0.00000716,-0.00000485,-0.00000270,-0.06353064,0.23928649,0.00003
 752,0.00000605,0.00000370,-0.00001550,0.00001945,0.00000814,-0.0000051
 9,-0.00000535,0.00001646,-0.00003910,-0.00001618,0.00000436,0.00000189
 ,0.00000611,-0.00000593,-0.00001501,0.00000836,0.00000413,-0.00000204,
 0.00000899,-0.00000775,-0.00002688,0.00000567,0.00001094,0.00003930,-0
 .00013189,0.00006786,0.00001297,0.00006355,-0.00002663,0.00068966,-0.0
 0068207,0.00000931,0.00002776,-0.00002918,0.00002893,-0.00001520,0.000
 00909,-0.00000024,0.00000006,0.00000120,-0.00000200,-0.00000358,-0.000
 00214,-0.00000793,0.00002911,-0.00005724,0.00001503,-0.00018178,0.0000
 0676,0.00008693,-0.00003988,0.00000730,-0.00001515,-0.00013643,0.00009
 087,-0.00054142,0.00021951,0.00053247,-0.00042850,-0.00479727,-0.00405
 132,0.00335418,-0.00031717,0.00048373,-0.00056636,0.00629575,-0.014947
 74,-0.00596635,-0.00163979,-0.00171487,0.00412781,0.00002432,-0.000064
 99,0.00000669,0.00006246,0.00006157,-0.00001418,0.03145416,-0.13044843
 ,-0.12694070,-0.00164919,0.00240996,0.00390674,0.00000157,-0.00000761,
 -0.00000804,0.00000142,-0.00001937,-0.00001188,-0.00000431,-0.00000103
 ,-0.00000533,-0.00000281,-0.00000135,-0.00000203,-0.00000165,-0.000003
 49,0.00000026,0.00000497,0.00002310,-0.00001513,-0.00000660,-0.0000027
 6,0.00000069,-0.00000198,0.00000074,0.00000113,0.00000361,0.00000598,-
 0.00000164,-0.00000344,0.00000160,-0.00000031,-0.00000388,-0.00001836,
 0.00001347,0.00003317,-0.00006344,-0.00008797,0.00110911,0.00257392,-0
 .00222870,-0.00015783,0.00008239,0.00012802,-0.00001174,-0.00004231,0.
 00005151,0.00000455,-0.00000452,-0.00000002,-0.03206096,0.14435963,0.1
 2655774,0.00001968,-0.00000758,0.00000872,-0.00000907,-0.00000203,0.00
 000783,-0.00000450,0.00000667,0.00000214,-0.00000478,-0.00006248,0.000
 03276,-0.00000409,0.00000157,0.00000182,-0.00000972,0.00000611,-0.0000
 0438,0.00000907,-0.00000026,-0.00000466,0.00002266,-0.00001226,0.00000
 199,-0.00001331,-0.00002405,-0.00004014,0.00001056,0.00000340,-0.00004
 298,-0.00005380,-0.00030651,0.00008229,-0.00000700,-0.00000088,-0.0000
 1184,-0.00000114,-0.00000065,0.00000190,-0.00000669,0.00000409,0.00000
 623,0.00000404,0.00000773,-0.00001171,0.00000098,0.00005898,0.00005139
 ,0.00006750,-0.00006281,0.00018946,0.00007807,-0.00001760,-0.00000096,
 -0.00013204,0.00011732,-0.00000488,0.00042503,0.00002160,0.00006114,-0
 .00015614,0.00069745,0.00080439,0.00122199,0.00314971,-0.00012009,-0.0
 0398504,0.00425915,-0.00047558,0.00828934,0.00502519,0.00589854,-0.000
 02963,0.00003356,-0.00002839,-0.00004423,-0.00005685,-0.00005448,-0.01
 393761,-0.01454573,-0.01776735,-0.18665404,-0.07663036,-0.11744284,0.0
 0000265,-0.00000118,0.00000077,0.00000108,0.00000464,0.00000627,-0.000
 00210,0.00000238,-0.00000332,-0.00000366,0.00000137,-0.00000108,-0.000
 00285,-0.00000093,0.00000253,0.00000072,0.00001826,-0.00000852,-0.0000
 0471,0.00000041,0.00000029,-0.00000652,-0.00000181,0.00000256,-0.00000
 221,-0.00000780,0.00000496,-0.00000812,0.00000184,0.00001453,0.0000008
 6,-0.00000298,-0.00000330,0.00001205,0.00000912,-0.00003995,-0.0007518
 0,-0.00070096,-0.00089226,0.00047667,-0.00119070,0.00099785,-0.0000207
 3,0.00001601,-0.00000873,0.00000351,-0.00000279,0.00000074,0.00062768,
 -0.00043192,0.00108632,0.19458139,0.00000915,-0.00000479,-0.00000160,-
 0.00000524,0.00000345,-0.00000420,-0.00000290,0.00000086,0.00000234,-0
 .00003680,0.00002267,0.00000929,0.00000423,-0.00000302,0.00000047,-0.0
 0000318,-0.00000103,0.00000312,-0.00000222,0.00000115,-0.00000020,-0.0
 0002147,0.00001201,0.00000519,0.00001587,-0.00004387,-0.00003824,0.000
 01839,0.00002265,-0.00001858,-0.00018860,-0.00016917,0.00055079,0.0000
 1532,-0.00000358,0.00001761,-0.00000149,-0.00000067,-0.00000534,0.0000
 0036,-0.00000301,0.00000718,-0.00000814,0.00000900,0.00000165,-0.00009
 462,-0.00004954,-0.00007634,0.00002725,-0.00050662,0.00006416,-0.00004
 560,0.00000127,-0.00005410,0.00018525,-0.00003936,-0.00008594,-0.00118
 180,0.00020370,-0.00051965,0.00047719,-0.00081269,0.00018594,0.0036401
 3,-0.00044380,-0.00551582,0.00359392,0.00165843,-0.00211883,-0.0187201
 5,-0.00658133,-0.01475899,0.00002540,0.00000332,-0.00009087,0.00004392
 ,0.00003465,0.00006712,0.00907017,0.00835609,0.00781045,-0.07610525,-0
 .09969967,-0.07913150,0.00000019,-0.00000023,0.00000242,0.00000159,-0.
 00000680,0.00000269,0.00000008,0.00000053,0.00000001,-0.00000044,0.000
 00035,0.00000032,-0.00000166,0.00000063,0.00000046,0.00000584,0.000001
 69,-0.00001706,-0.00000061,-0.00000011,0.00000036,-0.00000255,-0.00000
 019,0.00000018,-0.00000323,-0.00000568,0.00000176,-0.00000247,-0.00005
 563,-0.00001308,0.00000299,-0.00000482,-0.00000465,0.00000690,0.000047
 75,-0.00006450,0.00049713,0.00031283,0.00033044,-0.00077444,-0.0010508
 5,0.00261626,0.00002028,0.00000469,-0.00001334,0.00001217,-0.00002084,
 -0.00000857,-0.00109544,-0.00065696,0.00154713,0.08062459,0.09946658,0
 .00000214,0.00000253,-0.00000531,-0.00000783,-0.00000112,0.00000798,-0
 .00000367,-0.00000160,0.00000003,-0.00000024,0.00000339,0.00000584,-0.
 00000414,0.00000389,-0.00000042,-0.00000475,0.00000530,-0.00000376,0.0
 0000484,-0.00000007,-0.00000475,0.00001317,-0.00001489,0.00000599,0.00
 003467,0.00000839,0.00001799,-0.00004411,0.00000012,-0.00000515,0.0002
 1660,0.00050813,-0.00044269,-0.00000527,-0.00001174,-0.00000711,-0.000
 00508,0.00000455,0.00000474,-0.00000317,0.00000092,-0.00000461,0.00000
 265,0.00000184,-0.00000871,-0.00006417,-0.00002241,-0.00005000,0.00022
 826,0.00004416,-0.00045407,-0.00003634,-0.00004284,-0.00000377,0.00006
 301,-0.00013592,0.00006681,-0.00089395,-0.00002337,-0.00004592,0.00058
 942,0.00025458,-0.00039247,0.00033029,-0.00572938,0.00375530,-0.000987
 96,-0.00185816,0.00424692,-0.01290368,-0.00591464,-0.00632969,-0.00003
 023,-0.00009758,0.00003380,0.00003383,0.00003777,0.00001703,0.00081898
 ,-0.00105524,0.00225236,-0.11694382,-0.07930205,-0.14282643,0.00000209
 ,-0.00000233,-0.00000261,0.00000110,-0.00000182,0.00000186,-0.00000231
 ,0.00000133,-0.00000289,-0.00000220,0.00000069,-0.00000080,0.00000013,
 -0.00000109,0.00000145,0.00000046,0.00000902,-0.00000027,-0.00000314,0
 .00000092,0.00000112,-0.00000166,0.00000058,0.00000179,0.00000301,0.00
 000289,0.00000027,0.00001128,-0.00000879,-0.00004599,0.00000153,-0.000
 00715,-0.00000227,-0.00003801,-0.00006876,0.00006171,0.00005528,-0.000
 13337,0.00005124,0.00130329,0.00246929,-0.00225136,-0.00000449,-0.0000
 1544,0.00002105,0.00001276,-0.00001378,-0.00001060,0.00056144,0.001789
 19,-0.00151984,0.12770002,0.08931406,0.14386624\\0.00000051,0.00000428
 ,-0.00000326,-0.00000430,-0.00000420,0.00000797,-0.00000020,-0.0000004
 3,-0.00000221,-0.00000142,-0.00000298,0.00000156,-0.00000150,-0.000000
 29,0.00000195,0.00000096,-0.00000217,0.00000041,0.00000129,0.00000138,
 -0.00000039,-0.00000241,-0.00000281,0.00000386,-0.00000263,0.00000378,
 0.00000133,-0.00000041,0.00000246,-0.00000453,0.00000351,-0.00000658,-
 0.00000470,0.00000590,-0.00000357,0.00000298,0.00000055,0.00000204,-0.
 00000155,-0.00000883,0.00000021,0.00000182,0.00000557,-0.00000237,0.00
 000215,-0.00000436,0.00000115,-0.00000002,-0.00000469,0.00000544,0.000
 00192,0.00000892,-0.00000935,-0.00000438,0.00000498,0.00000172,0.00000
 278,-0.00000248,-0.00000244,-0.00000304,-0.00000563,0.00000750,0.00000
 523,0.00000379,-0.00000344,-0.00000295,0.00000729,-0.00000277,-0.00000
 039,0.00000002,0.00000125,0.00000110,0.00000714,-0.00000160,0.00000255
 ,-0.00000713,0.00000707,0.00000079,-0.00000100,-0.00000747,-0.00000600
 ,0.00000453,0.00000341,0.00000486,0.00000365,0.00000129,-0.00000408,-0
 .00000017,0.00000097,-0.00000058,0.00000027,0.00000017,-0.00000031,-0.
 00000061,0.00000022,0.00000016,0.00000024,-0.00000022,-0.00000081,-0.0
 0000399,0.00000127,-0.00000080,0.00000152,-0.00000130,0.00000080,0.000
 00273,0.00000053,-0.00000262,-0.00000030,0.00000002,-0.00000051,0.0000
 0013,0.00000070,-0.00000028,-0.00000159,0.00000559,0.00000330,-0.00000
 128,-0.00000083,-0.00000113,-0.00000459,0.00000131,-0.00000036,-0.0000
 0230,0.00000116,-0.00000019,-0.00000188,-0.00000075,-0.00000236,0.0000
 0327,-0.00000141,-0.00000015,-0.00000070,0.00000404,0.00000291,-0.0000
 0235,-0.00000199,-0.00000283\\\@


 WE THE UNWILLING
 LED BY THE UNQUALIFIED
 HAVE BEEN DOING THE UNBELIEVABLE SO LONG WITH SO LITTLE
 THAT WE NOW ATTEMPT THE IMPOSSIBLE WITH NOTHING.

                                    -- ANONYMOUS
 Job cpu time:       2 days 20 hours 20 minutes 29.7 seconds.
 File lengths (MBytes):  RWF=   2058 Int=      0 D2E=      0 Chk=     39 Scr=      1
 Normal termination of Gaussian 09 at Sun Apr 26 13:53:03 2015.
