 Entering Gaussian System, Link 0=g09
 Input=0_0freq-corr_b971_24041-60-9.gau
 Output=0_0freq-corr_b971_24041-60-9.log
 Initial command:
 /opt/g09/l1.exe "/scratch/pb556/g09_run/add_hco//Gau-31951.inp" -scrdir="/scratch/pb556/g09_run/add_hco//"
 Entering Link 1 = /opt/g09/l1.exe PID=     31960.
  
 Copyright (c) 1988,1990,1992,1993,1995,1998,2003,2009,2013,
            Gaussian, Inc.  All Rights Reserved.
  
 This is part of the Gaussian(R) 09 program.  It is based on
 the Gaussian(R) 03 system (copyright 2003, Gaussian, Inc.),
 the Gaussian(R) 98 system (copyright 1998, Gaussian, Inc.),
 the Gaussian(R) 94 system (copyright 1995, Gaussian, Inc.),
 the Gaussian 92(TM) system (copyright 1992, Gaussian, Inc.),
 the Gaussian 90(TM) system (copyright 1990, Gaussian, Inc.),
 the Gaussian 88(TM) system (copyright 1988, Gaussian, Inc.),
 the Gaussian 86(TM) system (copyright 1986, Carnegie Mellon
 University), and the Gaussian 82(TM) system (copyright 1983,
 Carnegie Mellon University). Gaussian is a federally registered
 trademark of Gaussian, Inc.
  
 This software contains proprietary and confidential information,
 including trade secrets, belonging to Gaussian, Inc.
  
 This software is provided under written license and may be
 used, copied, transmitted, or stored only in accord with that
 written license.
  
 The following legend is applicable only to US Government
 contracts under FAR:
  
                    RESTRICTED RIGHTS LEGEND
  
 Use, reproduction and disclosure by the US Government is
 subject to restrictions as set forth in subparagraphs (a)
 and (c) of the Commercial Computer Software - Restricted
 Rights clause in FAR 52.227-19.
  
 Gaussian, Inc.
 340 Quinnipiac St., Bldg. 40, Wallingford CT 06492
  
  
 ---------------------------------------------------------------
 Warning -- This program may not be used in any manner that
 competes with the business of Gaussian, Inc. or will provide
 assistance to any competitor of Gaussian, Inc.  The licensee
 of this program is prohibited from giving any competitor of
 Gaussian, Inc. access to this program.  By using this program,
 the user acknowledges that Gaussian, Inc. is engaged in the
 business of creating and licensing software in the field of
 computational chemistry and represents and warrants to the
 licensee that it is not a competitor of Gaussian, Inc. and that
 it will not use this program in any manner prohibited above.
 ---------------------------------------------------------------
  

 Cite this work as:
 Gaussian 09, Revision D.01,
 M. J. Frisch, G. W. Trucks, H. B. Schlegel, G. E. Scuseria, 
 M. A. Robb, J. R. Cheeseman, G. Scalmani, V. Barone, B. Mennucci, 
 G. A. Petersson, H. Nakatsuji, M. Caricato, X. Li, H. P. Hratchian, 
 A. F. Izmaylov, J. Bloino, G. Zheng, J. L. Sonnenberg, M. Hada, 
 M. Ehara, K. Toyota, R. Fukuda, J. Hasegawa, M. Ishida, T. Nakajima, 
 Y. Honda, O. Kitao, H. Nakai, T. Vreven, J. A. Montgomery, Jr., 
 J. E. Peralta, F. Ogliaro, M. Bearpark, J. J. Heyd, E. Brothers, 
 K. N. Kudin, V. N. Staroverov, T. Keith, R. Kobayashi, J. Normand, 
 K. Raghavachari, A. Rendell, J. C. Burant, S. S. Iyengar, J. Tomasi, 
 M. Cossi, N. Rega, J. M. Millam, M. Klene, J. E. Knox, J. B. Cross, 
 V. Bakken, C. Adamo, J. Jaramillo, R. Gomperts, R. E. Stratmann, 
 O. Yazyev, A. J. Austin, R. Cammi, C. Pomelli, J. W. Ochterski, 
 R. L. Martin, K. Morokuma, V. G. Zakrzewski, G. A. Voth, 
 P. Salvador, J. J. Dannenberg, S. Dapprich, A. D. Daniels, 
 O. Farkas, J. B. Foresman, J. V. Ortiz, J. Cioslowski, 
 and D. J. Fox, Gaussian, Inc., Wallingford CT, 2013.
 
 ******************************************
 Gaussian 09:  ES64L-G09RevD.01 24-Apr-2013
                27-Apr-2015 
 ******************************************
 %NProcShared=8
 Will use up to    8 processors via shared memory.
 %Mem=500MW
 ----------------------------------------------------------------------
 #p rB971/6-311+G(d,p) Opt=(Tight, CalcAll) Freq GFInput Population=Non
 e Integral(Grid=UltraFine) Guess=MIX NoSymmetry
 ----------------------------------------------------------------------
 1/7=10,10=4,14=-1,18=20,19=15,26=4,38=1/1,3;
 2/9=110,12=2,15=1,17=6,18=5,40=1/2;
 3/5=4,6=6,7=111,11=2,16=1,24=10,25=1,30=1,71=2,74=-20,75=-5,116=1,140=1/1,2,3;
 4/13=-1/1;
 5/5=2,38=5/2;
 8/6=4,10=90,11=11/1;
 11/6=1,8=1,9=11,15=111,16=1,31=1/1,2,10;
 10/6=1,31=1/2;
 7/10=1,25=1,30=1/1,2,3,16;
 1/7=10,10=4,14=-1,18=20,19=15,26=4/3(3);
 2/9=110,15=1/2;
 7/8=1,9=1,25=1,30=1,44=-1/16;
 99//99;
 2/9=110,15=1/2;
 3/5=4,6=6,7=111,11=2,16=1,25=1,30=1,71=2,74=-20,75=-5,116=1,140=1/1,2,3;
 4/5=5,16=3,69=1/1;
 5/5=2,38=5/2;
 8/6=4,10=90,11=11/1;
 11/6=1,8=1,9=11,15=111,16=1,31=1/1,2,10;
 10/6=1,31=1/2;
 7/10=1,25=1,30=1/1,2,3,16;
 1/7=10,10=4,14=-1,18=20,19=15,26=4/3(-8);
 2/9=110,15=1/2;
 7/8=1,9=1,25=1,30=1,44=-1/16;
 99//99;
 Leave Link    1 at Mon Apr 27 15:20:40 2015, MaxMem=   524288000 cpu:         0.5
 (Enter /opt/g09/l101.exe)
 ----------------------------------------------------------------------
 W:\Data\additional_hydrocarbons\nist\enthalpy_estimation\success\fine\
 corr_b971_24041-60-9.g09
 ----------------------------------------------------------------------
 Symbolic Z-matrix:
 Charge =  0 Multiplicity = 1
 C                     4.66863   2.54569   1.96594 
 C                     4.57427   2.02058   3.42927 
 C                     3.28688   2.9556    1.41357 
 C                     5.44428   1.57814   1.0573 
 C                     3.20619   2.2916    4.136 
 O                     5.67003   2.61507   4.14169 
 C                     2.11287   2.79917   3.1805 
 C                     2.10136   1.99889   1.828 
 C                     2.68778   4.01033   2.3923 
 C                     2.27739   0.47507   1.8606 
 C                     0.83667   2.29849   0.99996 
 H                     5.2583    3.46991   2.03129 
 H                     4.7401    0.93441   3.40853 
 H                     3.35798   3.21725   0.35083 
 H                     6.42767   1.35683   1.48664 
 H                     5.60342   2.02211   0.06795 
 H                     4.91316   0.63091   0.91602 
 H                     3.37035   3.05267   4.90917 
 H                     2.873     1.37972   4.6487 
 H                     5.73524   2.19269   5.00334 
 H                     1.15538   2.91903   3.70118 
 H                     3.40476   4.64592   2.92231 
 H                     1.91915   4.64086   1.94204 
 H                     3.13852   0.1392    2.44083 
 H                     2.38754   0.07827   0.84392 
 H                     1.38503   0.00758   2.29657 
 H                    -0.03715   1.81      1.4488 
 H                     0.94891   1.90722  -0.01873 
 H                     0.61627   3.36629   0.9216 
 
 NAtoms=     29 NQM=       29 NQMF=       0 NMMI=      0 NMMIF=      0
                NMic=       0 NMicF=      0.
                    Isotopes and Nuclear Properties:
 (Nuclear quadrupole moments (NQMom) in fm**2, nuclear magnetic moments (NMagM)
  in nuclear magnetons)

  Atom         1           2           3           4           5           6           7           8           9          10
 IAtWgt=          12          12          12          12          12          16          12          12          12          12
 AtmWgt=  12.0000000  12.0000000  12.0000000  12.0000000  12.0000000  15.9949146  12.0000000  12.0000000  12.0000000  12.0000000
 NucSpn=           0           0           0           0           0           0           0           0           0           0
 AtZEff=   0.0000000   0.0000000   0.0000000   0.0000000   0.0000000   0.0000000   0.0000000   0.0000000   0.0000000   0.0000000
 NQMom=    0.0000000   0.0000000   0.0000000   0.0000000   0.0000000   0.0000000   0.0000000   0.0000000   0.0000000   0.0000000
 NMagM=    0.0000000   0.0000000   0.0000000   0.0000000   0.0000000   0.0000000   0.0000000   0.0000000   0.0000000   0.0000000
 AtZNuc=   6.0000000   6.0000000   6.0000000   6.0000000   6.0000000   8.0000000   6.0000000   6.0000000   6.0000000   6.0000000

  Atom        11          12          13          14          15          16          17          18          19          20
 IAtWgt=          12           1           1           1           1           1           1           1           1           1
 AtmWgt=  12.0000000   1.0078250   1.0078250   1.0078250   1.0078250   1.0078250   1.0078250   1.0078250   1.0078250   1.0078250
 NucSpn=           0           1           1           1           1           1           1           1           1           1
 AtZEff=   0.0000000   0.0000000   0.0000000   0.0000000   0.0000000   0.0000000   0.0000000   0.0000000   0.0000000   0.0000000
 NQMom=    0.0000000   0.0000000   0.0000000   0.0000000   0.0000000   0.0000000   0.0000000   0.0000000   0.0000000   0.0000000
 NMagM=    0.0000000   2.7928460   2.7928460   2.7928460   2.7928460   2.7928460   2.7928460   2.7928460   2.7928460   2.7928460
 AtZNuc=   6.0000000   1.0000000   1.0000000   1.0000000   1.0000000   1.0000000   1.0000000   1.0000000   1.0000000   1.0000000

  Atom        21          22          23          24          25          26          27          28          29
 IAtWgt=           1           1           1           1           1           1           1           1           1
 AtmWgt=   1.0078250   1.0078250   1.0078250   1.0078250   1.0078250   1.0078250   1.0078250   1.0078250   1.0078250
 NucSpn=           1           1           1           1           1           1           1           1           1
 AtZEff=   0.0000000   0.0000000   0.0000000   0.0000000   0.0000000   0.0000000   0.0000000   0.0000000   0.0000000
 NQMom=    0.0000000   0.0000000   0.0000000   0.0000000   0.0000000   0.0000000   0.0000000   0.0000000   0.0000000
 NMagM=    2.7928460   2.7928460   2.7928460   2.7928460   2.7928460   2.7928460   2.7928460   2.7928460   2.7928460
 AtZNuc=   1.0000000   1.0000000   1.0000000   1.0000000   1.0000000   1.0000000   1.0000000   1.0000000   1.0000000
 Leave Link  101 at Mon Apr 27 15:20:40 2015, MaxMem=   524288000 cpu:         2.3
 (Enter /opt/g09/l103.exe)

 GradGradGradGradGradGradGradGradGradGradGradGradGradGradGradGradGradGrad
 Berny optimization.
 Initialization pass.
                           ----------------------------
                           !    Initial Parameters    !
                           ! (Angstroms and Degrees)  !
 --------------------------                            --------------------------
 ! Name  Definition              Value          Derivative Info.                !
 --------------------------------------------------------------------------------
 ! R1    R(1,2)                  1.5576         calculate D2E/DX2 analytically  !
 ! R2    R(1,3)                  1.5435         calculate D2E/DX2 analytically  !
 ! R3    R(1,4)                  1.5373         calculate D2E/DX2 analytically  !
 ! R4    R(1,12)                 1.0983         calculate D2E/DX2 analytically  !
 ! R5    R(2,5)                  1.5635         calculate D2E/DX2 analytically  !
 ! R6    R(2,6)                  1.4358         calculate D2E/DX2 analytically  !
 ! R7    R(2,13)                 1.099          calculate D2E/DX2 analytically  !
 ! R8    R(3,8)                  1.5788         calculate D2E/DX2 analytically  !
 ! R9    R(3,9)                  1.5586         calculate D2E/DX2 analytically  !
 ! R10   R(3,14)                 1.0968         calculate D2E/DX2 analytically  !
 ! R11   R(4,15)                 1.0956         calculate D2E/DX2 analytically  !
 ! R12   R(4,16)                 1.096          calculate D2E/DX2 analytically  !
 ! R13   R(4,17)                 1.0951         calculate D2E/DX2 analytically  !
 ! R14   R(5,7)                  1.5382         calculate D2E/DX2 analytically  !
 ! R15   R(5,18)                 1.0973         calculate D2E/DX2 analytically  !
 ! R16   R(5,19)                 1.0979         calculate D2E/DX2 analytically  !
 ! R17   R(6,20)                 0.9618         calculate D2E/DX2 analytically  !
 ! R18   R(7,8)                  1.5716         calculate D2E/DX2 analytically  !
 ! R19   R(7,9)                  1.5552         calculate D2E/DX2 analytically  !
 ! R20   R(7,21)                 1.0965         calculate D2E/DX2 analytically  !
 ! R21   R(8,10)                 1.5343         calculate D2E/DX2 analytically  !
 ! R22   R(8,11)                 1.5411         calculate D2E/DX2 analytically  !
 ! R23   R(9,22)                 1.095          calculate D2E/DX2 analytically  !
 ! R24   R(9,23)                 1.0914         calculate D2E/DX2 analytically  !
 ! R25   R(10,24)                1.0913         calculate D2E/DX2 analytically  !
 ! R26   R(10,25)                1.0969         calculate D2E/DX2 analytically  !
 ! R27   R(10,26)                1.0977         calculate D2E/DX2 analytically  !
 ! R28   R(11,27)                1.0971         calculate D2E/DX2 analytically  !
 ! R29   R(11,28)                1.097          calculate D2E/DX2 analytically  !
 ! R30   R(11,29)                1.0931         calculate D2E/DX2 analytically  !
 ! A1    A(2,1,3)              111.8095         calculate D2E/DX2 analytically  !
 ! A2    A(2,1,4)              111.9424         calculate D2E/DX2 analytically  !
 ! A3    A(2,1,12)             105.09           calculate D2E/DX2 analytically  !
 ! A4    A(3,1,4)              114.035          calculate D2E/DX2 analytically  !
 ! A5    A(3,1,12)             106.1682         calculate D2E/DX2 analytically  !
 ! A6    A(4,1,12)             107.0921         calculate D2E/DX2 analytically  !
 ! A7    A(1,2,5)              114.7866         calculate D2E/DX2 analytically  !
 ! A8    A(1,2,6)              106.28           calculate D2E/DX2 analytically  !
 ! A9    A(1,2,13)             107.839          calculate D2E/DX2 analytically  !
 ! A10   A(5,2,6)              111.8213         calculate D2E/DX2 analytically  !
 ! A11   A(5,2,13)             108.1733         calculate D2E/DX2 analytically  !
 ! A12   A(6,2,13)             107.6635         calculate D2E/DX2 analytically  !
 ! A13   A(1,3,8)              114.6675         calculate D2E/DX2 analytically  !
 ! A14   A(1,3,9)              107.4031         calculate D2E/DX2 analytically  !
 ! A15   A(1,3,14)             110.6149         calculate D2E/DX2 analytically  !
 ! A16   A(8,3,9)               87.5127         calculate D2E/DX2 analytically  !
 ! A17   A(8,3,14)             116.5897         calculate D2E/DX2 analytically  !
 ! A18   A(9,3,14)             118.1602         calculate D2E/DX2 analytically  !
 ! A19   A(1,4,15)             110.388          calculate D2E/DX2 analytically  !
 ! A20   A(1,4,16)             110.6001         calculate D2E/DX2 analytically  !
 ! A21   A(1,4,17)             112.0816         calculate D2E/DX2 analytically  !
 ! A22   A(15,4,16)            107.7722         calculate D2E/DX2 analytically  !
 ! A23   A(15,4,17)            108.1284         calculate D2E/DX2 analytically  !
 ! A24   A(16,4,17)            107.7184         calculate D2E/DX2 analytically  !
 ! A25   A(2,5,7)              113.4757         calculate D2E/DX2 analytically  !
 ! A26   A(2,5,18)             107.9285         calculate D2E/DX2 analytically  !
 ! A27   A(2,5,19)             109.43           calculate D2E/DX2 analytically  !
 ! A28   A(7,5,18)             108.3716         calculate D2E/DX2 analytically  !
 ! A29   A(7,5,19)             110.3923         calculate D2E/DX2 analytically  !
 ! A30   A(18,5,19)            107.004          calculate D2E/DX2 analytically  !
 ! A31   A(2,6,20)             108.3253         calculate D2E/DX2 analytically  !
 ! A32   A(5,7,8)              111.825          calculate D2E/DX2 analytically  !
 ! A33   A(5,7,9)              108.0023         calculate D2E/DX2 analytically  !
 ! A34   A(5,7,21)             111.2098         calculate D2E/DX2 analytically  !
 ! A35   A(8,7,9)               87.8861         calculate D2E/DX2 analytically  !
 ! A36   A(8,7,21)             117.2543         calculate D2E/DX2 analytically  !
 ! A37   A(9,7,21)             118.5774         calculate D2E/DX2 analytically  !
 ! A38   A(3,8,7)               84.9416         calculate D2E/DX2 analytically  !
 ! A39   A(3,8,10)             121.4176         calculate D2E/DX2 analytically  !
 ! A40   A(3,8,11)             110.9401         calculate D2E/DX2 analytically  !
 ! A41   A(7,8,10)             119.1186         calculate D2E/DX2 analytically  !
 ! A42   A(7,8,11)             111.6805         calculate D2E/DX2 analytically  !
 ! A43   A(10,8,11)            107.3769         calculate D2E/DX2 analytically  !
 ! A44   A(3,9,7)               86.1778         calculate D2E/DX2 analytically  !
 ! A45   A(3,9,22)             116.4278         calculate D2E/DX2 analytically  !
 ! A46   A(3,9,23)             113.7411         calculate D2E/DX2 analytically  !
 ! A47   A(7,9,22)             116.6661         calculate D2E/DX2 analytically  !
 ! A48   A(7,9,23)             113.4952         calculate D2E/DX2 analytically  !
 ! A49   A(22,9,23)            108.9958         calculate D2E/DX2 analytically  !
 ! A50   A(8,10,24)            114.0468         calculate D2E/DX2 analytically  !
 ! A51   A(8,10,25)            110.5545         calculate D2E/DX2 analytically  !
 ! A52   A(8,10,26)            109.764          calculate D2E/DX2 analytically  !
 ! A53   A(24,10,25)           107.5906         calculate D2E/DX2 analytically  !
 ! A54   A(24,10,26)           107.4112         calculate D2E/DX2 analytically  !
 ! A55   A(25,10,26)           107.1991         calculate D2E/DX2 analytically  !
 ! A56   A(8,11,27)            110.3194         calculate D2E/DX2 analytically  !
 ! A57   A(8,11,28)            110.2217         calculate D2E/DX2 analytically  !
 ! A58   A(8,11,29)            113.1969         calculate D2E/DX2 analytically  !
 ! A59   A(27,11,28)           107.6132         calculate D2E/DX2 analytically  !
 ! A60   A(27,11,29)           107.6786         calculate D2E/DX2 analytically  !
 ! A61   A(28,11,29)           107.6061         calculate D2E/DX2 analytically  !
 ! D1    D(3,1,2,5)            -12.3647         calculate D2E/DX2 analytically  !
 ! D2    D(3,1,2,6)           -136.517          calculate D2E/DX2 analytically  !
 ! D3    D(3,1,2,13)           108.2659         calculate D2E/DX2 analytically  !
 ! D4    D(4,1,2,5)           -141.7227         calculate D2E/DX2 analytically  !
 ! D5    D(4,1,2,6)             94.125          calculate D2E/DX2 analytically  !
 ! D6    D(4,1,2,13)           -21.0921         calculate D2E/DX2 analytically  !
 ! D7    D(12,1,2,5)           102.3773         calculate D2E/DX2 analytically  !
 ! D8    D(12,1,2,6)           -21.775          calculate D2E/DX2 analytically  !
 ! D9    D(12,1,2,13)         -136.9921         calculate D2E/DX2 analytically  !
 ! D10   D(2,1,3,8)            -39.4521         calculate D2E/DX2 analytically  !
 ! D11   D(2,1,3,9)             55.9362         calculate D2E/DX2 analytically  !
 ! D12   D(2,1,3,14)          -173.7991         calculate D2E/DX2 analytically  !
 ! D13   D(4,1,3,8)             88.8019         calculate D2E/DX2 analytically  !
 ! D14   D(4,1,3,9)           -175.8099         calculate D2E/DX2 analytically  !
 ! D15   D(4,1,3,14)           -45.5451         calculate D2E/DX2 analytically  !
 ! D16   D(12,1,3,8)          -153.5295         calculate D2E/DX2 analytically  !
 ! D17   D(12,1,3,9)           -58.1413         calculate D2E/DX2 analytically  !
 ! D18   D(12,1,3,14)           72.1234         calculate D2E/DX2 analytically  !
 ! D19   D(2,1,4,15)           -53.9171         calculate D2E/DX2 analytically  !
 ! D20   D(2,1,4,16)          -173.0983         calculate D2E/DX2 analytically  !
 ! D21   D(2,1,4,17)            66.6797         calculate D2E/DX2 analytically  !
 ! D22   D(3,1,4,15)           177.8967         calculate D2E/DX2 analytically  !
 ! D23   D(3,1,4,16)            58.7155         calculate D2E/DX2 analytically  !
 ! D24   D(3,1,4,17)           -61.5065         calculate D2E/DX2 analytically  !
 ! D25   D(12,1,4,15)           60.7604         calculate D2E/DX2 analytically  !
 ! D26   D(12,1,4,16)          -58.4208         calculate D2E/DX2 analytically  !
 ! D27   D(12,1,4,17)         -178.6428         calculate D2E/DX2 analytically  !
 ! D28   D(1,2,5,7)             10.4903         calculate D2E/DX2 analytically  !
 ! D29   D(1,2,5,18)          -109.6205         calculate D2E/DX2 analytically  !
 ! D30   D(1,2,5,19)           134.2722         calculate D2E/DX2 analytically  !
 ! D31   D(6,2,5,7)            131.6556         calculate D2E/DX2 analytically  !
 ! D32   D(6,2,5,18)            11.5448         calculate D2E/DX2 analytically  !
 ! D33   D(6,2,5,19)          -104.5625         calculate D2E/DX2 analytically  !
 ! D34   D(13,2,5,7)          -109.9561         calculate D2E/DX2 analytically  !
 ! D35   D(13,2,5,18)          129.933          calculate D2E/DX2 analytically  !
 ! D36   D(13,2,5,19)           13.8257         calculate D2E/DX2 analytically  !
 ! D37   D(1,2,6,20)          -170.0305         calculate D2E/DX2 analytically  !
 ! D38   D(5,2,6,20)            63.997          calculate D2E/DX2 analytically  !
 ! D39   D(13,2,6,20)          -54.6944         calculate D2E/DX2 analytically  !
 ! D40   D(1,3,8,7)             80.9422         calculate D2E/DX2 analytically  !
 ! D41   D(1,3,8,10)           -40.2814         calculate D2E/DX2 analytically  !
 ! D42   D(1,3,8,11)          -167.759          calculate D2E/DX2 analytically  !
 ! D43   D(9,3,8,7)            -27.0861         calculate D2E/DX2 analytically  !
 ! D44   D(9,3,8,10)          -148.3097         calculate D2E/DX2 analytically  !
 ! D45   D(9,3,8,11)            84.2127         calculate D2E/DX2 analytically  !
 ! D46   D(14,3,8,7)          -147.5178         calculate D2E/DX2 analytically  !
 ! D47   D(14,3,8,10)           91.2586         calculate D2E/DX2 analytically  !
 ! D48   D(14,3,8,11)          -36.2191         calculate D2E/DX2 analytically  !
 ! D49   D(1,3,9,7)            -87.7531         calculate D2E/DX2 analytically  !
 ! D50   D(1,3,9,22)            30.2213         calculate D2E/DX2 analytically  !
 ! D51   D(1,3,9,23)           158.223          calculate D2E/DX2 analytically  !
 ! D52   D(8,3,9,7)             27.345          calculate D2E/DX2 analytically  !
 ! D53   D(8,3,9,22)           145.3194         calculate D2E/DX2 analytically  !
 ! D54   D(8,3,9,23)           -86.6789         calculate D2E/DX2 analytically  !
 ! D55   D(14,3,9,7)           146.3521         calculate D2E/DX2 analytically  !
 ! D56   D(14,3,9,22)          -95.6735         calculate D2E/DX2 analytically  !
 ! D57   D(14,3,9,23)           32.3283         calculate D2E/DX2 analytically  !
 ! D58   D(2,5,7,8)             43.3708         calculate D2E/DX2 analytically  !
 ! D59   D(2,5,7,9)            -51.6984         calculate D2E/DX2 analytically  !
 ! D60   D(2,5,7,21)           176.5715         calculate D2E/DX2 analytically  !
 ! D61   D(18,5,7,8)           163.2299         calculate D2E/DX2 analytically  !
 ! D62   D(18,5,7,9)            68.1607         calculate D2E/DX2 analytically  !
 ! D63   D(18,5,7,21)          -63.5694         calculate D2E/DX2 analytically  !
 ! D64   D(19,5,7,8)           -79.8847         calculate D2E/DX2 analytically  !
 ! D65   D(19,5,7,9)          -174.954          calculate D2E/DX2 analytically  !
 ! D66   D(19,5,7,21)           53.3159         calculate D2E/DX2 analytically  !
 ! D67   D(5,7,8,3)            -81.4213         calculate D2E/DX2 analytically  !
 ! D68   D(5,7,8,10)            41.9259         calculate D2E/DX2 analytically  !
 ! D69   D(5,7,8,11)           168.0356         calculate D2E/DX2 analytically  !
 ! D70   D(9,7,8,3)             27.1425         calculate D2E/DX2 analytically  !
 ! D71   D(9,7,8,10)           150.4898         calculate D2E/DX2 analytically  !
 ! D72   D(9,7,8,11)           -83.4006         calculate D2E/DX2 analytically  !
 ! D73   D(21,7,8,3)           148.4368         calculate D2E/DX2 analytically  !
 ! D74   D(21,7,8,10)          -88.2159         calculate D2E/DX2 analytically  !
 ! D75   D(21,7,8,11)           37.8937         calculate D2E/DX2 analytically  !
 ! D76   D(5,7,9,3)             84.81           calculate D2E/DX2 analytically  !
 ! D77   D(5,7,9,22)           -32.9392         calculate D2E/DX2 analytically  !
 ! D78   D(5,7,9,23)          -160.9263         calculate D2E/DX2 analytically  !
 ! D79   D(8,7,9,3)            -27.4729         calculate D2E/DX2 analytically  !
 ! D80   D(8,7,9,22)          -145.2221         calculate D2E/DX2 analytically  !
 ! D81   D(8,7,9,23)            86.7907         calculate D2E/DX2 analytically  !
 ! D82   D(21,7,9,3)          -147.5868         calculate D2E/DX2 analytically  !
 ! D83   D(21,7,9,22)           94.664          calculate D2E/DX2 analytically  !
 ! D84   D(21,7,9,23)          -33.3232         calculate D2E/DX2 analytically  !
 ! D85   D(3,8,10,24)           52.0875         calculate D2E/DX2 analytically  !
 ! D86   D(3,8,10,25)          -69.295          calculate D2E/DX2 analytically  !
 ! D87   D(3,8,10,26)          172.6516         calculate D2E/DX2 analytically  !
 ! D88   D(7,8,10,24)          -50.7375         calculate D2E/DX2 analytically  !
 ! D89   D(7,8,10,25)         -172.12           calculate D2E/DX2 analytically  !
 ! D90   D(7,8,10,26)           69.8266         calculate D2E/DX2 analytically  !
 ! D91   D(11,8,10,24)        -178.8648         calculate D2E/DX2 analytically  !
 ! D92   D(11,8,10,25)          59.7527         calculate D2E/DX2 analytically  !
 ! D93   D(11,8,10,26)         -58.3007         calculate D2E/DX2 analytically  !
 ! D94   D(3,8,11,27)         -166.376          calculate D2E/DX2 analytically  !
 ! D95   D(3,8,11,28)           74.9213         calculate D2E/DX2 analytically  !
 ! D96   D(3,8,11,29)          -45.6457         calculate D2E/DX2 analytically  !
 ! D97   D(7,8,11,27)          -73.4792         calculate D2E/DX2 analytically  !
 ! D98   D(7,8,11,28)          167.8181         calculate D2E/DX2 analytically  !
 ! D99   D(7,8,11,29)           47.2511         calculate D2E/DX2 analytically  !
 ! D100  D(10,8,11,27)          58.8288         calculate D2E/DX2 analytically  !
 ! D101  D(10,8,11,28)         -59.8739         calculate D2E/DX2 analytically  !
 ! D102  D(10,8,11,29)         179.5591         calculate D2E/DX2 analytically  !
 --------------------------------------------------------------------------------
 Trust Radius=3.00D-01 FncErr=1.00D-07 GrdErr=1.00D-06
 Number of steps in this run=    174 maximum allowed number of steps=    174.
 GradGradGradGradGradGradGradGradGradGradGradGradGradGradGradGradGradGrad

 Leave Link  103 at Mon Apr 27 15:20:40 2015, MaxMem=   524288000 cpu:         0.2
 (Enter /opt/g09/l202.exe)
                          Input orientation:                          
 ---------------------------------------------------------------------
 Center     Atomic      Atomic             Coordinates (Angstroms)
 Number     Number       Type             X           Y           Z
 ---------------------------------------------------------------------
      1          6           0        4.668630    2.545690    1.965940
      2          6           0        4.574270    2.020580    3.429270
      3          6           0        3.286880    2.955600    1.413570
      4          6           0        5.444280    1.578140    1.057300
      5          6           0        3.206190    2.291600    4.136000
      6          8           0        5.670030    2.615070    4.141690
      7          6           0        2.112870    2.799170    3.180500
      8          6           0        2.101360    1.998890    1.828000
      9          6           0        2.687780    4.010330    2.392300
     10          6           0        2.277390    0.475070    1.860600
     11          6           0        0.836670    2.298490    0.999960
     12          1           0        5.258300    3.469910    2.031290
     13          1           0        4.740100    0.934410    3.408530
     14          1           0        3.357980    3.217250    0.350830
     15          1           0        6.427670    1.356830    1.486640
     16          1           0        5.603420    2.022110    0.067950
     17          1           0        4.913160    0.630910    0.916020
     18          1           0        3.370350    3.052670    4.909170
     19          1           0        2.873000    1.379720    4.648700
     20          1           0        5.735240    2.192690    5.003340
     21          1           0        1.155380    2.919030    3.701180
     22          1           0        3.404760    4.645920    2.922310
     23          1           0        1.919150    4.640860    1.942040
     24          1           0        3.138520    0.139200    2.440830
     25          1           0        2.387540    0.078270    0.843920
     26          1           0        1.385030    0.007580    2.296570
     27          1           0       -0.037150    1.810000    1.448800
     28          1           0        0.948910    1.907220   -0.018730
     29          1           0        0.616270    3.366290    0.921600
 ---------------------------------------------------------------------
                    Distance matrix (angstroms):
                    1          2          3          4          5
     1  C    0.000000
     2  C    1.557555   0.000000
     3  C    1.543493   2.568011   0.000000
     4  C    1.537339   2.564939   2.584318   0.000000
     5  C    2.629154   1.563510   2.803397   3.872527   0.000000
     6  O    2.396143   1.435845   3.638407   3.261847   2.484989
     7  C    2.841006   2.593565   2.127160   4.134874   1.538166
     8  C    2.628477   2.946153   1.578767   3.456316   2.575498
     9  C    2.500144   2.931426   1.558618   3.911018   2.502653
    10  C    3.164900   3.181978   2.715131   3.448369   3.056124
    11  C    3.959563   4.466367   2.570291   4.663932   3.930575
    12  H    1.098255   2.126688   2.128988   2.135893   3.166919
    13  H    2.163885   1.098952   3.190129   2.537428   2.173490
    14  H    2.185721   3.519684   1.096783   2.745620   3.899664
    15  H    2.176543   2.765767   3.525048   1.095613   4.274440
    16  H    2.179526   3.515341   2.836980   1.096015   4.729521
    17  H    2.197387   2.891791   2.880369   1.095122   4.004986
    18  H    3.256557   2.169041   3.497944   4.616528   1.097255
    19  H    3.432342   2.189071   3.622259   4.421426   1.097908
    20  H    3.238528   1.963459   4.411683   4.004193   2.675473
    21  H    3.936161   3.545413   3.126946   5.213708   2.188278
    22  H    2.631155   2.918419   2.268782   4.129065   2.656181
    23  H    3.456870   4.015891   2.233846   4.752848   3.462507
    24  H    2.891012   2.564758   3.001563   3.049792   2.740622
    25  H    3.542663   3.903638   3.067954   3.411569   4.050532
    26  H    4.163334   3.937820   3.617671   4.525479   3.452083
    27  H    4.790933   5.023126   3.516080   5.500282   4.239367
    28  H    4.264138   5.004477   2.935419   4.634057   4.743927
    29  H    4.264464   4.874947   2.746427   5.150299   4.265561
                    6          7          8          9         10
     6  O    0.000000
     7  C    3.689331   0.000000
     8  C    4.297470   1.571571   0.000000
     9  C    3.728395   1.555214   2.169842   0.000000
    10  C    4.614431   2.677806   1.534300   3.598498   0.000000
    11  C    5.773392   2.575679   1.541055   2.880211   2.478152
    12  H    2.313884   3.415305   3.488767   2.651406   4.228951
    13  H    2.055945   3.229809   3.254864   3.834843   2.944830
    14  H    4.480939   3.119635   2.290311   2.290359   3.311590
    15  H    3.034218   4.854586   4.386995   4.674191   4.259363
    16  H    4.117207   4.740857   3.919533   4.225704   4.082818
    17  H    3.861954   4.203670   3.257191   4.307226   2.804247
    18  H    2.463544   2.152631   3.494910   2.778066   4.139126
    19  H    3.099440   2.179047   2.989172   3.470700   2.991094
    20  H    0.961820   4.100260   4.829640   4.405492   4.978329
    21  H    4.546263   1.096477   2.291362   2.291801   3.258770
    22  H    3.277604   2.268508   3.146924   1.094964   4.449065
    23  H    4.797018   2.227809   2.650700   1.091373   4.181958
    24  H    3.928282   2.945252   2.215786   3.897585   1.091339
    25  H    5.299564   3.596991   2.176946   4.236593   1.096915
    26  H    5.344595   3.017293   2.167487   4.210502   1.097690
    27  H    6.361737   2.932546   2.180068   3.627242   2.703463
    28  H    6.332387   3.519297   2.178751   3.641402   2.710681
    29  H    6.039354   2.768405   2.212880   2.620859   3.464130
                   11         12         13         14         15
    11  C    0.000000
    12  H    4.688995   0.000000
    13  H    4.785258   2.931566   0.000000
    14  H    2.760886   2.549313   4.058466   0.000000
    15  H    5.690594   2.475717   2.592295   3.764867   0.000000
    16  H    4.864867   2.463724   3.617719   2.559371   1.770499
    17  H    4.405183   3.069669   2.516877   3.070371   1.773783
    18  H    4.719136   3.467079   2.935159   4.561327   4.892524
    19  H    4.278327   4.112102   2.285254   4.699299   4.757607
    20  H    6.327261   3.269839   2.262077   5.324184   3.680394
    21  H    2.789845   4.463850   4.107868   4.020600   5.928043
    22  H    3.975040   2.369077   3.974273   2.942073   4.692254
    23  H    2.746994   3.539634   4.883249   2.574655   5.596338
    24  H    3.469460   3.969234   2.033190   3.727017   3.634778
    25  H    2.712734   4.599384   3.583956   3.322362   4.286077
    26  H    2.688897   5.201954   3.654034   4.240332   5.282488
    27  H    1.097106   5.579999   5.237301   3.835727   6.480794
    28  H    1.097005   5.021496   5.202460   2.767015   5.708404
    29  H    1.093121   4.773949   5.394890   2.804454   6.174915
                   16         17         18         19         20
    16  H    0.000000
    17  H    1.769497   0.000000
    18  H    5.430107   4.918377   0.000000
    19  H    5.371325   4.319244   1.764643   0.000000
    20  H    4.940096   4.452096   2.518162   2.996516   0.000000
    21  H    5.812907   5.207064   2.526498   2.493489   4.816462
    22  H    4.457113   4.735058   2.547007   3.732459   3.972425
    23  H    4.893252   5.108475   3.664995   4.344062   5.470616
    24  H    3.905335   2.390852   3.825540   2.546386   4.186434
    25  H    3.836995   2.586381   5.132176   4.050407   5.742703
    26  H    5.178793   3.839552   4.476578   3.103118   5.570066
    27  H    5.811004   5.116608   5.012928   4.346662   6.789823
    28  H    4.656735   4.268255   5.608888   5.075951   6.943460
    29  H    5.235189   5.093682   4.856339   4.788587   6.651450
                   21         22         23         24         25
    21  H    0.000000
    22  H    2.940833   0.000000
    23  H    2.577327   1.779885   0.000000
    24  H    3.639888   4.540180   4.690479   0.000000
    25  H    4.213321   5.120339   4.716194   1.765731   0.000000
    26  H    3.240711   5.097554   4.677420   1.764330   1.766413
    27  H    2.779441   4.696852   3.476228   3.722979   3.040377
    28  H    3.860585   4.709713   3.501253   3.737609   2.481709
    29  H    2.866487   3.662782   2.088857   4.368514   3.735573
                   26         27         28         29
    26  H    0.000000
    27  H    2.447453   0.000000
    28  H    3.026458   1.770709   0.000000
    29  H    3.709780   1.768314   1.767415   0.000000
 Symmetry turned off by external request.
 Stoichiometry    C10H18O
 Framework group  C1[X(C10H18O)]
 Deg. of freedom    81
 Full point group                 C1      NOp   1
 Rotational constants (GHZ):      1.6504859      0.9476760      0.8330330
 Leave Link  202 at Mon Apr 27 15:20:40 2015, MaxMem=   524288000 cpu:         0.3
 (Enter /opt/g09/l301.exe)
 Standard basis: 6-311+G(d,p) (5D, 7F)
 Ernie: Thresh=  0.10000D-02 Tol=  0.10000D-05 Strict=F.
 AO basis set in the form of general basis input (Overlap normalization):
      1 0
 S   6 1.00       0.000000000000
      0.4563240000D+04  0.1966650249D-02
      0.6820240000D+03  0.1523060193D-01
      0.1549730000D+03  0.7612690966D-01
      0.4445530000D+02  0.2608010331D+00
      0.1302900000D+02  0.6164620782D+00
      0.1827730000D+01  0.2210060280D+00
 SP   3 1.00       0.000000000000
      0.2096420000D+02  0.1146600807D+00  0.4024869267D-01
      0.4803310000D+01  0.9199996477D+00  0.2375939567D+00
      0.1459330000D+01 -0.3030682134D-02  0.8158538515D+00
 SP   1 1.00       0.000000000000
      0.4834560000D+00  0.1000000000D+01  0.1000000000D+01
 SP   1 1.00       0.000000000000
      0.1455850000D+00  0.1000000000D+01  0.1000000000D+01
 SP   1 1.00       0.000000000000
      0.4380000000D-01  0.1000000000D+01  0.1000000000D+01
 D   1 1.00       0.000000000000
      0.6260000000D+00  0.1000000000D+01
 ****
      2 0
 S   6 1.00       0.000000000000
      0.4563240000D+04  0.1966650249D-02
      0.6820240000D+03  0.1523060193D-01
      0.1549730000D+03  0.7612690966D-01
      0.4445530000D+02  0.2608010331D+00
      0.1302900000D+02  0.6164620782D+00
      0.1827730000D+01  0.2210060280D+00
 SP   3 1.00       0.000000000000
      0.2096420000D+02  0.1146600807D+00  0.4024869267D-01
      0.4803310000D+01  0.9199996477D+00  0.2375939567D+00
      0.1459330000D+01 -0.3030682134D-02  0.8158538515D+00
 SP   1 1.00       0.000000000000
      0.4834560000D+00  0.1000000000D+01  0.1000000000D+01
 SP   1 1.00       0.000000000000
      0.1455850000D+00  0.1000000000D+01  0.1000000000D+01
 SP   1 1.00       0.000000000000
      0.4380000000D-01  0.1000000000D+01  0.1000000000D+01
 D   1 1.00       0.000000000000
      0.6260000000D+00  0.1000000000D+01
 ****
      3 0
 S   6 1.00       0.000000000000
      0.4563240000D+04  0.1966650249D-02
      0.6820240000D+03  0.1523060193D-01
      0.1549730000D+03  0.7612690966D-01
      0.4445530000D+02  0.2608010331D+00
      0.1302900000D+02  0.6164620782D+00
      0.1827730000D+01  0.2210060280D+00
 SP   3 1.00       0.000000000000
      0.2096420000D+02  0.1146600807D+00  0.4024869267D-01
      0.4803310000D+01  0.9199996477D+00  0.2375939567D+00
      0.1459330000D+01 -0.3030682134D-02  0.8158538515D+00
 SP   1 1.00       0.000000000000
      0.4834560000D+00  0.1000000000D+01  0.1000000000D+01
 SP   1 1.00       0.000000000000
      0.1455850000D+00  0.1000000000D+01  0.1000000000D+01
 SP   1 1.00       0.000000000000
      0.4380000000D-01  0.1000000000D+01  0.1000000000D+01
 D   1 1.00       0.000000000000
      0.6260000000D+00  0.1000000000D+01
 ****
      4 0
 S   6 1.00       0.000000000000
      0.4563240000D+04  0.1966650249D-02
      0.6820240000D+03  0.1523060193D-01
      0.1549730000D+03  0.7612690966D-01
      0.4445530000D+02  0.2608010331D+00
      0.1302900000D+02  0.6164620782D+00
      0.1827730000D+01  0.2210060280D+00
 SP   3 1.00       0.000000000000
      0.2096420000D+02  0.1146600807D+00  0.4024869267D-01
      0.4803310000D+01  0.9199996477D+00  0.2375939567D+00
      0.1459330000D+01 -0.3030682134D-02  0.8158538515D+00
 SP   1 1.00       0.000000000000
      0.4834560000D+00  0.1000000000D+01  0.1000000000D+01
 SP   1 1.00       0.000000000000
      0.1455850000D+00  0.1000000000D+01  0.1000000000D+01
 SP   1 1.00       0.000000000000
      0.4380000000D-01  0.1000000000D+01  0.1000000000D+01
 D   1 1.00       0.000000000000
      0.6260000000D+00  0.1000000000D+01
 ****
      5 0
 S   6 1.00       0.000000000000
      0.4563240000D+04  0.1966650249D-02
      0.6820240000D+03  0.1523060193D-01
      0.1549730000D+03  0.7612690966D-01
      0.4445530000D+02  0.2608010331D+00
      0.1302900000D+02  0.6164620782D+00
      0.1827730000D+01  0.2210060280D+00
 SP   3 1.00       0.000000000000
      0.2096420000D+02  0.1146600807D+00  0.4024869267D-01
      0.4803310000D+01  0.9199996477D+00  0.2375939567D+00
      0.1459330000D+01 -0.3030682134D-02  0.8158538515D+00
 SP   1 1.00       0.000000000000
      0.4834560000D+00  0.1000000000D+01  0.1000000000D+01
 SP   1 1.00       0.000000000000
      0.1455850000D+00  0.1000000000D+01  0.1000000000D+01
 SP   1 1.00       0.000000000000
      0.4380000000D-01  0.1000000000D+01  0.1000000000D+01
 D   1 1.00       0.000000000000
      0.6260000000D+00  0.1000000000D+01
 ****
      6 0
 S   6 1.00       0.000000000000
      0.8588500000D+04  0.1895150083D-02
      0.1297230000D+04  0.1438590063D-01
      0.2992960000D+03  0.7073200310D-01
      0.8737710000D+02  0.2400010105D+00
      0.2567890000D+02  0.5947970261D+00
      0.3740040000D+01  0.2808020123D+00
 SP   3 1.00       0.000000000000
      0.4211750000D+02  0.1138890124D+00  0.3651139738D-01
      0.9628370000D+01  0.9208111006D+00  0.2371529830D+00
      0.2853320000D+01 -0.3274470358D-02  0.8197019412D+00
 SP   1 1.00       0.000000000000
      0.9056610000D+00  0.1000000000D+01  0.1000000000D+01
 SP   1 1.00       0.000000000000
      0.2556110000D+00  0.1000000000D+01  0.1000000000D+01
 SP   1 1.00       0.000000000000
      0.8450000000D-01  0.1000000000D+01  0.1000000000D+01
 D   1 1.00       0.000000000000
      0.1292000000D+01  0.1000000000D+01
 ****
      7 0
 S   6 1.00       0.000000000000
      0.4563240000D+04  0.1966650249D-02
      0.6820240000D+03  0.1523060193D-01
      0.1549730000D+03  0.7612690966D-01
      0.4445530000D+02  0.2608010331D+00
      0.1302900000D+02  0.6164620782D+00
      0.1827730000D+01  0.2210060280D+00
 SP   3 1.00       0.000000000000
      0.2096420000D+02  0.1146600807D+00  0.4024869267D-01
      0.4803310000D+01  0.9199996477D+00  0.2375939567D+00
      0.1459330000D+01 -0.3030682134D-02  0.8158538515D+00
 SP   1 1.00       0.000000000000
      0.4834560000D+00  0.1000000000D+01  0.1000000000D+01
 SP   1 1.00       0.000000000000
      0.1455850000D+00  0.1000000000D+01  0.1000000000D+01
 SP   1 1.00       0.000000000000
      0.4380000000D-01  0.1000000000D+01  0.1000000000D+01
 D   1 1.00       0.000000000000
      0.6260000000D+00  0.1000000000D+01
 ****
      8 0
 S   6 1.00       0.000000000000
      0.4563240000D+04  0.1966650249D-02
      0.6820240000D+03  0.1523060193D-01
      0.1549730000D+03  0.7612690966D-01
      0.4445530000D+02  0.2608010331D+00
      0.1302900000D+02  0.6164620782D+00
      0.1827730000D+01  0.2210060280D+00
 SP   3 1.00       0.000000000000
      0.2096420000D+02  0.1146600807D+00  0.4024869267D-01
      0.4803310000D+01  0.9199996477D+00  0.2375939567D+00
      0.1459330000D+01 -0.3030682134D-02  0.8158538515D+00
 SP   1 1.00       0.000000000000
      0.4834560000D+00  0.1000000000D+01  0.1000000000D+01
 SP   1 1.00       0.000000000000
      0.1455850000D+00  0.1000000000D+01  0.1000000000D+01
 SP   1 1.00       0.000000000000
      0.4380000000D-01  0.1000000000D+01  0.1000000000D+01
 D   1 1.00       0.000000000000
      0.6260000000D+00  0.1000000000D+01
 ****
      9 0
 S   6 1.00       0.000000000000
      0.4563240000D+04  0.1966650249D-02
      0.6820240000D+03  0.1523060193D-01
      0.1549730000D+03  0.7612690966D-01
      0.4445530000D+02  0.2608010331D+00
      0.1302900000D+02  0.6164620782D+00
      0.1827730000D+01  0.2210060280D+00
 SP   3 1.00       0.000000000000
      0.2096420000D+02  0.1146600807D+00  0.4024869267D-01
      0.4803310000D+01  0.9199996477D+00  0.2375939567D+00
      0.1459330000D+01 -0.3030682134D-02  0.8158538515D+00
 SP   1 1.00       0.000000000000
      0.4834560000D+00  0.1000000000D+01  0.1000000000D+01
 SP   1 1.00       0.000000000000
      0.1455850000D+00  0.1000000000D+01  0.1000000000D+01
 SP   1 1.00       0.000000000000
      0.4380000000D-01  0.1000000000D+01  0.1000000000D+01
 D   1 1.00       0.000000000000
      0.6260000000D+00  0.1000000000D+01
 ****
     10 0
 S   6 1.00       0.000000000000
      0.4563240000D+04  0.1966650249D-02
      0.6820240000D+03  0.1523060193D-01
      0.1549730000D+03  0.7612690966D-01
      0.4445530000D+02  0.2608010331D+00
      0.1302900000D+02  0.6164620782D+00
      0.1827730000D+01  0.2210060280D+00
 SP   3 1.00       0.000000000000
      0.2096420000D+02  0.1146600807D+00  0.4024869267D-01
      0.4803310000D+01  0.9199996477D+00  0.2375939567D+00
      0.1459330000D+01 -0.3030682134D-02  0.8158538515D+00
 SP   1 1.00       0.000000000000
      0.4834560000D+00  0.1000000000D+01  0.1000000000D+01
 SP   1 1.00       0.000000000000
      0.1455850000D+00  0.1000000000D+01  0.1000000000D+01
 SP   1 1.00       0.000000000000
      0.4380000000D-01  0.1000000000D+01  0.1000000000D+01
 D   1 1.00       0.000000000000
      0.6260000000D+00  0.1000000000D+01
 ****
     11 0
 S   6 1.00       0.000000000000
      0.4563240000D+04  0.1966650249D-02
      0.6820240000D+03  0.1523060193D-01
      0.1549730000D+03  0.7612690966D-01
      0.4445530000D+02  0.2608010331D+00
      0.1302900000D+02  0.6164620782D+00
      0.1827730000D+01  0.2210060280D+00
 SP   3 1.00       0.000000000000
      0.2096420000D+02  0.1146600807D+00  0.4024869267D-01
      0.4803310000D+01  0.9199996477D+00  0.2375939567D+00
      0.1459330000D+01 -0.3030682134D-02  0.8158538515D+00
 SP   1 1.00       0.000000000000
      0.4834560000D+00  0.1000000000D+01  0.1000000000D+01
 SP   1 1.00       0.000000000000
      0.1455850000D+00  0.1000000000D+01  0.1000000000D+01
 SP   1 1.00       0.000000000000
      0.4380000000D-01  0.1000000000D+01  0.1000000000D+01
 D   1 1.00       0.000000000000
      0.6260000000D+00  0.1000000000D+01
 ****
     12 0
 S   3 1.00       0.000000000000
      0.3386500000D+02  0.2549381454D-01
      0.5094790000D+01  0.1903731086D+00
      0.1158790000D+01  0.8521614860D+00
 S   1 1.00       0.000000000000
      0.3258400000D+00  0.1000000000D+01
 S   1 1.00       0.000000000000
      0.1027410000D+00  0.1000000000D+01
 P   1 1.00       0.000000000000
      0.7500000000D+00  0.1000000000D+01
 ****
     13 0
 S   3 1.00       0.000000000000
      0.3386500000D+02  0.2549381454D-01
      0.5094790000D+01  0.1903731086D+00
      0.1158790000D+01  0.8521614860D+00
 S   1 1.00       0.000000000000
      0.3258400000D+00  0.1000000000D+01
 S   1 1.00       0.000000000000
      0.1027410000D+00  0.1000000000D+01
 P   1 1.00       0.000000000000
      0.7500000000D+00  0.1000000000D+01
 ****
     14 0
 S   3 1.00       0.000000000000
      0.3386500000D+02  0.2549381454D-01
      0.5094790000D+01  0.1903731086D+00
      0.1158790000D+01  0.8521614860D+00
 S   1 1.00       0.000000000000
      0.3258400000D+00  0.1000000000D+01
 S   1 1.00       0.000000000000
      0.1027410000D+00  0.1000000000D+01
 P   1 1.00       0.000000000000
      0.7500000000D+00  0.1000000000D+01
 ****
     15 0
 S   3 1.00       0.000000000000
      0.3386500000D+02  0.2549381454D-01
      0.5094790000D+01  0.1903731086D+00
      0.1158790000D+01  0.8521614860D+00
 S   1 1.00       0.000000000000
      0.3258400000D+00  0.1000000000D+01
 S   1 1.00       0.000000000000
      0.1027410000D+00  0.1000000000D+01
 P   1 1.00       0.000000000000
      0.7500000000D+00  0.1000000000D+01
 ****
     16 0
 S   3 1.00       0.000000000000
      0.3386500000D+02  0.2549381454D-01
      0.5094790000D+01  0.1903731086D+00
      0.1158790000D+01  0.8521614860D+00
 S   1 1.00       0.000000000000
      0.3258400000D+00  0.1000000000D+01
 S   1 1.00       0.000000000000
      0.1027410000D+00  0.1000000000D+01
 P   1 1.00       0.000000000000
      0.7500000000D+00  0.1000000000D+01
 ****
     17 0
 S   3 1.00       0.000000000000
      0.3386500000D+02  0.2549381454D-01
      0.5094790000D+01  0.1903731086D+00
      0.1158790000D+01  0.8521614860D+00
 S   1 1.00       0.000000000000
      0.3258400000D+00  0.1000000000D+01
 S   1 1.00       0.000000000000
      0.1027410000D+00  0.1000000000D+01
 P   1 1.00       0.000000000000
      0.7500000000D+00  0.1000000000D+01
 ****
     18 0
 S   3 1.00       0.000000000000
      0.3386500000D+02  0.2549381454D-01
      0.5094790000D+01  0.1903731086D+00
      0.1158790000D+01  0.8521614860D+00
 S   1 1.00       0.000000000000
      0.3258400000D+00  0.1000000000D+01
 S   1 1.00       0.000000000000
      0.1027410000D+00  0.1000000000D+01
 P   1 1.00       0.000000000000
      0.7500000000D+00  0.1000000000D+01
 ****
     19 0
 S   3 1.00       0.000000000000
      0.3386500000D+02  0.2549381454D-01
      0.5094790000D+01  0.1903731086D+00
      0.1158790000D+01  0.8521614860D+00
 S   1 1.00       0.000000000000
      0.3258400000D+00  0.1000000000D+01
 S   1 1.00       0.000000000000
      0.1027410000D+00  0.1000000000D+01
 P   1 1.00       0.000000000000
      0.7500000000D+00  0.1000000000D+01
 ****
     20 0
 S   3 1.00       0.000000000000
      0.3386500000D+02  0.2549381454D-01
      0.5094790000D+01  0.1903731086D+00
      0.1158790000D+01  0.8521614860D+00
 S   1 1.00       0.000000000000
      0.3258400000D+00  0.1000000000D+01
 S   1 1.00       0.000000000000
      0.1027410000D+00  0.1000000000D+01
 P   1 1.00       0.000000000000
      0.7500000000D+00  0.1000000000D+01
 ****
     21 0
 S   3 1.00       0.000000000000
      0.3386500000D+02  0.2549381454D-01
      0.5094790000D+01  0.1903731086D+00
      0.1158790000D+01  0.8521614860D+00
 S   1 1.00       0.000000000000
      0.3258400000D+00  0.1000000000D+01
 S   1 1.00       0.000000000000
      0.1027410000D+00  0.1000000000D+01
 P   1 1.00       0.000000000000
      0.7500000000D+00  0.1000000000D+01
 ****
     22 0
 S   3 1.00       0.000000000000
      0.3386500000D+02  0.2549381454D-01
      0.5094790000D+01  0.1903731086D+00
      0.1158790000D+01  0.8521614860D+00
 S   1 1.00       0.000000000000
      0.3258400000D+00  0.1000000000D+01
 S   1 1.00       0.000000000000
      0.1027410000D+00  0.1000000000D+01
 P   1 1.00       0.000000000000
      0.7500000000D+00  0.1000000000D+01
 ****
     23 0
 S   3 1.00       0.000000000000
      0.3386500000D+02  0.2549381454D-01
      0.5094790000D+01  0.1903731086D+00
      0.1158790000D+01  0.8521614860D+00
 S   1 1.00       0.000000000000
      0.3258400000D+00  0.1000000000D+01
 S   1 1.00       0.000000000000
      0.1027410000D+00  0.1000000000D+01
 P   1 1.00       0.000000000000
      0.7500000000D+00  0.1000000000D+01
 ****
     24 0
 S   3 1.00       0.000000000000
      0.3386500000D+02  0.2549381454D-01
      0.5094790000D+01  0.1903731086D+00
      0.1158790000D+01  0.8521614860D+00
 S   1 1.00       0.000000000000
      0.3258400000D+00  0.1000000000D+01
 S   1 1.00       0.000000000000
      0.1027410000D+00  0.1000000000D+01
 P   1 1.00       0.000000000000
      0.7500000000D+00  0.1000000000D+01
 ****
     25 0
 S   3 1.00       0.000000000000
      0.3386500000D+02  0.2549381454D-01
      0.5094790000D+01  0.1903731086D+00
      0.1158790000D+01  0.8521614860D+00
 S   1 1.00       0.000000000000
      0.3258400000D+00  0.1000000000D+01
 S   1 1.00       0.000000000000
      0.1027410000D+00  0.1000000000D+01
 P   1 1.00       0.000000000000
      0.7500000000D+00  0.1000000000D+01
 ****
     26 0
 S   3 1.00       0.000000000000
      0.3386500000D+02  0.2549381454D-01
      0.5094790000D+01  0.1903731086D+00
      0.1158790000D+01  0.8521614860D+00
 S   1 1.00       0.000000000000
      0.3258400000D+00  0.1000000000D+01
 S   1 1.00       0.000000000000
      0.1027410000D+00  0.1000000000D+01
 P   1 1.00       0.000000000000
      0.7500000000D+00  0.1000000000D+01
 ****
     27 0
 S   3 1.00       0.000000000000
      0.3386500000D+02  0.2549381454D-01
      0.5094790000D+01  0.1903731086D+00
      0.1158790000D+01  0.8521614860D+00
 S   1 1.00       0.000000000000
      0.3258400000D+00  0.1000000000D+01
 S   1 1.00       0.000000000000
      0.1027410000D+00  0.1000000000D+01
 P   1 1.00       0.000000000000
      0.7500000000D+00  0.1000000000D+01
 ****
     28 0
 S   3 1.00       0.000000000000
      0.3386500000D+02  0.2549381454D-01
      0.5094790000D+01  0.1903731086D+00
      0.1158790000D+01  0.8521614860D+00
 S   1 1.00       0.000000000000
      0.3258400000D+00  0.1000000000D+01
 S   1 1.00       0.000000000000
      0.1027410000D+00  0.1000000000D+01
 P   1 1.00       0.000000000000
      0.7500000000D+00  0.1000000000D+01
 ****
     29 0
 S   3 1.00       0.000000000000
      0.3386500000D+02  0.2549381454D-01
      0.5094790000D+01  0.1903731086D+00
      0.1158790000D+01  0.8521614860D+00
 S   1 1.00       0.000000000000
      0.3258400000D+00  0.1000000000D+01
 S   1 1.00       0.000000000000
      0.1027410000D+00  0.1000000000D+01
 P   1 1.00       0.000000000000
      0.7500000000D+00  0.1000000000D+01
 ****

   350 basis functions,   540 primitive gaussians,   361 cartesian basis functions
    43 alpha electrons       43 beta electrons
       nuclear repulsion energy       696.2386149472 Hartrees.
 IExCor= 1614 DFT=T Ex+Corr=B971 ExCW=0 ScaHFX=  0.210000
 ScaDFX=  1.000000  1.000000  1.000000  1.000000 ScalE2=  1.000000  1.000000
 IRadAn=      5 IRanWt=     -1 IRanGd=            0 ICorTp=0 IEmpDi=  4
 NAtoms=   29 NActive=   29 NUniq=   29 SFac= 1.00D+00 NAtFMM=   60 NAOKFM=F Big=F
 Integral buffers will be    131072 words long.
 Raffenetti 2 integral format.
 Two-electron integral symmetry is turned off.
 Leave Link  301 at Mon Apr 27 15:20:40 2015, MaxMem=   524288000 cpu:         0.5
 (Enter /opt/g09/l302.exe)
 NPDir=0 NMtPBC=     1 NCelOv=     1 NCel=       1 NClECP=     1 NCelD=      1
         NCelK=      1 NCelE2=     1 NClLst=     1 CellRange=     0.0.
 One-electron integrals computed using PRISM.
 NBasis=   350 RedAO= T EigKep=  2.43D-06  NBF=   350
 NBsUse=   350 1.00D-06 EigRej= -1.00D+00 NBFU=   350
 Precomputing XC quadrature grid using
 IXCGrd= 4 IRadAn=           5 IRanWt=          -1 IRanGd=           0 AccXCQ= 0.00D+00.
 Generated NRdTot=       0 NPtTot=           0 NUsed=           0 NTot=          32
 NSgBfM=   361   361   361   361   361 MxSgAt=    29 MxSgA2=    29.
 Leave Link  302 at Mon Apr 27 15:20:41 2015, MaxMem=   524288000 cpu:         5.0
 (Enter /opt/g09/l303.exe)
 DipDrv:  MaxL=1.
 Leave Link  303 at Mon Apr 27 15:20:41 2015, MaxMem=   524288000 cpu:         0.5
 (Enter /opt/g09/l401.exe)
 ExpMin= 4.38D-02 ExpMax= 8.59D+03 ExpMxC= 1.30D+03 IAcc=3 IRadAn=         5 AccDes= 0.00D+00
 Harris functional with IExCor= 1614 and IRadAn=       5 diagonalized for initial guess.
 HarFok:  IExCor= 1614 AccDes= 0.00D+00 IRadAn=         5 IDoV= 1 UseB2=F ITyADJ=14
 ICtDFT=  3500011 ScaDFX=  1.000000  1.000000  1.000000  1.000000
 FoFCou: FMM=F IPFlag=           0 FMFlag=      100000 FMFlg1=           0
         NFxFlg=           0 DoJE=T BraDBF=F KetDBF=T FulRan=T
         wScrn=  0.000000 ICntrl=     500 IOpCl=  0 I1Cent=   200000004 NGrid=           0
         NMat0=    1 NMatS0=      1 NMatT0=    0 NMatD0=    1 NMtDS0=    0 NMtDT0=    0
 Symmetry not used in FoFCou.
 Harris En= -453.394117326985    
 JPrj=0 DoOrth=F DoCkMO=T.
 Mixing orbitals, IMix= 1 IMixAn=  0 NRI=1 NE=   43 Coef=  7.07106781D-01  7.07106781D-01
 Leave Link  401 at Mon Apr 27 15:20:46 2015, MaxMem=   524288000 cpu:        42.6
 (Enter /opt/g09/l502.exe)
 Closed shell SCF:
 Using DIIS extrapolation, IDIIS=  1040.
 Two-electron integral symmetry not used.
 IVT=      414625 IEndB=      414625 NGot=   524288000 MDV=   524020698
 LenX=   524020698 LenY=   523889936
 Requested convergence on RMS density matrix=1.00D-08 within 128 cycles.
 Requested convergence on MAX density matrix=1.00D-06.
 Requested convergence on             energy=1.00D-06.
 No special actions if energy rises.
 Fock matrices will be formed incrementally for  20 cycles.

 Cycle   1  Pass 1  IDiag  1:
 FoFJK:  IHMeth= 1 ICntrl=       0 DoSepK=F KAlg= 0 I1Cent=   0 FoldK=F
 IRaf= 940000000 NMat=   1 IRICut=       1 DoRegI=T DoRafI=F ISym2E= 0.
 FoFCou: FMM=F IPFlag=           0 FMFlag=      100000 FMFlg1=           0
         NFxFlg=           0 DoJE=F BraDBF=F KetDBF=F FulRan=T
         wScrn=  0.000000 ICntrl=       0 IOpCl=  0 I1Cent=           0 NGrid=           0
         NMat0=    1 NMatS0=      1 NMatT0=    0 NMatD0=    1 NMtDS0=    0 NMtDT0=    0
 Symmetry not used in FoFCou.
 E= -466.476051357206    
 DIIS: error= 6.20D-02 at cycle   1 NSaved=   1.
 NSaved= 1 IEnMin= 1 EnMin= -466.476051357206     IErMin= 1 ErrMin= 6.20D-02
 ErrMax= 6.20D-02  0.00D+00 EMaxC= 1.00D-01 BMatC= 1.13D+00 BMatP= 1.13D+00
 IDIUse=3 WtCom= 3.80D-01 WtEn= 6.20D-01
 Coeff-Com:  0.100D+01
 Coeff-En:   0.100D+01
 Coeff:      0.100D+01
 Gap=     0.013 Goal=   None    Shift=    0.000
 GapD=    0.013 DampG=0.250 DampE=0.500 DampFc=0.2500 IDamp=-1.
 Damping current iteration by 2.50D-01
 RMSDP=7.65D-02 MaxDP=4.26D+00              OVMax= 4.75D-01

 Cycle   2  Pass 1  IDiag  1:
 RMSU=  9.48D-03    CP:  8.15D-01
 E= -466.681543641105     Delta-E=       -0.205492283899 Rises=F Damp=T
 DIIS: error= 4.36D-02 at cycle   2 NSaved=   2.
 NSaved= 2 IEnMin= 2 EnMin= -466.681543641105     IErMin= 2 ErrMin= 4.36D-02
 ErrMax= 4.36D-02  0.00D+00 EMaxC= 1.00D-01 BMatC= 4.80D-01 BMatP= 1.13D+00
 IDIUse=3 WtCom= 5.64D-01 WtEn= 4.36D-01
 Coeff-Com: -0.106D+01 0.206D+01
 Coeff-En:   0.000D+00 0.100D+01
 Coeff:     -0.601D+00 0.160D+01
 Gap=     0.306 Goal=   None    Shift=    0.000
 RMSDP=6.07D-02 MaxDP=3.60D+00 DE=-2.05D-01 OVMax= 1.39D-01

 Cycle   3  Pass 1  IDiag  1:
 RMSU=  8.46D-03    CP:  1.67D-01  2.50D+00
 E= -467.068380680685     Delta-E=       -0.386837039580 Rises=F Damp=F
 DIIS: error= 4.58D-03 at cycle   3 NSaved=   3.
 NSaved= 3 IEnMin= 3 EnMin= -467.068380680685     IErMin= 3 ErrMin= 4.58D-03
 ErrMax= 4.58D-03  0.00D+00 EMaxC= 1.00D-01 BMatC= 7.29D-03 BMatP= 4.80D-01
 IDIUse=3 WtCom= 9.54D-01 WtEn= 4.58D-02
 Coeff-Com: -0.410D-01 0.110D+00 0.931D+00
 Coeff-En:   0.000D+00 0.000D+00 0.100D+01
 Coeff:     -0.391D-01 0.105D+00 0.934D+00
 Gap=     0.276 Goal=   None    Shift=    0.000
 RMSDP=6.18D-03 MaxDP=6.65D-01 DE=-3.87D-01 OVMax= 3.13D-02

 Cycle   4  Pass 1  IDiag  1:
 RMSU=  2.62D-03    CP:  1.36D-01  2.00D+00  1.07D+00
 E= -467.072492489171     Delta-E=       -0.004111808486 Rises=F Damp=F
 DIIS: error= 2.82D-03 at cycle   4 NSaved=   4.
 NSaved= 4 IEnMin= 4 EnMin= -467.072492489171     IErMin= 4 ErrMin= 2.82D-03
 ErrMax= 2.82D-03  0.00D+00 EMaxC= 1.00D-01 BMatC= 4.33D-03 BMatP= 7.29D-03
 IDIUse=3 WtCom= 9.72D-01 WtEn= 2.82D-02
 Coeff-Com: -0.330D-01 0.624D-01 0.422D+00 0.548D+00
 Coeff-En:   0.000D+00 0.000D+00 0.267D+00 0.733D+00
 Coeff:     -0.321D-01 0.606D-01 0.418D+00 0.554D+00
 Gap=     0.270 Goal=   None    Shift=    0.000
 RMSDP=1.21D-03 MaxDP=1.30D-01 DE=-4.11D-03 OVMax= 1.30D-02

 Cycle   5  Pass 1  IDiag  1:
 RMSU=  6.34D-04    CP:  1.41D-01  2.06D+00  1.08D+00  7.32D-01
 E= -467.076059291357     Delta-E=       -0.003566802186 Rises=F Damp=F
 DIIS: error= 1.00D-03 at cycle   5 NSaved=   5.
 NSaved= 5 IEnMin= 5 EnMin= -467.076059291357     IErMin= 5 ErrMin= 1.00D-03
 ErrMax= 1.00D-03  0.00D+00 EMaxC= 1.00D-01 BMatC= 6.12D-04 BMatP= 4.33D-03
 IDIUse=3 WtCom= 9.90D-01 WtEn= 1.00D-02
 Coeff-Com: -0.243D-01 0.371D-01 0.865D-01 0.285D+00 0.616D+00
 Coeff-En:   0.000D+00 0.000D+00 0.000D+00 0.729D-01 0.927D+00
 Coeff:     -0.240D-01 0.367D-01 0.856D-01 0.283D+00 0.619D+00
 Gap=     0.271 Goal=   None    Shift=    0.000
 RMSDP=3.83D-04 MaxDP=3.04D-02 DE=-3.57D-03 OVMax= 4.17D-03

 Cycle   6  Pass 1  IDiag  1:
 RMSU=  2.56D-04    CP:  1.41D-01  2.07D+00  1.06D+00  7.43D-01  6.93D-01
 E= -467.076640657058     Delta-E=       -0.000581365701 Rises=F Damp=F
 DIIS: error= 2.30D-04 at cycle   6 NSaved=   6.
 NSaved= 6 IEnMin= 6 EnMin= -467.076640657058     IErMin= 6 ErrMin= 2.30D-04
 ErrMax= 2.30D-04  0.00D+00 EMaxC= 1.00D-01 BMatC= 1.75D-05 BMatP= 6.12D-04
 IDIUse=3 WtCom= 9.98D-01 WtEn= 2.30D-03
 Coeff-Com: -0.421D-02 0.609D-02 0.597D-02 0.655D-01 0.217D+00 0.710D+00
 Coeff-En:   0.000D+00 0.000D+00 0.000D+00 0.000D+00 0.000D+00 0.100D+01
 Coeff:     -0.420D-02 0.608D-02 0.596D-02 0.654D-01 0.217D+00 0.710D+00
 Gap=     0.271 Goal=   None    Shift=    0.000
 RMSDP=1.27D-04 MaxDP=9.17D-03 DE=-5.81D-04 OVMax= 1.09D-03

 Cycle   7  Pass 1  IDiag  1:
 RMSU=  7.56D-05    CP:  1.41D-01  2.07D+00  1.06D+00  7.52D-01  7.70D-01
                    CP:  8.65D-01
 E= -467.076654627851     Delta-E=       -0.000013970793 Rises=F Damp=F
 DIIS: error= 7.43D-05 at cycle   7 NSaved=   7.
 NSaved= 7 IEnMin= 7 EnMin= -467.076654627851     IErMin= 7 ErrMin= 7.43D-05
 ErrMax= 7.43D-05  0.00D+00 EMaxC= 1.00D-01 BMatC= 3.18D-06 BMatP= 1.75D-05
 IDIUse=1 WtCom= 1.00D+00 WtEn= 0.00D+00
 Coeff-Com:  0.295D-03-0.468D-03-0.163D-02 0.148D-01 0.674D-01 0.359D+00
 Coeff-Com:  0.561D+00
 Coeff:      0.295D-03-0.468D-03-0.163D-02 0.148D-01 0.674D-01 0.359D+00
 Coeff:      0.561D+00
 Gap=     0.271 Goal=   None    Shift=    0.000
 RMSDP=2.89D-05 MaxDP=3.11D-03 DE=-1.40D-05 OVMax= 3.30D-04

 Cycle   8  Pass 1  IDiag  1:
 RMSU=  1.72D-05    CP:  1.41D-01  2.06D+00  1.06D+00  7.55D-01  7.53D-01
                    CP:  8.94D-01  8.60D-01
 E= -467.076657709539     Delta-E=       -0.000003081688 Rises=F Damp=F
 DIIS: error= 1.25D-05 at cycle   8 NSaved=   8.
 NSaved= 8 IEnMin= 8 EnMin= -467.076657709539     IErMin= 8 ErrMin= 1.25D-05
 ErrMax= 1.25D-05  0.00D+00 EMaxC= 1.00D-01 BMatC= 8.52D-08 BMatP= 3.18D-06
 IDIUse=1 WtCom= 1.00D+00 WtEn= 0.00D+00
 Coeff-Com:  0.504D-03-0.749D-03-0.928D-03-0.265D-03 0.385D-02 0.435D-01
 Coeff-Com:  0.161D+00 0.793D+00
 Coeff:      0.504D-03-0.749D-03-0.928D-03-0.265D-03 0.385D-02 0.435D-01
 Coeff:      0.161D+00 0.793D+00
 Gap=     0.271 Goal=   None    Shift=    0.000
 RMSDP=9.00D-06 MaxDP=1.09D-03 DE=-3.08D-06 OVMax= 1.01D-04

 Cycle   9  Pass 1  IDiag  1:
 RMSU=  4.20D-06    CP:  1.41D-01  2.07D+00  1.06D+00  7.53D-01  7.57D-01
                    CP:  9.04D-01  8.37D-01  7.83D-01
 E= -467.076657780522     Delta-E=       -0.000000070983 Rises=F Damp=F
 DIIS: error= 6.31D-06 at cycle   9 NSaved=   9.
 NSaved= 9 IEnMin= 9 EnMin= -467.076657780522     IErMin= 9 ErrMin= 6.31D-06
 ErrMax= 6.31D-06  0.00D+00 EMaxC= 1.00D-01 BMatC= 2.07D-08 BMatP= 8.52D-08
 IDIUse=1 WtCom= 1.00D+00 WtEn= 0.00D+00
 Coeff-Com:  0.141D-03-0.219D-03-0.459D-03-0.109D-02-0.210D-02-0.850D-03
 Coeff-Com:  0.404D-01 0.382D+00 0.582D+00
 Coeff:      0.141D-03-0.219D-03-0.459D-03-0.109D-02-0.210D-02-0.850D-03
 Coeff:      0.404D-01 0.382D+00 0.582D+00
 Gap=     0.271 Goal=   None    Shift=    0.000
 RMSDP=2.18D-06 MaxDP=2.55D-04 DE=-7.10D-08 OVMax= 2.74D-05

 Cycle  10  Pass 1  IDiag  1:
 RMSU=  1.12D-06    CP:  1.41D-01  2.07D+00  1.06D+00  7.54D-01  7.57D-01
                    CP:  9.03D-01  8.45D-01  8.59D-01  7.98D-01
 E= -467.076657798042     Delta-E=       -0.000000017521 Rises=F Damp=F
 DIIS: error= 1.80D-06 at cycle  10 NSaved=  10.
 NSaved=10 IEnMin=10 EnMin= -467.076657798042     IErMin=10 ErrMin= 1.80D-06
 ErrMax= 1.80D-06  0.00D+00 EMaxC= 1.00D-01 BMatC= 1.43D-09 BMatP= 2.07D-08
 IDIUse=1 WtCom= 1.00D+00 WtEn= 0.00D+00
 Coeff-Com: -0.104D-04 0.907D-05-0.107D-03-0.386D-03-0.106D-02-0.343D-02
 Coeff-Com:  0.354D-02 0.948D-01 0.260D+00 0.646D+00
 Coeff:     -0.104D-04 0.907D-05-0.107D-03-0.386D-03-0.106D-02-0.343D-02
 Coeff:      0.354D-02 0.948D-01 0.260D+00 0.646D+00
 Gap=     0.271 Goal=   None    Shift=    0.000
 RMSDP=7.53D-07 MaxDP=8.47D-05 DE=-1.75D-08 OVMax= 7.21D-06

 Cycle  11  Pass 1  IDiag  1:
 RMSU=  2.55D-07    CP:  1.41D-01  2.07D+00  1.06D+00  7.54D-01  7.57D-01
                    CP:  9.03D-01  8.50D-01  8.53D-01  8.14D-01  7.40D-01
 E= -467.076657799516     Delta-E=       -0.000000001474 Rises=F Damp=F
 DIIS: error= 2.77D-07 at cycle  11 NSaved=  11.
 NSaved=11 IEnMin=11 EnMin= -467.076657799516     IErMin=11 ErrMin= 2.77D-07
 ErrMax= 2.77D-07  0.00D+00 EMaxC= 1.00D-01 BMatC= 5.63D-11 BMatP= 1.43D-09
 IDIUse=1 WtCom= 1.00D+00 WtEn= 0.00D+00
 Coeff-Com: -0.772D-05 0.977D-05-0.159D-04-0.109D-03-0.342D-03-0.124D-02
 Coeff-Com: -0.817D-03 0.151D-01 0.657D-01 0.236D+00 0.686D+00
 Coeff:     -0.772D-05 0.977D-05-0.159D-04-0.109D-03-0.342D-03-0.124D-02
 Coeff:     -0.817D-03 0.151D-01 0.657D-01 0.236D+00 0.686D+00
 Gap=     0.271 Goal=   None    Shift=    0.000
 RMSDP=1.64D-07 MaxDP=1.49D-05 DE=-1.47D-09 OVMax= 1.99D-06

 Cycle  12  Pass 1  IDiag  1:
 RMSU=  6.53D-08    CP:  1.41D-01  2.07D+00  1.06D+00  7.54D-01  7.57D-01
                    CP:  9.03D-01  8.50D-01  8.54D-01  8.20D-01  8.02D-01
                    CP:  9.02D-01
 E= -467.076657799520     Delta-E=       -0.000000000003 Rises=F Damp=F
 DIIS: error= 1.47D-07 at cycle  12 NSaved=  12.
 NSaved=12 IEnMin=12 EnMin= -467.076657799520     IErMin=12 ErrMin= 1.47D-07
 ErrMax= 1.47D-07  0.00D+00 EMaxC= 1.00D-01 BMatC= 1.16D-11 BMatP= 5.63D-11
 IDIUse=1 WtCom= 1.00D+00 WtEn= 0.00D+00
 Coeff-Com: -0.491D-06 0.895D-06 0.656D-05-0.839D-05-0.476D-04-0.194D-03
 Coeff-Com: -0.851D-03-0.483D-02-0.177D-02 0.304D-01 0.337D+00 0.641D+00
 Coeff:     -0.491D-06 0.895D-06 0.656D-05-0.839D-05-0.476D-04-0.194D-03
 Coeff:     -0.851D-03-0.483D-02-0.177D-02 0.304D-01 0.337D+00 0.641D+00
 Gap=     0.271 Goal=   None    Shift=    0.000
 RMSDP=6.65D-08 MaxDP=5.50D-06 DE=-3.41D-12 OVMax= 7.41D-07

 Cycle  13  Pass 1  IDiag  1:
 RMSU=  1.95D-08    CP:  1.41D-01  2.07D+00  1.06D+00  7.54D-01  7.57D-01
                    CP:  9.03D-01  8.49D-01  8.53D-01  8.25D-01  7.98D-01
                    CP:  9.45D-01  8.71D-01
 E= -467.076657799522     Delta-E=       -0.000000000003 Rises=F Damp=F
 DIIS: error= 2.65D-08 at cycle  13 NSaved=  13.
 NSaved=13 IEnMin=13 EnMin= -467.076657799522     IErMin=13 ErrMin= 2.65D-08
 ErrMax= 2.65D-08  0.00D+00 EMaxC= 1.00D-01 BMatC= 3.34D-13 BMatP= 1.16D-11
 IDIUse=1 WtCom= 1.00D+00 WtEn= 0.00D+00
 Coeff-Com:  0.244D-06-0.212D-06 0.322D-05 0.236D-05-0.399D-06-0.135D-04
 Coeff-Com: -0.260D-03-0.243D-02-0.383D-02 0.272D-03 0.908D-01 0.243D+00
 Coeff-Com:  0.672D+00
 Coeff:      0.244D-06-0.212D-06 0.322D-05 0.236D-05-0.399D-06-0.135D-04
 Coeff:     -0.260D-03-0.243D-02-0.383D-02 0.272D-03 0.908D-01 0.243D+00
 Coeff:      0.672D+00
 Gap=     0.271 Goal=   None    Shift=    0.000
 RMSDP=1.26D-08 MaxDP=1.00D-06 DE=-2.73D-12 OVMax= 1.25D-07

 Cycle  14  Pass 1  IDiag  1:
 RMSU=  5.84D-09    CP:  1.41D-01  2.07D+00  1.06D+00  7.54D-01  7.57D-01
                    CP:  9.03D-01  8.49D-01  8.53D-01  8.24D-01  8.00D-01
                    CP:  9.58D-01  8.34D-01  7.65D-01
 E= -467.076657799556     Delta-E=       -0.000000000034 Rises=F Damp=F
 DIIS: error= 5.48D-09 at cycle  14 NSaved=  14.
 NSaved=14 IEnMin=14 EnMin= -467.076657799556     IErMin=14 ErrMin= 5.48D-09
 ErrMax= 5.48D-09  0.00D+00 EMaxC= 1.00D-01 BMatC= 2.20D-14 BMatP= 3.34D-13
 IDIUse=1 WtCom= 1.00D+00 WtEn= 0.00D+00
 Coeff-Com:  0.572D-07-0.442D-07 0.641D-06 0.165D-05 0.410D-05 0.106D-04
 Coeff-Com: -0.400D-04-0.610D-03-0.142D-02-0.192D-02 0.105D-01 0.484D-01
 Coeff-Com:  0.244D+00 0.701D+00
 Coeff:      0.572D-07-0.442D-07 0.641D-06 0.165D-05 0.410D-05 0.106D-04
 Coeff:     -0.400D-04-0.610D-03-0.142D-02-0.192D-02 0.105D-01 0.484D-01
 Coeff:      0.244D+00 0.701D+00
 Gap=     0.271 Goal=   None    Shift=    0.000
 RMSDP=2.66D-09 MaxDP=1.39D-07 DE=-3.37D-11 OVMax= 3.55D-08

 SCF Done:  E(RB971) =  -467.076657800     A.U. after   14 cycles
            NFock= 14  Conv=0.27D-08     -V/T= 2.0043
 KE= 4.650914868354D+02 PE=-2.478192359716D+03 EE= 8.497856001338D+02
 Leave Link  502 at Mon Apr 27 15:24:06 2015, MaxMem=   524288000 cpu:      1597.9
 (Enter /opt/g09/l801.exe)
 DoSCS=F DFT=T ScalE2(SS,OS)=  1.000000  1.000000
 Range of M.O.s used for correlation:     1   350
 NBasis=   350 NAE=    43 NBE=    43 NFC=     0 NFV=     0
 NROrb=    350 NOA=    43 NOB=    43 NVA=   307 NVB=   307

 **** Warning!!: The largest alpha MO coefficient is  0.94852939D+02

 Leave Link  801 at Mon Apr 27 15:24:07 2015, MaxMem=   524288000 cpu:         0.3
 (Enter /opt/g09/l1101.exe)
 Using compressed storage, NAtomX=    29.
 Will process     30 centers per pass.
 Leave Link 1101 at Mon Apr 27 15:24:07 2015, MaxMem=   524288000 cpu:         6.6
 (Enter /opt/g09/l1102.exe)
 Symmetrizing basis deriv contribution to polar:
 IMax=3 JMax=2 DiffMx= 0.00D+00
 Leave Link 1102 at Mon Apr 27 15:24:08 2015, MaxMem=   524288000 cpu:         0.5
 (Enter /opt/g09/l1110.exe)
 Forming Gx(P) for the SCF density, NAtomX=    29.
 Integral derivatives from FoFJK, PRISM(SPDF).
 Do as many integral derivatives as possible in FoFJK.
 G2DrvN: MDV=     524287664.
 G2DrvN: will do    30 centers at a time, making    1 passes.
 Calling FoFCou, ICntrl=  3107 FMM=F I1Cent=   0 AccDes= 0.00D+00.
 FoFJK:  IHMeth= 1 ICntrl=    3107 DoSepK=F KAlg= 0 I1Cent=   0 FoldK=F
 IRaf=         0 NMat=   1 IRICut=       1 DoRegI=T DoRafI=F ISym2E= 0.
 FoFCou: FMM=F IPFlag=           0 FMFlag=      100000 FMFlg1=           0
         NFxFlg=           0 DoJE=F BraDBF=F KetDBF=F FulRan=T
         wScrn=  0.000000 ICntrl=    3107 IOpCl=  0 I1Cent=           0 NGrid=           0
         NMat0=    1 NMatS0=      1 NMatT0=    0 NMatD0=    1 NMtDS0=    0 NMtDT0=    0
 Symmetry not used in FoFCou.
 End of G2Drv F.D. properties file   721 does not exist.
 End of G2Drv F.D. properties file   722 does not exist.
 End of G2Drv F.D. properties file   788 does not exist.
 Leave Link 1110 at Mon Apr 27 15:33:01 2015, MaxMem=   524288000 cpu:      4261.5
 (Enter /opt/g09/l1002.exe)
 Minotr:  Closed shell wavefunction.
          IDoAtm=11111111111111111111111111111
          Direct CPHF calculation.
          Differentiating once with respect to electric field.
                with respect to dipole field.
          Differentiating once with respect to nuclear coordinates.
          Requested convergence is 1.0D-08 RMS, and 1.0D-07 maximum.
          Secondary convergence is 1.0D-12 RMS, and 1.0D-12 maximum.
          NewPWx=T KeepS1=F KeepF1=F KeepIn=T MapXYZ=F SortEE=F KeepMc=T.
          MDV=     524287356 using IRadAn=       1.
 Generate precomputed XC quadrature information.
          Solving linear equations simultaneously, MaxMat=       0.
 FoFJK:  IHMeth= 1 ICntrl=       0 DoSepK=F KAlg= 0 I1Cent=   0 FoldK=F
 IRaf= 940000000 NMat=  90 IRICut=     225 DoRegI=T DoRafI=T ISym2E= 0.
 FoFCou: FMM=F IPFlag=           0 FMFlag=      100000 FMFlg1=           0
         NFxFlg=           0 DoJE=F BraDBF=F KetDBF=F FulRan=T
         wScrn=  0.000000 ICntrl=       0 IOpCl=  0 I1Cent=           0 NGrid=           0
         NMat0=   90 NMatS0=     90 NMatT0=    0 NMatD0=   90 NMtDS0=    0 NMtDT0=    0
 Symmetry not used in FoFCou.
          There are    90 degrees of freedom in the 1st order CPHF.  IDoFFX=6 NUNeed=     3.
     87 vectors produced by pass  0 Test12= 1.47D-14 1.11D-09 XBig12= 7.81D+01 1.38D+00.
 AX will form    87 AO Fock derivatives at one time.
     87 vectors produced by pass  1 Test12= 1.47D-14 1.11D-09 XBig12= 6.57D+00 3.29D-01.
     87 vectors produced by pass  2 Test12= 1.47D-14 1.11D-09 XBig12= 6.56D-02 1.87D-02.
     87 vectors produced by pass  3 Test12= 1.47D-14 1.11D-09 XBig12= 1.57D-04 9.48D-04.
     87 vectors produced by pass  4 Test12= 1.47D-14 1.11D-09 XBig12= 2.53D-07 4.18D-05.
     62 vectors produced by pass  5 Test12= 1.47D-14 1.11D-09 XBig12= 2.76D-10 1.62D-06.
     12 vectors produced by pass  6 Test12= 1.47D-14 1.11D-09 XBig12= 2.63D-13 7.09D-08.
      3 vectors produced by pass  7 Test12= 1.47D-14 1.11D-09 XBig12= 1.18D-15 3.35D-09.
 InvSVY:  IOpt=1 It=  1 EMax= 2.66D-14
 Solved reduced A of dimension   512 with    90 vectors.
 FullF1:  Do perturbations    1 to     3.
 Isotropic polarizability for W=    0.000000      117.67 Bohr**3.
 End of Minotr F.D. properties file   721 does not exist.
 End of Minotr F.D. properties file   722 does not exist.
 End of Minotr F.D. properties file   788 does not exist.
 Leave Link 1002 at Mon Apr 27 15:48:12 2015, MaxMem=   524288000 cpu:      7272.7
 (Enter /opt/g09/l701.exe)
 Compute integral second derivatives.
 ... and contract with generalized density number  0.
 Leave Link  701 at Mon Apr 27 15:48:13 2015, MaxMem=   524288000 cpu:         3.4
 (Enter /opt/g09/l702.exe)
 L702 exits ... SP integral derivatives will be done elsewhere.
 Leave Link  702 at Mon Apr 27 15:48:13 2015, MaxMem=   524288000 cpu:         0.3
 (Enter /opt/g09/l703.exe)
 Compute integral second derivatives, UseDBF=F ICtDFT=           0.
 Integral derivatives from FoFJK, PRISM(SPDF).
 Calling FoFJK, ICntrl=    100127 FMM=F ISym2X=0 I1Cent= 0 IOpClX= 0 NMat=1 NMatS=1 NMatT=0.
 FoFJK:  IHMeth= 1 ICntrl=  100127 DoSepK=F KAlg= 0 I1Cent=   0 FoldK=F
 IRaf=         0 NMat=   1 IRICut=       1 DoRegI=T DoRafI=F ISym2E= 0.
 FoFCou: FMM=F IPFlag=           0 FMFlag=      100000 FMFlg1=         800
         NFxFlg=           0 DoJE=F BraDBF=F KetDBF=F FulRan=T
         wScrn=  0.000000 ICntrl=  100127 IOpCl=  0 I1Cent=           0 NGrid=           0
         NMat0=    1 NMatS0=      1 NMatT0=    0 NMatD0=    1 NMtDS0=    0 NMtDT0=    0
 Symmetry not used in FoFCou.
 Leave Link  703 at Mon Apr 27 16:01:04 2015, MaxMem=   524288000 cpu:      6154.0
 (Enter /opt/g09/l716.exe)
 Dipole        =-4.07288365D-01-4.01160738D-01 1.94474647D-01
 Polarizability= 1.24493638D+02-2.86622950D-01 1.11185964D+02
                 4.76776516D+00 2.92055699D+00 1.17329936D+02
 -------------------------------------------------------------------
 Center     Atomic                   Forces (Hartrees/Bohr)
 Number     Number              X              Y              Z
 -------------------------------------------------------------------
      1        6           0.000001650   -0.000002501    0.000002305
      2        6          -0.000001422    0.000003222    0.000003476
      3        6           0.000002016    0.000004718   -0.000006167
      4        6          -0.000001227   -0.000003092   -0.000000268
      5        6           0.000000847   -0.000005066   -0.000003791
      6        8           0.000001126   -0.000000641   -0.000002638
      7        6           0.000003339    0.000002806    0.000003615
      8        6          -0.000005675   -0.000003377    0.000003454
      9        6           0.000001518   -0.000003719    0.000001796
     10        6          -0.000000924    0.000000209   -0.000001809
     11        6           0.000006665    0.000003172    0.000000116
     12        1           0.000000231   -0.000001127   -0.000001143
     13        1           0.000000472   -0.000002144   -0.000001009
     14        1          -0.000000398   -0.000001617    0.000000891
     15        1          -0.000001313   -0.000000810   -0.000000763
     16        1          -0.000000686   -0.000000859   -0.000002654
     17        1          -0.000001543   -0.000001244   -0.000000201
     18        1           0.000001567    0.000002468    0.000000610
     19        1           0.000001246    0.000003782   -0.000001250
     20        1           0.000000615   -0.000000866   -0.000001480
     21        1           0.000000162    0.000001459    0.000000177
     22        1           0.000001782    0.000000098   -0.000000483
     23        1          -0.000000890    0.000002626   -0.000001585
     24        1           0.000000461   -0.000000122    0.000001479
     25        1          -0.000000941   -0.000000449    0.000000423
     26        1          -0.000002249    0.000001549    0.000002245
     27        1          -0.000004323   -0.000000831    0.000003692
     28        1          -0.000001351    0.000000455    0.000000669
     29        1          -0.000000754    0.000001902    0.000000291
 -------------------------------------------------------------------
 Cartesian Forces:  Max     0.000006665 RMS     0.000002294
 FormGI is forming the generalized inverse of G from B-inverse, IUseBI=4.
 Leave Link  716 at Mon Apr 27 16:01:04 2015, MaxMem=   524288000 cpu:         0.4
 (Enter /opt/g09/l103.exe)

 GradGradGradGradGradGradGradGradGradGradGradGradGradGradGradGradGradGrad
 Berny optimization.
 Red2BG is reusing G-inverse.
 Internal  Forces:  Max     0.000004909 RMS     0.000000781
 Search for a local minimum.
 Step number   1 out of a maximum of  174
 All quantities printed in internal units (Hartrees-Bohrs-Radians)
 RMS Force = .78075D-06 SwitMx=.10000D-02 MixMth= 2
 Mixed Optimization -- En-DIIS/RFO-DIIS
 Second derivative matrix not updated -- analytic derivatives used.
 ITU=  0
     Eigenvalues ---    0.00136   0.00173   0.00244   0.00281   0.00310
     Eigenvalues ---    0.00933   0.01365   0.01711   0.02057   0.02452
     Eigenvalues ---    0.02679   0.02983   0.03410   0.03651   0.03839
     Eigenvalues ---    0.04014   0.04090   0.04276   0.04328   0.04377
     Eigenvalues ---    0.04383   0.04474   0.04490   0.04617   0.04702
     Eigenvalues ---    0.04760   0.04992   0.05204   0.05784   0.06180
     Eigenvalues ---    0.06519   0.06812   0.06997   0.08060   0.08283
     Eigenvalues ---    0.08535   0.09020   0.10532   0.11662   0.11898
     Eigenvalues ---    0.11922   0.12416   0.13991   0.14375   0.14513
     Eigenvalues ---    0.14584   0.14890   0.15560   0.15798   0.16875
     Eigenvalues ---    0.17424   0.19202   0.19765   0.21080   0.22925
     Eigenvalues ---    0.23205   0.24896   0.25574   0.26696   0.27399
     Eigenvalues ---    0.29008   0.29953   0.30887   0.32276   0.32392
     Eigenvalues ---    0.32500   0.32612   0.32674   0.32799   0.33006
     Eigenvalues ---    0.33064   0.33095   0.33118   0.33244   0.33375
     Eigenvalues ---    0.33940   0.33979   0.34381   0.34861   0.35131
     Eigenvalues ---    0.53463
 RFO step:  Lambda= 0.00000000D+00 EMin= 1.35518380D-03
 Linear search not attempted -- first point.
 Iteration  1 RMS(Cart)=  0.00001019 RMS(Int)=  0.00000000
 Iteration  2 RMS(Cart)=  0.00000000 RMS(Int)=  0.00000000
 ITry= 1 IFail=0 DXMaxC= 6.27D-05 DCOld= 1.00D+10 DXMaxT= 3.00D-01 DXLimC= 3.00D+00 Rises=F
 Variable       Old X    -DE/DX   Delta X   Delta X   Delta X     New X
                                 (Linear)    (Quad)   (Total)
    R1        2.94335   0.00000   0.00000   0.00000   0.00000   2.94335
    R2        2.91678   0.00000   0.00000   0.00001   0.00001   2.91679
    R3        2.90515   0.00000   0.00000   0.00000   0.00000   2.90515
    R4        2.07540   0.00000   0.00000   0.00000   0.00000   2.07540
    R5        2.95460   0.00000   0.00000  -0.00001  -0.00001   2.95459
    R6        2.71335   0.00000   0.00000   0.00000   0.00000   2.71335
    R7        2.07672   0.00000   0.00000   0.00001   0.00001   2.07672
    R8        2.98344   0.00000   0.00000   0.00002   0.00002   2.98346
    R9        2.94536   0.00000   0.00000   0.00000   0.00000   2.94536
   R10        2.07262   0.00000   0.00000  -0.00001  -0.00001   2.07261
   R11        2.07041   0.00000   0.00000   0.00000   0.00000   2.07041
   R12        2.07117   0.00000   0.00000   0.00001   0.00001   2.07117
   R13        2.06948   0.00000   0.00000   0.00000   0.00000   2.06948
   R14        2.90671   0.00000   0.00000  -0.00001  -0.00001   2.90670
   R15        2.07351   0.00000   0.00000   0.00001   0.00001   2.07352
   R16        2.07475   0.00000   0.00000  -0.00001  -0.00001   2.07473
   R17        1.81758   0.00000   0.00000   0.00000   0.00000   1.81758
   R18        2.96984   0.00000   0.00000   0.00000   0.00000   2.96984
   R19        2.93893   0.00000   0.00000  -0.00001  -0.00001   2.93892
   R20        2.07204   0.00000   0.00000   0.00000   0.00000   2.07204
   R21        2.89941   0.00000   0.00000   0.00000   0.00000   2.89941
   R22        2.91217   0.00000   0.00000  -0.00001  -0.00001   2.91216
   R23        2.06918   0.00000   0.00000   0.00000   0.00000   2.06918
   R24        2.06240   0.00000   0.00000   0.00001   0.00001   2.06240
   R25        2.06233   0.00000   0.00000   0.00001   0.00001   2.06234
   R26        2.07287   0.00000   0.00000   0.00000   0.00000   2.07287
   R27        2.07433   0.00000   0.00000   0.00000   0.00000   2.07434
   R28        2.07323   0.00000   0.00000   0.00002   0.00002   2.07325
   R29        2.07304   0.00000   0.00000   0.00000   0.00000   2.07304
[...]
 000,-0.00226490,-0.00196439,-0.00051821,0.00008247,-0.00038006,0.00986
 898,-0.00779081,0.00797600,0.00074908,0.00014452,0.00069710,-0.0023186
 1,-0.00341417,0.00035797,0.00020582,0.00014375,0.00013805,0.01516281,-
 0.00950746,0.00677828,0.00086010,0.00015001,0.00054647,0.10658104,-0.1
 3377730,0.06204264,-0.00048522,-0.00009506,-0.00029844,0.00028792,-0.0
 0121021,0.00012048,0.00009451,0.00024175,-0.00015761,-0.00000936,0.000
 01351,-0.00003634,-0.00007083,0.00130995,-0.00014459,0.00019976,-0.000
 20594,-0.00020364,-0.00000495,0.00002344,-0.00004828,-0.00006019,0.000
 00221,0.00003117,-0.00013552,0.00018530,0.00008974,0.00097720,-0.00030
 622,0.00083443,-0.00006045,0.00001892,0.00000980,-0.00015711,0.0014963
 1,0.00007539,-0.01284641,0.01139686,-0.00751592,-0.11555142,0.14258879
 ,0.00047573,-0.00391561,-0.00275558,0.00071429,-0.00031392,-0.00045070
 ,0.01667776,-0.01266238,0.01143374,0.00132851,-0.00027894,0.00078201,0
 .00242052,0.00419096,-0.00158157,-0.00025298,0.00007450,0.00018801,-0.
 01556991,0.00942026,-0.00876416,0.00056435,0.00011528,-0.00073010,-0.0
 8248266,0.06306215,-0.08946892,-0.00020567,0.00004952,0.00013067,-0.00
 088804,-0.00072138,-0.00053266,0.00007247,0.00014650,-0.00014376,-0.00
 003452,0.00001402,0.00003297,-0.00025084,0.00163370,0.00119142,0.00034
 921,-0.00029932,-0.00030377,-0.00002453,0.00006052,0.00001630,-0.00007
 392,0.00001599,0.00002825,0.00020463,-0.00005359,0.00033467,-0.0011384
 5,0.00092740,-0.00096577,0.00013597,0.00000112,0.00002783,-0.00007807,
 -0.00118125,0.00072285,-0.01035049,0.00902539,-0.00596209,0.08936911,-
 0.06749398,0.09699522,-0.00008709,0.00035430,-0.00013057,-0.00131603,-
 0.00222419,-0.00169418,0.00046600,0.00001688,0.00026196,-0.00056190,-0
 .00002090,0.00056683,-0.00016882,0.00067580,-0.00036603,-0.00026865,-0
 .00047349,0.00005639,-0.00013527,0.00007876,-0.00021145,-0.00256003,-0
 .00024669,-0.00008537,0.00019755,0.00001760,0.00009880,-0.21300686,0.0
 6256891,-0.11329474,0.00060187,0.00164062,0.00038227,0.00004594,0.0000
 4994,-0.00003266,-0.00146474,-0.00102639,-0.00137794,-0.00000257,-0.00
 000949,-0.00002007,-0.00005609,-0.00013373,0.00000738,-0.00006098,-0.0
 0001671,-0.00001961,-0.00056522,-0.00039788,0.00044034,-0.00008596,-0.
 00023941,0.00021967,-0.00009883,-0.00009925,0.00057885,0.00008496,-0.0
 0002389,0.00002144,-0.00000127,-0.00005426,-0.00000076,0.00004941,0.00
 007488,0.00002721,0.00000350,-0.00011454,0.00005925,0.23538107,-0.0006
 2371,-0.00083598,0.00037601,-0.00107083,-0.00240866,-0.00079232,0.0003
 0693,0.00118574,0.00021710,-0.00034778,0.00002710,-0.00009977,0.000047
 65,-0.00045915,-0.00081541,0.00031152,0.00076834,0.00034711,0.00034616
 ,0.00113245,0.00056457,0.02593543,-0.00559169,0.01743404,0.00018390,0.
 00067001,0.00010569,0.06086487,-0.06993918,0.04119906,-0.00009798,-0.0
 0710406,-0.00057486,0.00000129,0.00017189,-0.00015888,-0.00119553,0.00
 083481,-0.00057432,-0.00012067,0.00004125,-0.00003807,-0.00002764,0.00
 002777,0.00005457,0.00011061,0.00007027,-0.00008296,-0.00014940,0.0002
 1362,0.00021305,-0.00008884,0.00020713,0.00006388,-0.00008218,-0.00007
 136,-0.00046618,-0.00001410,-0.00001441,-0.00014762,-0.00010219,0.0000
 6735,-0.00011239,-0.00008542,0.00002220,-0.00006510,-0.00002618,0.0002
 2446,-0.00000768,-0.06573761,0.07528415,-0.00007255,0.00077030,0.00014
 890,-0.00134799,-0.00123696,-0.00073314,-0.00027670,0.00007024,-0.0001
 2140,0.00028627,0.00072090,0.00033224,-0.00025469,-0.00056177,-0.00010
 405,0.00003079,-0.00041324,-0.00016502,0.00043943,0.00006243,0.0002029
 8,0.00117664,-0.00028849,-0.00156885,0.00000828,0.00006092,0.00019647,
 -0.11287469,0.04211802,-0.12157785,0.00038997,0.00067980,0.00032508,0.
 00006278,-0.00009812,-0.00012622,-0.00128470,-0.00077485,-0.00016875,-
 0.00000872,-0.00002460,-0.00001197,-0.00010435,-0.00018337,0.00000604,
 -0.00017498,-0.00030287,-0.00000902,0.00044918,-0.00032288,-0.00072214
 ,0.00014482,0.00004789,0.00008439,0.00005266,-0.00021204,-0.00048106,-
 0.00003580,0.00000367,0.00001963,-0.00001690,-0.00002822,0.00000675,0.
 00003438,0.00005739,0.00003421,0.00006159,-0.00004538,-0.00006594,0.12
 688786,-0.04398824,0.13144087,0.00011166,-0.00009676,-0.00031471,-0.00
 007660,0.00047189,-0.00011826,0.00025843,0.00036185,-0.00032840,-0.000
 09593,-0.00036372,-0.00004802,0.00000152,0.00006144,0.00004137,-0.0001
 6954,-0.00033781,-0.00011717,0.00032682,0.00022789,-0.00107406,-0.0018
 6824,0.00054971,0.00279740,0.00030761,0.00012600,0.00011329,-0.0478084
 9,0.00959998,0.02334228,0.00002543,0.00033189,0.00086477,-0.00006387,0
 .00003829,0.00008676,0.00018035,-0.00032784,0.00000116,0.00017100,0.00
 004900,0.00002937,0.00009756,0.00014598,0.00002686,0.00001811,0.000071
 32,0.00004176,-0.00053028,0.00007501,-0.00008577,0.00002256,-0.0001041
 6,0.00004492,-0.00013018,-0.00002958,0.00016637,0.00001782,0.00000670,
 0.00005379,-0.00000679,-0.00027016,-0.00003993,0.00003169,0.00010741,-
 0.00006612,-0.00005402,0.00002609,0.00003456,0.00311956,-0.00968676,-0
 .02436731,0.04882747,-0.00007560,-0.00026773,0.00008440,0.00026878,-0.
 00001563,-0.00013082,-0.00081992,0.00091744,0.00004869,-0.00006869,-0.
 00020230,0.00002547,0.00036817,-0.00004018,0.00099029,-0.00012296,0.00
 009339,0.00010933,0.00169273,-0.00417468,0.00277364,0.00472392,-0.0121
 4715,-0.03308034,-0.00024486,-0.00055905,-0.00091975,0.00963339,-0.075
 51826,-0.08341359,-0.00085184,0.00091609,-0.00144645,-0.00005122,0.000
 07114,0.00001565,-0.00017296,0.00005802,0.00001632,-0.00023624,-0.0002
 1680,0.00030819,0.00002534,0.00011621,0.00006892,-0.00004870,-0.000028
 99,0.00002642,-0.00023789,0.00023469,-0.00006606,-0.00006732,0.0001229
 3,-0.00013020,0.00004579,0.00025376,-0.00015502,0.00004348,-0.00002975
 ,-0.00000590,-0.00004446,-0.00065036,-0.00056535,-0.00028166,-0.000434
 30,0.00038450,-0.00000172,-0.00006972,0.00008274,-0.00176863,0.0025275
 4,0.00879111,-0.01123650,0.08446422,0.00012639,-0.00004612,-0.00019645
 ,0.00021380,0.00031733,-0.00007804,0.00011476,-0.00065043,0.00033621,0
 .00011553,-0.00075089,-0.00002225,0.00017365,0.00020615,0.00007201,-0.
 00033548,-0.00021124,-0.00007181,-0.00028093,0.00133419,0.00166429,-0.
 00077306,-0.00012714,-0.00012645,-0.00024285,-0.00020364,0.00007216,0.
 02368277,-0.08285317,-0.26823919,-0.00030204,0.00084692,0.00049686,-0.
 00008396,0.00004184,0.00009830,0.00012523,-0.00022691,-0.00001783,-0.0
 0026024,-0.00028276,0.00005681,0.00014219,0.00023193,0.00003824,0.0000
 0301,0.00007382,0.00002446,0.00003577,0.00048627,0.00003832,-0.0000588
 8,-0.00011015,0.00001512,-0.00003762,-0.00008208,0.00029812,0.00007417
 ,-0.00001170,0.00004421,0.00006332,-0.00005551,-0.00006429,0.00003558,
 -0.00015543,0.00001672,-0.00004111,-0.00008438,0.00008505,0.00269332,-
 0.00537642,-0.01542601,-0.02596342,0.09172208,0.29191677,0.00018964,0.
 00028668,0.00006195,-0.00020357,0.00072681,0.00006504,0.00101580,0.001
 75441,-0.00041231,0.00006525,0.00054969,0.00023959,-0.00015482,-0.0003
 1434,0.00033488,-0.00011041,-0.00042052,-0.00024041,0.00028797,-0.0004
 9384,0.00013842,0.00155701,0.00053458,-0.00207707,0.00008146,-0.000148
 77,-0.00015152,-0.21639270,-0.08534776,0.08314928,0.00070125,0.0011889
 5,-0.00056566,-0.00002179,-0.00007094,-0.00004536,0.00012209,-0.000467
 44,0.00001651,-0.00000238,-0.00010494,0.00005072,-0.00010487,-0.000139
 47,0.00000092,-0.00010372,-0.00016528,0.00001149,-0.00007202,-0.000447
 78,-0.00019519,0.00005496,0.00007352,-0.00011101,-0.00002721,0.0001975
 0,-0.00027017,-0.00001693,0.00002001,0.00006265,-0.00001140,-0.0002448
 1,-0.00020237,0.00001725,-0.00008684,0.00005384,0.00004256,-0.00005527
 ,-0.00008978,-0.02014963,-0.01031196,0.01116859,-0.00269492,-0.0006224
 8,0.00054777,0.23533028,0.00072873,0.00004401,0.00003051,-0.00003136,-
 0.00010276,0.00033429,0.00389065,-0.00347315,0.00002365,0.00012766,-0.
 00021296,-0.00022877,0.00004489,-0.00009565,-0.00021015,0.00005990,0.0
 0015460,-0.00008297,-0.00020181,0.00090651,-0.00046541,-0.02867549,-0.
 01591361,0.01538441,-0.00075011,-0.00058368,0.00016567,-0.08583642,-0.
 08749836,0.04248339,-0.00180974,0.00090028,-0.00010828,-0.00011896,0.0
 0005239,-0.00003786,-0.00005554,0.00011841,-0.00013537,-0.00050561,-0.
 00075539,0.00010185,0.00002454,0.00016170,0.00002766,0.00006626,0.0000
 4745,-0.00001988,-0.00004537,0.00025998,0.00012335,0.00000454,0.000071
 70,-0.00004172,-0.00018619,0.00003347,-0.00025180,-0.00001640,-0.00001
 170,-0.00003516,0.00022607,-0.00020898,-0.00042218,0.00021910,-0.00032
 606,-0.00048760,0.00008410,-0.00009651,-0.00005716,0.00736707,0.003301
 28,-0.00461176,0.00998094,0.00430505,-0.00398787,0.09397716,0.09855088
 ,0.00017145,0.00017184,-0.00013497,-0.00027478,0.00050722,-0.00007257,
 -0.00100116,-0.00074583,0.00090584,0.00005767,-0.00033617,0.00011887,-
 0.00009743,0.00004134,0.00016532,-0.00003379,-0.00029351,-0.00002590,-
 0.00042414,0.00050903,0.00039647,-0.00007500,-0.00004698,-0.00108951,0
 .00014524,0.00013443,0.00030847,0.08222301,0.04203155,-0.08612181,0.00
 053012,0.00014117,-0.00009335,0.00000651,-0.00000135,0.00005866,0.0000
 5949,-0.00031502,-0.00006088,-0.00003141,-0.00023632,-0.00004845,0.000
 07011,0.00010280,0.00003799,-0.00005494,-0.00004606,0.00001038,0.00002
 007,0.00020147,-0.00014097,0.00007147,0.00005713,-0.00007315,-0.000074
 82,-0.00001664,-0.00014409,-0.00001527,0.00001148,0.00003493,0.0001435
 2,0.00011146,0.00022732,-0.00005551,0.00011889,0.00001163,-0.00001120,
 0.00005498,-0.00002362,-0.01453986,-0.00827340,0.00746436,0.02526672,0
 .01302987,-0.01179391,-0.09150704,-0.04711225,0.08996223,-0.00038737,-
 0.00199666,0.00035786,0.00001271,-0.00020112,0.00045668,-0.00354635,0.
 00378722,-0.00340577,0.00001445,-0.00009945,-0.00017571,0.00010864,0.0
 0005273,-0.00007394,0.00002646,0.00008882,-0.00020576,0.00108341,0.000
 28074,0.00137245,-0.02291021,-0.01306398,0.01075261,0.00021840,0.00053
 627,0.00030220,0.00054260,-0.00143752,0.00086859,-0.20283802,-0.090178
 24,0.08506432,-0.00067632,0.00020447,-0.00024092,-0.00003371,0.0001033
 7,-0.00006538,0.00025998,0.00023314,0.00001147,-0.00006275,0.00008213,
 0.00003341,0.00002618,0.00000827,0.00000393,0.00002441,0.00007730,0.00
 007296,0.00000818,0.00002185,-0.00001622,-0.00001211,0.00006174,-0.000
 10145,-0.00000781,0.00000485,-0.00004240,0.00037392,-0.00044504,-0.000
 87127,0.00008649,-0.00002701,-0.00010868,0.00004445,-0.00010332,-0.000
 03809,0.00059431,0.00003209,-0.00025863,-0.00003592,0.00002685,-0.0000
 3684,0.00038070,0.00114288,-0.00049152,0.22440520,0.00026634,0.0001712
 3,-0.00004442,-0.00000577,-0.00000419,0.00007973,0.00104560,0.00027003
 ,0.00037506,-0.00002017,0.00006204,-0.00000152,0.00017533,-0.00006463,
 -0.00024740,-0.00000976,-0.00000385,-0.00005723,-0.00063559,0.00017576
 ,0.00022900,0.00448090,0.00108681,-0.00291029,0.00001347,-0.00062786,0
 .00008029,0.00121604,0.00047800,-0.00027809,-0.09068028,-0.09821246,0.
 04884538,0.00005829,0.00004608,0.00001010,0.00002264,-0.00000691,-0.00
 001599,0.00014408,-0.00011383,-0.00004557,-0.00002349,0.00000612,0.000
 00872,0.00000524,-0.00000890,0.00000088,-0.00001679,-0.00000688,0.0000
 0665,-0.00004264,-0.00000668,-0.00002330,-0.00002693,0.00004007,-0.000
 01813,-0.00000204,-0.00000136,0.00000212,0.00002023,-0.00008180,-0.000
 38447,-0.00018408,0.00017810,-0.00011012,-0.00034083,0.00037918,0.0000
 0923,-0.00012561,0.00009471,-0.00015508,0.00004827,-0.00002941,-0.0000
 4917,0.00022173,-0.00000134,0.00034342,0.09932439,0.10419900,-0.000669
 93,-0.00096995,0.00032275,-0.00004722,-0.00008184,0.00022298,-0.003027
 98,0.00105578,-0.00158494,0.00004277,-0.00007337,-0.00009060,0.0001225
 2,0.00018316,0.00007774,0.00009593,0.00001133,-0.00002011,-0.00008933,
 0.00018153,0.00213976,-0.01457861,-0.00812528,0.00601851,-0.00004386,-
 0.00006848,0.00024453,-0.00012081,-0.00074446,0.00036934,0.08530978,0.
 04829400,-0.09093184,-0.00036399,0.00010656,-0.00010438,0.00001763,-0.
 00000373,-0.00002373,-0.00021580,-0.00004208,0.00016125,-0.00000228,0.
 00002676,0.00003128,-0.00002513,-0.00001552,0.00001302,0.00002694,0.00
 004617,0.00000015,0.00005786,-0.00001174,0.00004959,-0.00000970,-0.000
 01094,-0.00001358,-0.00001210,0.00001453,-0.00001704,0.00060585,0.0000
 1014,-0.00010843,-0.00003260,0.00007901,0.00000835,-0.00001670,-0.0000
 5421,-0.00013451,0.00003037,-0.00030028,-0.00000069,0.00015434,0.00018
 149,-0.00010981,0.00014071,0.00011867,0.00018437,-0.09115469,-0.054533
 75,0.09696689,0.00002843,0.00018392,0.00009449,0.00036548,-0.00009951,
 -0.00017363,0.00242304,0.00056172,-0.00053356,-0.00000201,-0.00004930,
 0.00001651,0.00007715,-0.00144531,-0.00125442,-0.00012431,0.00003208,0
 .00015355,-0.00437088,0.00236872,-0.00239550,0.00130484,-0.01038948,-0
 .02575800,0.00031479,0.00023372,-0.00009742,0.00078449,-0.00119001,-0.
 00022234,-0.04857889,0.01076881,0.02869258,0.00006003,0.00000274,0.000
 03049,-0.00004484,0.00003418,0.00002907,-0.00007327,-0.00025749,0.0007
 6467,0.00002349,0.00000749,0.00001463,-0.00003206,-0.00000735,0.000029
 29,-0.00001568,0.00004523,-0.00001926,-0.00048225,0.00021568,-0.000449
 96,0.00004519,0.00003549,0.00002433,0.00007245,-0.00003357,0.00001096,
 0.00009536,0.00008285,-0.00013583,-0.00002166,0.00004621,0.00002937,-0
 .00011746,-0.00012973,0.00006438,0.00000846,-0.00030399,0.00024841,0.0
 0004039,0.00050950,0.00026116,-0.00006390,0.00017033,0.00016816,-0.002
 98622,0.01039135,0.02332570,0.05302063,-0.00011432,-0.00009653,0.00022
 542,0.00007724,0.00002193,-0.00001798,0.00005099,0.00024117,-0.0007590
 7,-0.00000388,0.00005250,-0.00003407,0.00005111,0.00025066,0.00026393,
 -0.00005166,-0.00003319,0.00000404,0.00084755,-0.00001555,0.00082916,-
 0.00107738,0.00072715,0.00561243,0.00014281,-0.00069238,-0.00012974,0.
 00008494,0.00042874,0.00114817,0.01106128,-0.07972178,-0.08592632,-0.0
 0001740,-0.00000881,-0.00002740,0.00000666,-0.00001364,0.00001894,-0.0
 0029034,-0.00011511,0.00017417,-0.00001206,0.00000056,0.00001709,-0.00
 002657,-0.00001580,0.00002446,0.00000564,-0.00000620,-0.00000975,0.000
 07109,0.00002128,0.00008234,-0.00004523,0.00004115,-0.00002257,0.00001
 637,0.00000722,0.00001146,0.00002858,-0.00014795,0.00004589,-0.0001938
 5,0.00020117,-0.00013954,-0.00020692,0.00043499,-0.00025726,-0.0002010
 1,0.00006586,-0.00009896,0.00040377,0.00002306,0.00002383,-0.00003699,
 -0.00001320,0.00007855,-0.00124741,0.00509601,0.01457131,-0.01321746,0
 .08368524,-0.00010306,-0.00002629,0.00007505,0.00036581,-0.00010933,-0
 .00008673,0.00074935,0.00024103,0.00070776,-0.00002048,-0.00009764,-0.
 00002058,0.00009056,-0.00127586,-0.00048230,-0.00027239,0.00004553,0.0
 0009371,-0.00329063,0.00290580,-0.00036748,0.00153296,-0.00717577,-0.0
 1777730,0.00024167,0.00049785,0.00019449,0.00091314,-0.00095691,0.0003
 6227,0.02836120,-0.08533103,-0.26393484,-0.00003623,0.00003219,0.00001
 276,-0.00007466,0.00010112,0.00001763,-0.00061713,-0.00052007,0.000365
 56,0.00000391,0.00003405,0.00002087,-0.00003223,-0.00001186,0.00004304
 ,-0.00001114,0.00007210,-0.00001372,-0.00037085,0.00018646,-0.00033769
 ,0.00002774,0.00008253,-0.00003019,0.00009758,-0.00003550,0.00000542,0
 .00006493,0.00016960,0.00033748,-0.00006387,-0.00006643,0.00012128,0.0
 0003497,-0.00003075,0.00001325,-0.00007129,0.00008209,0.00055129,-0.00
 039207,0.00095815,0.00049524,-0.00003428,-0.00003346,-0.00009317,0.001
 24880,-0.00495318,-0.01221770,-0.02807035,0.09420533,0.28917983,-0.000
 02579,-0.00000528,0.00006759,0.00009735,0.00025720,-0.00001957,0.00086
 107,0.00096443,0.00033949,0.00010517,0.00006574,0.00008294,-0.00007086
 ,0.00001566,0.00008430,0.00000737,-0.00013340,0.00001303,0.00106304,0.
 00014747,0.00060403,-0.00365699,0.02532581,0.00085338,-0.00109493,0.00
 005433,-0.00106869,-0.00477640,0.00022678,-0.00325271,-0.05581586,0.04
 798596,-0.00316981,-0.00002740,-0.00004407,-0.00000033,0.00007766,-0.0
 0010193,0.00003487,-0.00027783,-0.00020445,0.00035133,0.00002528,-0.00
 005106,-0.00002352,-0.00002664,-0.00001654,0.00000863,0.00002875,-0.00
 006830,-0.00005471,-0.00000644,-0.00002817,-0.00002352,0.00003490,-0.0
 0007640,0.00012043,-0.00000485,0.00001606,0.00003114,0.00004065,-0.000
 29422,-0.00010549,0.00032407,-0.00028617,0.00024987,-0.00053842,-0.001
 67215,-0.00099279,0.00003732,0.00193231,-0.00036366,-0.00002319,-0.000
 38428,0.00000803,0.00028407,0.00011820,-0.00024566,0.00528632,-0.02531
 994,0.00048034,-0.00175078,0.00389446,-0.00027197,0.05982338,0.0000861
 4,0.00011143,-0.00014688,-0.00012383,-0.00013110,-0.00009655,-0.000130
 97,-0.00038740,0.00015465,-0.00003191,-0.00005643,-0.00000336,-0.00011
 229,0.00010870,0.00017763,0.00006626,0.00012113,0.00005852,0.00019607,
 -0.00046227,-0.00019050,-0.00015990,-0.00517632,-0.00020693,-0.0015511
 8,-0.00123721,-0.00119110,0.00222486,0.00054505,0.00155113,0.05009399,
 -0.29863685,0.01718715,0.00008475,0.00003839,0.00001927,-0.00008058,0.
 00008511,-0.00003159,0.00028551,0.00009254,-0.00011295,0.00001099,0.00
 002058,0.00000444,0.00001395,0.00002060,-0.00001528,-0.00002717,0.0000
 6342,0.00003145,0.00006296,0.00002867,0.00007835,-0.00000174,0.0000304
 0,-0.00007552,-0.00001446,-0.00001640,-0.00001925,-0.00000546,0.000030
 14,0.00030252,-0.00026783,0.00040408,-0.00015823,-0.00225107,-0.000098
 14,-0.00158682,0.00006891,-0.00051342,-0.00003583,-0.00023015,0.000280
 77,-0.00001934,-0.00005162,0.00038566,-0.00022308,0.00273064,-0.013113
 05,0.00015518,0.00143315,-0.01041856,0.00101025,-0.05231804,0.32788051
 ,0.00005044,0.00005050,-0.00015990,-0.00004880,0.00015063,0.00009849,0
 .00072930,-0.00018191,0.00067574,0.00006079,0.00000573,0.00005661,0.00
 013100,0.00000048,-0.00004043,0.00006879,-0.00007129,-0.00005110,0.000
 28676,0.00087001,0.00050388,-0.00085038,0.01682010,-0.00179191,-0.0012
 0981,-0.00009047,-0.00033325,-0.00311872,0.00023662,-0.00197503,-0.003
 06468,0.01581998,-0.04724737,-0.00002070,-0.00001294,0.00000713,0.0000
 5950,-0.00006857,0.00000271,0.00009174,-0.00025436,-0.00008799,0.00000
 938,-0.00002022,-0.00001394,-0.00000872,-0.00002041,-0.00000854,0.0000
 1791,-0.00002009,-0.00004651,0.00000034,-0.00002346,-0.00001617,0.0000
 3144,-0.00005176,0.00008815,-0.00002927,0.00001295,0.00000978,0.000201
 67,-0.00003977,-0.00035187,0.00025971,-0.00017235,0.00009396,-0.001027
 21,-0.00129452,-0.00009910,-0.00048743,0.00121674,0.00046890,-0.000150
 45,0.00029620,0.00037716,-0.00014017,-0.00046375,0.00002949,-0.0032580
 1,0.01383713,-0.00145317,0.00515251,-0.02991387,0.00276477,0.00626306,
 -0.01661731,0.04849950\\-0.00000007,0.00000079,0.00000068,-0.00000034,
 0.00000037,0.00000058,0.,0.00000027,0.00000026,0.00000082,0.00000142,0
 .00000077,-0.00000085,-0.00000053,0.,-0.00000103,0.00000068,0.00000115
 ,-0.00000069,-0.00000078,-0.00000030,0.00000025,-0.00000044,-0.0000005
 8,-0.00000096,-0.00000032,0.00000024,0.00000101,-0.00000038,-0.0000008
 8,0.00000048,-0.00000084,-0.00000099,-0.00000054,0.00000106,0.00000121
 ,0.00000012,0.00000041,0.00000029,0.00000030,0.00000057,0.00000032,0.0
 0000074,0.00000179,0.00000113,0.00000102,0.00000177,0.00000096,0.00000
 134,0.00000119,0.00000029,-0.00000156,-0.00000066,0.00000029,-0.000000
 62,-0.00000084,-0.00000037,-0.00000118,0.00000049,0.00000104,-0.000000
 99,-0.00000143,-0.00000069,-0.00000150,-0.00000011,0.00000074,-0.00000
 107,-0.00000058,0.00000011,0.00000095,-0.00000010,-0.00000059,0.000001
 65,-0.00000004,-0.00000094,0.00000106,-0.00000093,-0.00000138,0.000000
 54,-0.00000140,-0.00000150,0.00000112,-0.00000052,-0.00000105,0.,-0.00
 000094,-0.00000080\\\@


 OUR LITTLE SYSTEMS HAVE THEIR DAY,    
   THEY HAVE THEIR DAY AND CEASE TO BE.
   THEY ARE BUT BROKEN LIGHTS OF THEE, 
 AND THOU, OH LORD, ART MORE THAN THEY.
          -------------------          
 LET KNOWLEDGE GROW FROM MORE TO MORE, 
   BUT MORE OF REVERENCE IN US DWELL.  
   THAT MIND AND SOUL, ACCORDING WELL, 
 MAY MAKE ONE MUSIC AS BEFORE.....     
          -------------------          
                    LORD TENNYSON      
 Job cpu time:       0 days  4 hours 56 minutes 59.2 seconds.
 File lengths (MBytes):  RWF=    317 Int=      0 D2E=      0 Chk=     10 Scr=      1
 Normal termination of Gaussian 09 at Mon Apr 27 17:16:09 2015.
