 Entering Gaussian System, Link 0=g09
 Input=0_0freq-b971_26902-55-6.gau
 Output=0_0freq-b971_26902-55-6.log
 Initial command:
 /opt/g09/l1.exe "/scratch/pb556/g09_run/add_hco//Gau-11821.inp" -scrdir="/scratch/pb556/g09_run/add_hco//"
 Entering Link 1 = /opt/g09/l1.exe PID=     11830.
  
 Copyright (c) 1988,1990,1992,1993,1995,1998,2003,2009,2013,
            Gaussian, Inc.  All Rights Reserved.
  
 This is part of the Gaussian(R) 09 program.  It is based on
 the Gaussian(R) 03 system (copyright 2003, Gaussian, Inc.),
 the Gaussian(R) 98 system (copyright 1998, Gaussian, Inc.),
 the Gaussian(R) 94 system (copyright 1995, Gaussian, Inc.),
 the Gaussian 92(TM) system (copyright 1992, Gaussian, Inc.),
 the Gaussian 90(TM) system (copyright 1990, Gaussian, Inc.),
 the Gaussian 88(TM) system (copyright 1988, Gaussian, Inc.),
 the Gaussian 86(TM) system (copyright 1986, Carnegie Mellon
 University), and the Gaussian 82(TM) system (copyright 1983,
 Carnegie Mellon University). Gaussian is a federally registered
 trademark of Gaussian, Inc.
  
 This software contains proprietary and confidential information,
 including trade secrets, belonging to Gaussian, Inc.
  
 This software is provided under written license and may be
 used, copied, transmitted, or stored only in accord with that
 written license.
  
 The following legend is applicable only to US Government
 contracts under FAR:
  
                    RESTRICTED RIGHTS LEGEND
  
 Use, reproduction and disclosure by the US Government is
 subject to restrictions as set forth in subparagraphs (a)
 and (c) of the Commercial Computer Software - Restricted
 Rights clause in FAR 52.227-19.
  
 Gaussian, Inc.
 340 Quinnipiac St., Bldg. 40, Wallingford CT 06492
  
  
 ---------------------------------------------------------------
 Warning -- This program may not be used in any manner that
 competes with the business of Gaussian, Inc. or will provide
 assistance to any competitor of Gaussian, Inc.  The licensee
 of this program is prohibited from giving any competitor of
 Gaussian, Inc. access to this program.  By using this program,
 the user acknowledges that Gaussian, Inc. is engaged in the
 business of creating and licensing software in the field of
 computational chemistry and represents and warrants to the
 licensee that it is not a competitor of Gaussian, Inc. and that
 it will not use this program in any manner prohibited above.
 ---------------------------------------------------------------
  

 Cite this work as:
 Gaussian 09, Revision D.01,
 M. J. Frisch, G. W. Trucks, H. B. Schlegel, G. E. Scuseria, 
 M. A. Robb, J. R. Cheeseman, G. Scalmani, V. Barone, B. Mennucci, 
 G. A. Petersson, H. Nakatsuji, M. Caricato, X. Li, H. P. Hratchian, 
 A. F. Izmaylov, J. Bloino, G. Zheng, J. L. Sonnenberg, M. Hada, 
 M. Ehara, K. Toyota, R. Fukuda, J. Hasegawa, M. Ishida, T. Nakajima, 
 Y. Honda, O. Kitao, H. Nakai, T. Vreven, J. A. Montgomery, Jr., 
 J. E. Peralta, F. Ogliaro, M. Bearpark, J. J. Heyd, E. Brothers, 
 K. N. Kudin, V. N. Staroverov, T. Keith, R. Kobayashi, J. Normand, 
 K. Raghavachari, A. Rendell, J. C. Burant, S. S. Iyengar, J. Tomasi, 
 M. Cossi, N. Rega, J. M. Millam, M. Klene, J. E. Knox, J. B. Cross, 
 V. Bakken, C. Adamo, J. Jaramillo, R. Gomperts, R. E. Stratmann, 
 O. Yazyev, A. J. Austin, R. Cammi, C. Pomelli, J. W. Ochterski, 
 R. L. Martin, K. Morokuma, V. G. Zakrzewski, G. A. Voth, 
 P. Salvador, J. J. Dannenberg, S. Dapprich, A. D. Daniels, 
 O. Farkas, J. B. Foresman, J. V. Ortiz, J. Cioslowski, 
 and D. J. Fox, Gaussian, Inc., Wallingford CT, 2013.
 
 ******************************************
 Gaussian 09:  ES64L-G09RevD.01 24-Apr-2013
                26-Apr-2015 
 ******************************************
 %NProcShared=8
 Will use up to    8 processors via shared memory.
 %Mem=500MW
 ----------------------------------------------------------------------
 #p rB971/6-311+G(d,p) Opt=(Tight, CalcAll) Freq GFInput Population=Non
 e Integral(Grid=UltraFine) Guess=MIX NoSymmetry
 ----------------------------------------------------------------------
 1/7=10,10=4,14=-1,18=20,19=15,26=4,38=1/1,3;
 2/9=110,12=2,15=1,17=6,18=5,40=1/2;
 3/5=4,6=6,7=111,11=2,16=1,24=10,25=1,30=1,71=2,74=-20,75=-5,116=1,140=1/1,2,3;
 4/13=-1/1;
 5/5=2,38=5/2;
 8/6=4,10=90,11=11/1;
 11/6=1,8=1,9=11,15=111,16=1,31=1/1,2,10;
 10/6=1,31=1/2;
 7/10=1,25=1,30=1/1,2,3,16;
 1/7=10,10=4,14=-1,18=20,19=15,26=4/3(3);
 2/9=110,15=1/2;
 7/8=1,9=1,25=1,30=1,44=-1/16;
 99//99;
 2/9=110,15=1/2;
 3/5=4,6=6,7=111,11=2,16=1,25=1,30=1,71=2,74=-20,75=-5,116=1,140=1/1,2,3;
 4/5=5,16=3,69=1/1;
 5/5=2,38=5/2;
 8/6=4,10=90,11=11/1;
 11/6=1,8=1,9=11,15=111,16=1,31=1/1,2,10;
 10/6=1,31=1/2;
 7/10=1,25=1,30=1/1,2,3,16;
 1/7=10,10=4,14=-1,18=20,19=15,26=4/3(-8);
 2/9=110,15=1/2;
 7/8=1,9=1,25=1,30=1,44=-1/16;
 99//99;
 Leave Link    1 at Sun Apr 26 02:52:49 2015, MaxMem=   524288000 cpu:         0.6
 (Enter /opt/g09/l101.exe)
 ------------------------
 freq-b971_26902-55-6.gau
 ------------------------
 Symbolic Z-matrix:
 Charge =  0 Multiplicity = 1
 C                     3.0799    3.83523   3.31483 
 C                     3.81386   2.67514   4.20623 
 C                     1.8955    4.38968   4.1459 
 C                     4.12261   4.96948   3.09505 
 C                     2.73495   3.32329   1.895 
 C                     4.49883   3.37862   5.42 
 C                     4.90561   1.81909   3.51358 
 C                     2.75323   1.73587   4.83298 
 C                     0.89148   5.46742   3.75277 
 C                     0.4146    4.06115   4.06109 
 C                     4.14443   6.30989   3.80386 
 C                     3.83931   6.24265   2.31839 
 C                     1.58465   3.75617   0.99122 
 C                     1.68135   2.31944   1.46305 
 C                     5.36488   2.6686    6.44673 
 C                     5.97239   3.71714   5.53236 
 C                     4.83629   0.9536    2.26476 
 C                     5.8119    2.11421   2.3263 
 C                     2.10576   0.52947   4.18066 
 C                     3.04723   0.33745   5.35346 
 H                     2.19554   4.53298   5.17894 
 H                     5.11775   4.5767    2.91899 
 H                     3.64417   3.23054   1.30927 
 H                     3.86633   4.12925   5.8824 
 H                     5.47023   1.30138   4.28445 
 H                     2.07483   2.27856   5.48496 
 H                     0.83474   5.80497   2.72599 
 H                     0.69553   6.24994   4.48034 
 H                    -0.11151   3.88825   4.99566 
 H                     0.0374    3.47106   3.2363 
 H                     5.10983   6.69399   4.11994 
 H                     3.32183   6.56622   4.46183 
 H                     2.82043   6.44525   2.01105 
 H                     4.59383   6.58665   1.61696 
 H                     1.83125   3.97723  -0.04295 
 H                     0.76907   4.35131   1.3786 
 H                     1.968     1.55755   0.74277 
 H                     0.95761   1.97908   2.19232 
 H                     5.64429   1.63305   6.28455 
 H                     5.20704   2.91831   7.49167 
 H                     6.24091   4.68293   5.9498 
 H                     6.64036   3.3651    4.75361 
 H                     3.99243   1.05535   1.59684 
 H                     5.22972  -0.05657   2.33671 
 H                     5.61346   2.96353   1.68449 
 H                     6.86979   1.89619   2.44404 
 H                     1.04071   0.38154   4.33709 
 H                     2.46579   0.20859   3.21132 
 H                     2.63389   0.06239   6.3191 
 H                     4.0075   -0.11679   5.13554 
 
 NAtoms=     50 NQM=       50 NQMF=       0 NMMI=      0 NMMIF=      0
                NMic=       0 NMicF=      0.
                    Isotopes and Nuclear Properties:
 (Nuclear quadrupole moments (NQMom) in fm**2, nuclear magnetic moments (NMagM)
  in nuclear magnetons)

  Atom         1           2           3           4           5           6           7           8           9          10
 IAtWgt=          12          12          12          12          12          12          12          12          12          12
 AtmWgt=  12.0000000  12.0000000  12.0000000  12.0000000  12.0000000  12.0000000  12.0000000  12.0000000  12.0000000  12.0000000
 NucSpn=           0           0           0           0           0           0           0           0           0           0
 AtZEff=   0.0000000   0.0000000   0.0000000   0.0000000   0.0000000   0.0000000   0.0000000   0.0000000   0.0000000   0.0000000
 NQMom=    0.0000000   0.0000000   0.0000000   0.0000000   0.0000000   0.0000000   0.0000000   0.0000000   0.0000000   0.0000000
 NMagM=    0.0000000   0.0000000   0.0000000   0.0000000   0.0000000   0.0000000   0.0000000   0.0000000   0.0000000   0.0000000
 AtZNuc=   6.0000000   6.0000000   6.0000000   6.0000000   6.0000000   6.0000000   6.0000000   6.0000000   6.0000000   6.0000000

  Atom        11          12          13          14          15          16          17          18          19          20
 IAtWgt=          12          12          12          12          12          12          12          12          12          12
 AtmWgt=  12.0000000  12.0000000  12.0000000  12.0000000  12.0000000  12.0000000  12.0000000  12.0000000  12.0000000  12.0000000
 NucSpn=           0           0           0           0           0           0           0           0           0           0
 AtZEff=   0.0000000   0.0000000   0.0000000   0.0000000   0.0000000   0.0000000   0.0000000   0.0000000   0.0000000   0.0000000
 NQMom=    0.0000000   0.0000000   0.0000000   0.0000000   0.0000000   0.0000000   0.0000000   0.0000000   0.0000000   0.0000000
 NMagM=    0.0000000   0.0000000   0.0000000   0.0000000   0.0000000   0.0000000   0.0000000   0.0000000   0.0000000   0.0000000
 AtZNuc=   6.0000000   6.0000000   6.0000000   6.0000000   6.0000000   6.0000000   6.0000000   6.0000000   6.0000000   6.0000000

  Atom        21          22          23          24          25          26          27          28          29          30
 IAtWgt=           1           1           1           1           1           1           1           1           1           1
 AtmWgt=   1.0078250   1.0078250   1.0078250   1.0078250   1.0078250   1.0078250   1.0078250   1.0078250   1.0078250   1.0078250
 NucSpn=           1           1           1           1           1           1           1           1           1           1
 AtZEff=   0.0000000   0.0000000   0.0000000   0.0000000   0.0000000   0.0000000   0.0000000   0.0000000   0.0000000   0.0000000
 NQMom=    0.0000000   0.0000000   0.0000000   0.0000000   0.0000000   0.0000000   0.0000000   0.0000000   0.0000000   0.0000000
 NMagM=    2.7928460   2.7928460   2.7928460   2.7928460   2.7928460   2.7928460   2.7928460   2.7928460   2.7928460   2.7928460
 AtZNuc=   1.0000000   1.0000000   1.0000000   1.0000000   1.0000000   1.0000000   1.0000000   1.0000000   1.0000000   1.0000000

  Atom        31          32          33          34          35          36          37          38          39          40
 IAtWgt=           1           1           1           1           1           1           1           1           1           1
 AtmWgt=   1.0078250   1.0078250   1.0078250   1.0078250   1.0078250   1.0078250   1.0078250   1.0078250   1.0078250   1.0078250
 NucSpn=           1           1           1           1           1           1           1           1           1           1
 AtZEff=   0.0000000   0.0000000   0.0000000   0.0000000   0.0000000   0.0000000   0.0000000   0.0000000   0.0000000   0.0000000
 NQMom=    0.0000000   0.0000000   0.0000000   0.0000000   0.0000000   0.0000000   0.0000000   0.0000000   0.0000000   0.0000000
 NMagM=    2.7928460   2.7928460   2.7928460   2.7928460   2.7928460   2.7928460   2.7928460   2.7928460   2.7928460   2.7928460
 AtZNuc=   1.0000000   1.0000000   1.0000000   1.0000000   1.0000000   1.0000000   1.0000000   1.0000000   1.0000000   1.0000000

  Atom        41          42          43          44          45          46          47          48          49          50
 IAtWgt=           1           1           1           1           1           1           1           1           1           1
 AtmWgt=   1.0078250   1.0078250   1.0078250   1.0078250   1.0078250   1.0078250   1.0078250   1.0078250   1.0078250   1.0078250
 NucSpn=           1           1           1           1           1           1           1           1           1           1
 AtZEff=   0.0000000   0.0000000   0.0000000   0.0000000   0.0000000   0.0000000   0.0000000   0.0000000   0.0000000   0.0000000
 NQMom=    0.0000000   0.0000000   0.0000000   0.0000000   0.0000000   0.0000000   0.0000000   0.0000000   0.0000000   0.0000000
 NMagM=    2.7928460   2.7928460   2.7928460   2.7928460   2.7928460   2.7928460   2.7928460   2.7928460   2.7928460   2.7928460
 AtZNuc=   1.0000000   1.0000000   1.0000000   1.0000000   1.0000000   1.0000000   1.0000000   1.0000000   1.0000000   1.0000000
 Leave Link  101 at Sun Apr 26 02:52:49 2015, MaxMem=   524288000 cpu:         2.1
 (Enter /opt/g09/l103.exe)

 GradGradGradGradGradGradGradGradGradGradGradGradGradGradGradGradGradGrad
 Berny optimization.
 Initialization pass.
                           ----------------------------
                           !    Initial Parameters    !
                           ! (Angstroms and Degrees)  !
 --------------------------                            --------------------------
 ! Name  Definition              Value          Derivative Info.                !
 --------------------------------------------------------------------------------
 ! R1    R(1,2)                  1.6368         calculate D2E/DX2 analytically  !
 ! R2    R(1,3)                  1.5495         calculate D2E/DX2 analytically  !
 ! R3    R(1,4)                  1.5563         calculate D2E/DX2 analytically  !
 ! R4    R(1,5)                  1.5482         calculate D2E/DX2 analytically  !
 ! R5    R(2,6)                  1.5612         calculate D2E/DX2 analytically  !
 ! R6    R(2,7)                  1.5506         calculate D2E/DX2 analytically  !
 ! R7    R(2,8)                  1.5492         calculate D2E/DX2 analytically  !
 ! R8    R(3,9)                  1.5245         calculate D2E/DX2 analytically  !
 ! R9    R(3,10)                 1.5193         calculate D2E/DX2 analytically  !
 ! R10   R(3,21)                 1.0852         calculate D2E/DX2 analytically  !
 ! R11   R(4,11)                 1.5164         calculate D2E/DX2 analytically  !
 ! R12   R(4,12)                 1.518          calculate D2E/DX2 analytically  !
 ! R13   R(4,22)                 1.0842         calculate D2E/DX2 analytically  !
 ! R14   R(5,13)                 1.5256         calculate D2E/DX2 analytically  !
 ! R15   R(5,14)                 1.518          calculate D2E/DX2 analytically  !
 ! R16   R(5,23)                 1.0855         calculate D2E/DX2 analytically  !
 ! R17   R(6,15)                 1.5193         calculate D2E/DX2 analytically  !
 ! R18   R(6,16)                 1.5161         calculate D2E/DX2 analytically  !
 ! R19   R(6,24)                 1.085          calculate D2E/DX2 analytically  !
 ! R20   R(7,17)                 1.521          calculate D2E/DX2 analytically  !
 ! R21   R(7,18)                 1.5225         calculate D2E/DX2 analytically  !
 ! R22   R(7,25)                 1.0868         calculate D2E/DX2 analytically  !
 ! R23   R(8,19)                 1.5166         calculate D2E/DX2 analytically  !
 ! R24   R(8,20)                 1.5208         calculate D2E/DX2 analytically  !
 ! R25   R(8,26)                 1.0862         calculate D2E/DX2 analytically  !
 ! R26   R(9,10)                 1.5166         calculate D2E/DX2 analytically  !
 ! R27   R(9,27)                 1.0823         calculate D2E/DX2 analytically  !
 ! R28   R(9,28)                 1.0863         calculate D2E/DX2 analytically  !
 ! R29   R(10,29)                1.0863         calculate D2E/DX2 analytically  !
 ! R30   R(10,30)                1.082          calculate D2E/DX2 analytically  !
 ! R31   R(11,12)                1.518          calculate D2E/DX2 analytically  !
 ! R32   R(11,31)                1.086          calculate D2E/DX2 analytically  !
 ! R33   R(11,32)                1.0841         calculate D2E/DX2 analytically  !
 ! R34   R(12,33)                1.0833         calculate D2E/DX2 analytically  !
 ! R35   R(12,34)                1.0861         calculate D2E/DX2 analytically  !
 ! R36   R(13,14)                1.5153         calculate D2E/DX2 analytically  !
 ! R37   R(13,35)                1.0859         calculate D2E/DX2 analytically  !
 ! R38   R(13,36)                1.0814         calculate D2E/DX2 analytically  !
 ! R39   R(14,37)                1.0869         calculate D2E/DX2 analytically  !
 ! R40   R(14,38)                1.0823         calculate D2E/DX2 analytically  !
 ! R41   R(15,16)                1.5181         calculate D2E/DX2 analytically  !
 ! R42   R(15,39)                1.0848         calculate D2E/DX2 analytically  !
 ! R43   R(15,40)                1.0859         calculate D2E/DX2 analytically  !
 ! R44   R(16,41)                1.0859         calculate D2E/DX2 analytically  !
 ! R45   R(16,42)                1.0847         calculate D2E/DX2 analytically  !
 ! R46   R(17,18)                1.5174         calculate D2E/DX2 analytically  !
 ! R47   R(17,43)                1.081          calculate D2E/DX2 analytically  !
 ! R48   R(17,44)                1.0865         calculate D2E/DX2 analytically  !
 ! R49   R(18,45)                1.0829         calculate D2E/DX2 analytically  !
 ! R50   R(18,46)                1.0865         calculate D2E/DX2 analytically  !
 ! R51   R(19,20)                1.5161         calculate D2E/DX2 analytically  !
 ! R52   R(19,47)                1.0866         calculate D2E/DX2 analytically  !
 ! R53   R(19,48)                1.0827         calculate D2E/DX2 analytically  !
 ! R54   R(20,49)                1.0858         calculate D2E/DX2 analytically  !
 ! R55   R(20,50)                1.0844         calculate D2E/DX2 analytically  !
 ! A1    A(2,1,3)              107.7146         calculate D2E/DX2 analytically  !
 ! A2    A(2,1,4)              107.0392         calculate D2E/DX2 analytically  !
 ! A3    A(2,1,5)              111.4067         calculate D2E/DX2 analytically  !
 ! A4    A(3,1,4)              109.092          calculate D2E/DX2 analytically  !
 ! A5    A(3,1,5)              116.0967         calculate D2E/DX2 analytically  !
 ! A6    A(4,1,5)              105.1152         calculate D2E/DX2 analytically  !
 ! A7    A(1,2,6)              107.5044         calculate D2E/DX2 analytically  !
 ! A8    A(1,2,7)              117.6275         calculate D2E/DX2 analytically  !
 ! A9    A(1,2,8)              110.0626         calculate D2E/DX2 analytically  !
 ! A10   A(6,2,7)              106.6866         calculate D2E/DX2 analytically  !
 ! A11   A(6,2,8)              105.0136         calculate D2E/DX2 analytically  !
 ! A12   A(7,2,8)              109.149          calculate D2E/DX2 analytically  !
 ! A13   A(1,3,9)              128.175          calculate D2E/DX2 analytically  !
 ! A14   A(1,3,10)             129.625          calculate D2E/DX2 analytically  !
 ! A15   A(1,3,21)             110.2718         calculate D2E/DX2 analytically  !
 ! A16   A(9,3,21)             109.5242         calculate D2E/DX2 analytically  !
 ! A17   A(10,3,21)            110.5597         calculate D2E/DX2 analytically  !
 ! A18   A(1,4,11)             126.0041         calculate D2E/DX2 analytically  !
 ! A19   A(1,4,12)             123.9499         calculate D2E/DX2 analytically  !
 ! A20   A(1,4,22)             111.9529         calculate D2E/DX2 analytically  !
 ! A21   A(11,4,22)            112.5137         calculate D2E/DX2 analytically  !
 ! A22   A(12,4,22)            113.0814         calculate D2E/DX2 analytically  !
 ! A23   A(1,5,13)             128.1309         calculate D2E/DX2 analytically  !
 ! A24   A(1,5,14)             129.3649         calculate D2E/DX2 analytically  !
 ! A25   A(1,5,23)             109.662          calculate D2E/DX2 analytically  !
 ! A26   A(13,5,23)            109.6414         calculate D2E/DX2 analytically  !
 ! A27   A(14,5,23)            111.7957         calculate D2E/DX2 analytically  !
 ! A28   A(2,6,15)             124.3963         calculate D2E/DX2 analytically  !
 ! A29   A(2,6,16)             125.7793         calculate D2E/DX2 analytically  !
 ! A30   A(2,6,24)             112.7862         calculate D2E/DX2 analytically  !
 ! A31   A(15,6,24)            111.5669         calculate D2E/DX2 analytically  !
 ! A32   A(16,6,24)            112.3657         calculate D2E/DX2 analytically  !
 ! A33   A(2,7,17)             130.4514         calculate D2E/DX2 analytically  !
 ! A34   A(2,7,18)             131.3315         calculate D2E/DX2 analytically  !
 ! A35   A(2,7,25)             108.1758         calculate D2E/DX2 analytically  !
 ! A36   A(17,7,25)            109.5726         calculate D2E/DX2 analytically  !
 ! A37   A(18,7,25)            109.6466         calculate D2E/DX2 analytically  !
 ! A38   A(2,8,19)             126.9096         calculate D2E/DX2 analytically  !
 ! A39   A(2,8,20)             124.3055         calculate D2E/DX2 analytically  !
 ! A40   A(2,8,26)             111.5626         calculate D2E/DX2 analytically  !
 ! A41   A(19,8,26)            112.89           calculate D2E/DX2 analytically  !
 ! A42   A(20,8,26)            112.0074         calculate D2E/DX2 analytically  !
 ! A43   A(3,9,27)             119.9762         calculate D2E/DX2 analytically  !
 ! A44   A(3,9,28)             117.0856         calculate D2E/DX2 analytically  !
 ! A45   A(10,9,27)            117.7468         calculate D2E/DX2 analytically  !
 ! A46   A(10,9,28)            118.3632         calculate D2E/DX2 analytically  !
 ! A47   A(27,9,28)            113.6576         calculate D2E/DX2 analytically  !
 ! A48   A(3,10,29)            117.2879         calculate D2E/DX2 analytically  !
 ! A49   A(3,10,30)            120.0188         calculate D2E/DX2 analytically  !
 ! A50   A(9,10,29)            118.3439         calculate D2E/DX2 analytically  !
 ! A51   A(9,10,30)            117.4088         calculate D2E/DX2 analytically  !
 ! A52   A(29,10,30)           113.5877         calculate D2E/DX2 analytically  !
 ! A53   A(4,11,31)            117.4809         calculate D2E/DX2 analytically  !
 ! A54   A(4,11,32)            118.8006         calculate D2E/DX2 analytically  !
 ! A55   A(12,11,31)           118.6305         calculate D2E/DX2 analytically  !
 ! A56   A(12,11,32)           116.8644         calculate D2E/DX2 analytically  !
 ! A57   A(31,11,32)           114.4714         calculate D2E/DX2 analytically  !
 ! A58   A(4,12,33)            118.5232         calculate D2E/DX2 analytically  !
 ! A59   A(4,12,34)            117.8012         calculate D2E/DX2 analytically  !
 ! A60   A(11,12,33)           117.2829         calculate D2E/DX2 analytically  !
 ! A61   A(11,12,34)           118.5758         calculate D2E/DX2 analytically  !
 ! A62   A(33,12,34)           114.2623         calculate D2E/DX2 analytically  !
 ! A63   A(5,13,35)            116.7904         calculate D2E/DX2 analytically  !
 ! A64   A(5,13,36)            120.8376         calculate D2E/DX2 analytically  !
 ! A65   A(14,13,35)           118.3635         calculate D2E/DX2 analytically  !
 ! A66   A(14,13,36)           117.2833         calculate D2E/DX2 analytically  !
 ! A67   A(35,13,36)           113.6026         calculate D2E/DX2 analytically  !
 ! A68   A(5,14,37)            117.9727         calculate D2E/DX2 analytically  !
 ! A69   A(5,14,38)            118.707          calculate D2E/DX2 analytically  !
 ! A70   A(13,14,37)           118.3651         calculate D2E/DX2 analytically  !
 ! A71   A(13,14,38)           117.7286         calculate D2E/DX2 analytically  !
 ! A72   A(37,14,38)           113.7292         calculate D2E/DX2 analytically  !
 ! A73   A(6,15,39)            119.4662         calculate D2E/DX2 analytically  !
 ! A74   A(6,15,40)            117.3853         calculate D2E/DX2 analytically  !
 ! A75   A(16,15,39)           117.7899         calculate D2E/DX2 analytically  !
 ! A76   A(16,15,40)           118.6161         calculate D2E/DX2 analytically  !
 ! A77   A(39,15,40)           113.63           calculate D2E/DX2 analytically  !
 ! A78   A(6,16,41)            117.8673         calculate D2E/DX2 analytically  !
 ! A79   A(6,16,42)            118.2198         calculate D2E/DX2 analytically  !
 ! A80   A(15,16,41)           118.7985         calculate D2E/DX2 analytically  !
 ! A81   A(15,16,42)           117.0456         calculate D2E/DX2 analytically  !
 ! A82   A(41,16,42)           114.3543         calculate D2E/DX2 analytically  !
 ! A83   A(7,17,43)            119.296          calculate D2E/DX2 analytically  !
 ! A84   A(7,17,44)            117.2705         calculate D2E/DX2 analytically  !
 ! A85   A(18,17,43)           117.0621         calculate D2E/DX2 analytically  !
 ! A86   A(18,17,44)           118.4006         calculate D2E/DX2 analytically  !
 ! A87   A(43,17,44)           114.2748         calculate D2E/DX2 analytically  !
 ! A88   A(7,18,45)            120.3398         calculate D2E/DX2 analytically  !
 ! A89   A(7,18,46)            117.1402         calculate D2E/DX2 analytically  !
 ! A90   A(17,18,45)           117.2597         calculate D2E/DX2 analytically  !
 ! A91   A(17,18,46)           118.4839         calculate D2E/DX2 analytically  !
 ! A92   A(45,18,46)           113.5799         calculate D2E/DX2 analytically  !
 ! A93   A(8,19,47)            117.6989         calculate D2E/DX2 analytically  !
 ! A94   A(8,19,48)            118.6119         calculate D2E/DX2 analytically  !
 ! A95   A(20,19,47)           118.6885         calculate D2E/DX2 analytically  !
 ! A96   A(20,19,48)           116.6496         calculate D2E/DX2 analytically  !
 ! A97   A(47,19,48)           114.4869         calculate D2E/DX2 analytically  !
 ! A98   A(8,20,49)            117.6264         calculate D2E/DX2 analytically  !
 ! A99   A(8,20,50)            119.1816         calculate D2E/DX2 analytically  !
 ! A100  A(19,20,49)           118.9229         calculate D2E/DX2 analytically  !
 ! A101  A(19,20,50)           116.5821         calculate D2E/DX2 analytically  !
 ! A102  A(49,20,50)           114.1862         calculate D2E/DX2 analytically  !
 ! D1    D(3,1,2,6)            -68.4033         calculate D2E/DX2 analytically  !
 ! D2    D(3,1,2,7)            171.2722         calculate D2E/DX2 analytically  !
 ! D3    D(3,1,2,8)             45.4474         calculate D2E/DX2 analytically  !
 ! D4    D(4,1,2,6)             48.7921         calculate D2E/DX2 analytically  !
 ! D5    D(4,1,2,7)            -71.5324         calculate D2E/DX2 analytically  !
 ! D6    D(4,1,2,8)            162.6428         calculate D2E/DX2 analytically  !
 ! D7    D(5,1,2,6)            163.1912         calculate D2E/DX2 analytically  !
 ! D8    D(5,1,2,7)             42.8666         calculate D2E/DX2 analytically  !
 ! D9    D(5,1,2,8)            -82.9582         calculate D2E/DX2 analytically  !
 ! D10   D(2,1,3,9)           -179.0272         calculate D2E/DX2 analytically  !
 ! D11   D(2,1,3,10)           -99.4266         calculate D2E/DX2 analytically  !
 ! D12   D(2,1,3,21)            42.9345         calculate D2E/DX2 analytically  !
 ! D13   D(4,1,3,9)             65.1191         calculate D2E/DX2 analytically  !
 ! D14   D(4,1,3,10)           144.7196         calculate D2E/DX2 analytically  !
 ! D15   D(4,1,3,21)           -72.9192         calculate D2E/DX2 analytically  !
 ! D16   D(5,1,3,9)            -53.3577         calculate D2E/DX2 analytically  !
 ! D17   D(5,1,3,10)            26.2429         calculate D2E/DX2 analytically  !
 ! D18   D(5,1,3,21)           168.6041         calculate D2E/DX2 analytically  !
 ! D19   D(2,1,4,11)          -104.4666         calculate D2E/DX2 analytically  !
 ! D20   D(2,1,4,12)          -179.684          calculate D2E/DX2 analytically  !
 ! D21   D(2,1,4,22)            38.9717         calculate D2E/DX2 analytically  !
 ! D22   D(3,1,4,11)            11.8192         calculate D2E/DX2 analytically  !
 ! D23   D(3,1,4,12)           -63.3983         calculate D2E/DX2 analytically  !
 ! D24   D(3,1,4,22)           155.2574         calculate D2E/DX2 analytically  !
 ! D25   D(5,1,4,11)           136.9653         calculate D2E/DX2 analytically  !
 ! D26   D(5,1,4,12)            61.7478         calculate D2E/DX2 analytically  !
 ! D27   D(5,1,4,22)           -79.5965         calculate D2E/DX2 analytically  !
 ! D28   D(2,1,5,13)           150.3555         calculate D2E/DX2 analytically  !
 ! D29   D(2,1,5,14)            71.0289         calculate D2E/DX2 analytically  !
 ! D30   D(2,1,5,23)           -72.4003         calculate D2E/DX2 analytically  !
 ! D31   D(3,1,5,13)            26.5794         calculate D2E/DX2 analytically  !
 ! D32   D(3,1,5,14)           -52.7472         calculate D2E/DX2 analytically  !
 ! D33   D(3,1,5,23)           163.8237         calculate D2E/DX2 analytically  !
 ! D34   D(4,1,5,13)           -94.0559         calculate D2E/DX2 analytically  !
 ! D35   D(4,1,5,14)          -173.3825         calculate D2E/DX2 analytically  !
 ! D36   D(4,1,5,23)            43.1883         calculate D2E/DX2 analytically  !
 ! D37   D(1,2,6,15)          -175.9166         calculate D2E/DX2 analytically  !
 ! D38   D(1,2,6,16)          -100.5816         calculate D2E/DX2 analytically  !
 ! D39   D(1,2,6,24)            43.6591         calculate D2E/DX2 analytically  !
 ! D40   D(7,2,6,15)           -48.8924         calculate D2E/DX2 analytically  !
 ! D41   D(7,2,6,16)            26.4427         calculate D2E/DX2 analytically  !
 ! D42   D(7,2,6,24)           170.6834         calculate D2E/DX2 analytically  !
 ! D43   D(8,2,6,15)            66.8896         calculate D2E/DX2 analytically  !
 ! D44   D(8,2,6,16)           142.2246         calculate D2E/DX2 analytically  !
 ! D45   D(8,2,6,24)           -73.5347         calculate D2E/DX2 analytically  !
 ! D46   D(1,2,7,17)           -57.2073         calculate D2E/DX2 analytically  !
 ! D47   D(1,2,7,18)            25.3153         calculate D2E/DX2 analytically  !
 ! D48   D(1,2,7,25)           164.7811         calculate D2E/DX2 analytically  !
 ! D49   D(6,2,7,17)          -177.9582         calculate D2E/DX2 analytically  !
 ! D50   D(6,2,7,18)           -95.4355         calculate D2E/DX2 analytically  !
 ! D51   D(6,2,7,25)            44.0302         calculate D2E/DX2 analytically  !
 ! D52   D(8,2,7,17)            69.0646         calculate D2E/DX2 analytically  !
 ! D53   D(8,2,7,18)           151.5872         calculate D2E/DX2 analytically  !
 ! D54   D(8,2,7,25)           -68.9471         calculate D2E/DX2 analytically  !
 ! D55   D(1,2,8,19)            84.8123         calculate D2E/DX2 analytically  !
 ! D56   D(1,2,8,20)           160.5049         calculate D2E/DX2 analytically  !
 ! D57   D(1,2,8,26)           -60.2596         calculate D2E/DX2 analytically  !
 ! D58   D(6,2,8,19)          -159.7533         calculate D2E/DX2 analytically  !
 ! D59   D(6,2,8,20)           -84.0607         calculate D2E/DX2 analytically  !
 ! D60   D(6,2,8,26)            55.1748         calculate D2E/DX2 analytically  !
 ! D61   D(7,2,8,19)           -45.6848         calculate D2E/DX2 analytically  !
 ! D62   D(7,2,8,20)            30.0078         calculate D2E/DX2 analytically  !
 ! D63   D(7,2,8,26)           169.2433         calculate D2E/DX2 analytically  !
 ! D64   D(1,3,9,27)            12.049          calculate D2E/DX2 analytically  !
 ! D65   D(1,3,9,28)          -132.5659         calculate D2E/DX2 analytically  !
 ! D66   D(21,3,9,27)          150.3295         calculate D2E/DX2 analytically  !
 ! D67   D(21,3,9,28)            5.7146         calculate D2E/DX2 analytically  !
 ! D68   D(1,3,10,29)          134.7932         calculate D2E/DX2 analytically  !
 ! D69   D(1,3,10,30)          -10.0996         calculate D2E/DX2 analytically  !
 ! D70   D(21,3,10,29)          -7.4852         calculate D2E/DX2 analytically  !
 ! D71   D(21,3,10,30)        -152.378          calculate D2E/DX2 analytically  !
 ! D72   D(1,4,11,31)          138.9186         calculate D2E/DX2 analytically  !
 ! D73   D(1,4,11,32)           -6.0455         calculate D2E/DX2 analytically  !
 ! D74   D(22,4,11,31)          -4.3491         calculate D2E/DX2 analytically  !
 ! D75   D(22,4,11,32)        -149.3132         calculate D2E/DX2 analytically  !
 ! D76   D(1,4,12,33)            8.7067         calculate D2E/DX2 analytically  !
 ! D77   D(1,4,12,34)         -135.907          calculate D2E/DX2 analytically  !
 ! D78   D(22,4,12,33)         149.6743         calculate D2E/DX2 analytically  !
 ! D79   D(22,4,12,34)           5.0605         calculate D2E/DX2 analytically  !
 ! D80   D(1,5,13,35)          132.809          calculate D2E/DX2 analytically  !
 ! D81   D(1,5,13,36)          -12.6616         calculate D2E/DX2 analytically  !
 ! D82   D(23,5,13,35)          -4.442          calculate D2E/DX2 analytically  !
 ! D83   D(23,5,13,36)        -149.9127         calculate D2E/DX2 analytically  !
 ! D84   D(1,5,14,37)         -135.0498         calculate D2E/DX2 analytically  !
 ! D85   D(1,5,14,38)            9.0807         calculate D2E/DX2 analytically  !
 ! D86   D(23,5,14,37)           7.7736         calculate D2E/DX2 analytically  !
 ! D87   D(23,5,14,38)         151.9041         calculate D2E/DX2 analytically  !
 ! D88   D(2,6,15,39)            8.0863         calculate D2E/DX2 analytically  !
 ! D89   D(2,6,15,40)         -136.124          calculate D2E/DX2 analytically  !
 ! D90   D(24,6,15,39)         148.9184         calculate D2E/DX2 analytically  !
 ! D91   D(24,6,15,40)           4.7081         calculate D2E/DX2 analytically  !
 ! D92   D(2,6,16,41)          138.2259         calculate D2E/DX2 analytically  !
 ! D93   D(2,6,16,42)           -6.1782         calculate D2E/DX2 analytically  !
 ! D94   D(24,6,16,41)          -6.1404         calculate D2E/DX2 analytically  !
 ! D95   D(24,6,16,42)        -150.5445         calculate D2E/DX2 analytically  !
 ! D96   D(2,7,17,43)           14.3067         calculate D2E/DX2 analytically  !
 ! D97   D(2,7,17,44)         -130.7362         calculate D2E/DX2 analytically  !
 ! D98   D(25,7,17,43)         151.8853         calculate D2E/DX2 analytically  !
 ! D99   D(25,7,17,44)           6.8424         calculate D2E/DX2 analytically  !
 ! D100  D(2,7,18,45)          -13.2317         calculate D2E/DX2 analytically  !
 ! D101  D(2,7,18,46)          131.9413         calculate D2E/DX2 analytically  !
 ! D102  D(25,7,18,45)        -152.2633         calculate D2E/DX2 analytically  !
 ! D103  D(25,7,18,46)          -7.0902         calculate D2E/DX2 analytically  !
 ! D104  D(2,8,19,47)         -138.8025         calculate D2E/DX2 analytically  !
 ! D105  D(2,8,19,48)            6.2446         calculate D2E/DX2 analytically  !
 ! D106  D(26,8,19,47)           5.8879         calculate D2E/DX2 analytically  !
 ! D107  D(26,8,19,48)         150.935          calculate D2E/DX2 analytically  !
 ! D108  D(2,8,20,49)          134.4661         calculate D2E/DX2 analytically  !
 ! D109  D(2,8,20,50)          -10.8125         calculate D2E/DX2 analytically  !
 ! D110  D(26,8,20,49)          -4.6157         calculate D2E/DX2 analytically  !
 ! D111  D(26,8,20,50)        -149.8944         calculate D2E/DX2 analytically  !
 ! D112  D(27,9,10,29)        -142.6709         calculate D2E/DX2 analytically  !
 ! D113  D(27,9,10,30)          -0.3102         calculate D2E/DX2 analytically  !
 ! D114  D(28,9,10,29)           0.3887         calculate D2E/DX2 analytically  !
 ! D115  D(28,9,10,30)         142.7494         calculate D2E/DX2 analytically  !
 ! D116  D(31,11,12,33)       -144.2166         calculate D2E/DX2 analytically  !
 ! D117  D(31,11,12,34)         -0.3737         calculate D2E/DX2 analytically  !
 ! D118  D(32,11,12,33)         -0.5515         calculate D2E/DX2 analytically  !
 ! D119  D(32,11,12,34)        143.2914         calculate D2E/DX2 analytically  !
 ! D120  D(35,13,14,37)         -1.6311         calculate D2E/DX2 analytically  !
 ! D121  D(35,13,14,38)       -144.8049         calculate D2E/DX2 analytically  !
 ! D122  D(36,13,14,37)        140.5939         calculate D2E/DX2 analytically  !
 ! D123  D(36,13,14,38)         -2.5799         calculate D2E/DX2 analytically  !
 ! D124  D(39,15,16,41)       -142.8896         calculate D2E/DX2 analytically  !
 ! D125  D(39,15,16,42)          1.1094         calculate D2E/DX2 analytically  !
 ! D126  D(40,15,16,41)          0.5918         calculate D2E/DX2 analytically  !
 ! D127  D(40,15,16,42)        144.5908         calculate D2E/DX2 analytically  !
 ! D128  D(43,17,18,45)         -1.1364         calculate D2E/DX2 analytically  !
 ! D129  D(43,17,18,46)       -143.4669         calculate D2E/DX2 analytically  !
 ! D130  D(44,17,18,45)        142.096          calculate D2E/DX2 analytically  !
 ! D131  D(44,17,18,46)         -0.2345         calculate D2E/DX2 analytically  !
 ! D132  D(47,19,20,49)         -0.2996         calculate D2E/DX2 analytically  !
 ! D133  D(47,19,20,50)        142.8207         calculate D2E/DX2 analytically  !
 ! D134  D(48,19,20,49)       -143.7428         calculate D2E/DX2 analytically  !
 ! D135  D(48,19,20,50)         -0.6226         calculate D2E/DX2 analytically  !
 --------------------------------------------------------------------------------
 Trust Radius=3.00D-01 FncErr=1.00D-07 GrdErr=1.00D-06
 Number of steps in this run=    300 maximum allowed number of steps=    300.
 GradGradGradGradGradGradGradGradGradGradGradGradGradGradGradGradGradGrad

 Leave Link  103 at Sun Apr 26 02:52:49 2015, MaxMem=   524288000 cpu:         0.1
 (Enter /opt/g09/l202.exe)
                          Input orientation:                          
 ---------------------------------------------------------------------
 Center     Atomic      Atomic             Coordinates (Angstroms)
 Number     Number       Type             X           Y           Z
 ---------------------------------------------------------------------
      1          6           0        3.079900    3.835230    3.314830
      2          6           0        3.813860    2.675140    4.206230
      3          6           0        1.895500    4.389680    4.145900
      4          6           0        4.122610    4.969480    3.095050
      5          6           0        2.734950    3.323290    1.895000
      6          6           0        4.498830    3.378620    5.420000
      7          6           0        4.905610    1.819090    3.513580
      8          6           0        2.753230    1.735870    4.832980
      9          6           0        0.891480    5.467420    3.752770
     10          6           0        0.414600    4.061150    4.061090
     11          6           0        4.144430    6.309890    3.803860
     12          6           0        3.839310    6.242650    2.318390
     13          6           0        1.584650    3.756170    0.991220
     14          6           0        1.681350    2.319440    1.463050
     15          6           0        5.364880    2.668600    6.446730
     16          6           0        5.972390    3.717140    5.532360
     17          6           0        4.836290    0.953600    2.264760
     18          6           0        5.811900    2.114210    2.326300
     19          6           0        2.105760    0.529470    4.180660
     20          6           0        3.047230    0.337450    5.353460
     21          1           0        2.195540    4.532980    5.178940
     22          1           0        5.117750    4.576700    2.918990
     23          1           0        3.644170    3.230540    1.309270
     24          1           0        3.866330    4.129250    5.882400
     25          1           0        5.470230    1.301380    4.284450
     26          1           0        2.074830    2.278560    5.484960
     27          1           0        0.834740    5.804970    2.725990
     28          1           0        0.695530    6.249940    4.480340
     29          1           0       -0.111510    3.888250    4.995660
     30          1           0        0.037400    3.471060    3.236300
     31          1           0        5.109830    6.693990    4.119940
     32          1           0        3.321830    6.566220    4.461830
     33          1           0        2.820430    6.445250    2.011050
     34          1           0        4.593830    6.586650    1.616960
     35          1           0        1.831250    3.977230   -0.042950
     36          1           0        0.769070    4.351310    1.378600
     37          1           0        1.968000    1.557550    0.742770
     38          1           0        0.957610    1.979080    2.192320
     39          1           0        5.644290    1.633050    6.284550
     40          1           0        5.207040    2.918310    7.491670
     41          1           0        6.240910    4.682930    5.949800
     42          1           0        6.640360    3.365100    4.753610
     43          1           0        3.992430    1.055350    1.596840
     44          1           0        5.229720   -0.056570    2.336710
     45          1           0        5.613460    2.963530    1.684490
     46          1           0        6.869790    1.896190    2.444040
     47          1           0        1.040710    0.381540    4.337090
     48          1           0        2.465790    0.208590    3.211320
     49          1           0        2.633890    0.062390    6.319100
     50          1           0        4.007500   -0.116790    5.135540
 ---------------------------------------------------------------------
                    Distance matrix (angstroms):
                    1          2          3          4          5
     1  C    0.000000
     2  C    1.636796   0.000000
     3  C    1.549482   2.573595   0.000000
     4  C    1.556300   2.567887   2.529916   0.000000
     5  C    1.548222   2.631716   2.628386   2.464886   0.000000
     6  C    2.579456   1.561187   3.069674   2.842142   3.942075
     7  C    2.727185   1.550646   4.008556   3.273105   3.097448
     8  C    2.611284   1.549187   2.872366   3.918142   3.339455
     9  C    2.764963   4.067279   1.524510   3.334777   3.383339
    10  C    2.777007   3.673834   1.519273   3.937973   3.258897
    11  C    2.737940   3.671864   2.976892   1.516439   3.814467
    12  C    2.713903   4.036300   3.248336   1.518032   3.149846
    13  C    2.764270   4.058854   3.232641   3.512757   1.525580
    14  C    2.771759   3.492729   3.395503   3.955488   1.518015
    15  C    4.048575   2.724986   4.504723   4.251005   5.297490
    16  C    3.646626   2.739277   4.358396   3.306134   4.885338
    17  C    3.534310   2.788973   4.898324   4.162453   3.188696
    18  C    3.376822   2.800168   4.881280   3.405473   3.333994
    19  C    3.553401   2.742655   3.866088   4.995991   3.664090
    20  C    4.048647   2.714526   4.382380   5.264272   4.579706
    21  H    2.178039   2.648904   1.085233   2.871712   3.540985
    22  H    2.204382   2.640653   3.452996   1.084240   2.880508
    23  H    2.169406   2.954597   3.528161   2.538076   1.085524
    24  H    2.701358   2.219625   2.639588   2.922497   4.222434
    25  H    3.615831   2.153345   4.726044   4.084815   4.156844
    26  H    2.853568   2.194687   2.506406   4.140788   3.796713
    27  H    3.044233   4.567505   2.268127   3.412380   3.234204
    28  H    3.588100   4.751664   2.238827   3.911967   4.405508
    29  H    3.607367   4.183702   2.236429   4.765412   4.246835
    30  H    3.065223   3.979435   2.263575   4.353637   3.016239
    31  H    3.597406   4.223522   3.955052   2.235830   4.685300
    32  H    2.971943   3.930385   2.621365   2.249203   4.177277
    33  H    2.929056   4.474310   3.104585   2.246915   3.125285
    34  H    3.570022   4.755269   4.301535   2.240990   3.765934
    35  H    3.585244   4.866386   4.209597   4.010229   2.236059
    36  H    3.058637   4.480601   2.988020   3.817665   2.277757
    37  H    3.611044   4.080657   4.428037   4.670849   2.243587
    38  H    3.034705   3.563495   3.241466   4.446868   2.248163
    39  H    4.499437   2.959027   5.121158   4.860060   5.530761
    40  H    4.776134   3.576898   4.932079   4.971273   6.131717
    41  H    4.201624   3.600254   4.714089   3.566357   5.530080
    42  H    3.868848   2.960536   4.892113   3.415248   4.840003
    43  H    3.392924   3.076446   4.691756   4.193089   2.610308
    44  H    4.552423   3.600278   5.844598   5.202110   4.224031
    45  H    3.136367   3.111415   4.681417   2.869869   2.908533
    46  H    4.345275   3.612587   5.818710   4.173239   4.408510
    47  H    4.138996   3.601123   4.102732   5.664800   4.181883
    48  H    3.679723   2.981779   4.322058   5.042286   3.392123
    49  H    4.843437   3.561322   4.898312   6.057253   5.496939
    50  H    4.449032   2.948896   5.074269   5.481514   4.894347
                    6          7          8          9         10
     6  C    0.000000
     7  C    2.496406   0.000000
     8  C    2.467861   2.525962   0.000000
     9  C    4.489512   5.429619   4.307834   0.000000
    10  C    4.358144   5.049334   3.387024   1.516599   0.000000
    11  C    3.365985   4.564093   4.890418   3.360662   4.362870
    12  C    4.272894   4.704610   5.273879   3.368698   4.418663
    13  C    5.314986   4.598190   4.495143   3.321900   3.299414
    14  C    4.971671   3.853683   3.584119   3.971963   3.374614
    15  C    1.519324   3.088036   3.208565   5.924704   5.668840
    16  C    1.516113   2.969189   3.844158   5.660925   5.759515
    17  C    3.993763   1.520996   3.398064   6.176591   5.695174
    18  C    3.590803   1.522528   3.972663   6.122856   5.994240
    19  C    3.921786   3.153930   1.516621   5.103030   3.917535
    20  C    3.370502   3.005660   1.520827   5.790169   4.739926
    21  H    2.587625   4.181280   2.873070   2.146558   2.154985
    22  H    2.841392   2.828949   4.162286   4.398855   4.867217
    23  H    4.201247   2.905582   3.929929   4.307160   4.323488
    24  H    1.085042   3.468177   2.840518   3.895607   3.903364
    25  H    2.558909   1.086766   2.805665   6.213173   5.764166
    26  H    2.662729   3.480053   1.086194   3.817018   2.821595
    27  H    5.154650   5.751480   4.967654   1.082329   2.236050
    28  H    4.857214   6.188039   4.973461   1.086320   2.246218
    29  H    4.657792   5.625787   3.586912   2.246006   1.086327
    30  H    4.968043   5.148335   3.596666   2.231960   1.082019
    31  H    3.613192   4.916709   5.535788   4.408374   5.383353
    32  H    3.530469   5.093406   4.877842   2.759842   3.858491
    33  H    4.882846   5.292157   5.490543   2.776795   3.959118
    34  H    4.976303   5.140428   6.104151   4.418343   5.460576
    35  H    6.108857   5.172829   5.445038   4.184653   4.342474
    36  H    5.584814   5.299174   4.765518   2.626284   2.721322
    37  H    5.621199   4.046646   4.168717   5.050354   4.437602
    38  H    4.991680   4.166297   3.202575   3.822027   2.849943
    39  H    2.259765   2.873766   3.236643   6.610711   6.179733
    40  H    2.237245   4.138157   3.806308   6.253111   6.003536
    41  H    2.239811   3.989959   4.700677   5.835989   6.156275
    42  H    2.242857   2.633852   4.215503   6.202504   6.302710
    43  H    4.502286   2.256344   3.531476   5.807778   5.282824
    44  H    4.673479   2.237894   3.946797   7.165195   6.566162
    45  H    3.920298   2.270763   4.427308   5.730998   5.820751
    46  H    4.083551   2.237826   4.762227   7.085665   6.997955
    47  H    4.702529   4.205017   2.238938   5.121511   3.742689
    48  H    4.365846   2.939012   2.246105   5.516060   4.446539
    49  H    3.909445   4.014679   2.241279   6.231885   5.100386
    50  H    3.541216   2.680483   2.257672   6.542556   5.614139
                   11         12         13         14         15
    11  C    0.000000
    12  C    1.517973   0.000000
    13  C    4.580928   3.609357   0.000000
    14  C    5.241168   4.558506   1.515311   0.000000
    15  C    4.661894   5.669602   6.725737   6.207042   0.000000
    16  C    3.612686   4.610622   6.314724   6.076666   1.518083
    17  C    5.615812   5.382462   4.477663   3.530142   4.550770
    18  C    4.750513   4.575499   4.727379   4.224780   4.181521
    19  C    6.140962   6.254092   4.566802   3.281695   4.509192
    20  C    6.266989   6.686586   5.732009   4.574845   3.464246
    21  H    2.974294   3.715871   4.302746   4.355685   3.889463
    22  H    2.175843   2.184152   4.107598   4.361631   4.018317
    23  H    3.994451   3.182642   2.149201   2.169427   5.447028
    24  H    3.025369   4.143592   5.410073   5.251686   2.167399
    25  H    5.203257   5.562503   5.654121   4.832428   2.560438
    26  H    4.833318   5.371645   4.755766   4.041319   3.449864
    27  H    3.517214   3.063518   2.787360   3.802721   6.648526
    28  H    3.515129   3.815421   4.379884   5.052199   6.204475
    29  H    5.039618   5.321649   4.350856   4.260850   5.795170
    30  H    5.024816   4.793620   2.741469   2.678286   6.271590
    31  H    1.086019   2.250225   5.553969   6.160376   4.656476
    32  H    1.084113   2.228636   4.791587   5.451513   4.827559
    33  H    2.232816   1.083338   3.130233   4.315103   6.357088
    34  H    2.249686   1.086113   4.178317   5.168685   6.266762
    35  H    5.058661   3.839318   1.085904   2.244721   7.504332
    36  H    4.594668   3.726492   1.081400   2.228875   7.045490
    37  H    6.057380   5.285314   2.245577   1.086944   6.731150
    38  H    5.613270   5.147632   2.234697   1.082349   6.164371
    39  H    5.502385   6.343248   7.000547   6.278765   1.084775
    40  H    5.121708   6.299583   7.488629   7.009522   1.085895
    41  H    3.412812   4.624667   6.864922   6.819575   2.252086
    42  H    3.975359   4.696432   6.314168   6.042596   2.231281
    43  H    5.701248   5.239481   3.668598   2.637596   5.292223
    44  H    6.622854   6.450872   5.443700   4.358857   4.933263
    45  H    4.224678   3.781807   4.164158   3.990661   4.777835
    46  H    5.362597   5.300124   5.788170   5.297300   4.345446
    47  H    6.712879   6.801465   4.783184   3.525051   5.327257
    48  H    6.355690   6.252500   4.276748   2.850874   4.992419
    49  H    6.902132   7.460183   6.567436   5.439010   3.777159
    50  H    6.564628   6.957521   6.168096   4.983309   3.364535
                   16         17         18         19         20
    16  C    0.000000
    17  C    4.427763   0.000000
    18  C    3.588030   1.517438   0.000000
    19  C    5.190295   3.362492   4.436837   0.000000
    20  C    4.473351   3.622215   4.468106   1.516146   0.000000
    21  H    3.880090   5.317703   5.202505   4.127071   4.284659
    22  H    2.880791   3.692437   2.626211   5.200381   5.308949
    23  H    4.846842   2.742001   2.641893   4.231709   5.008171
    24  H    2.174362   4.910488   4.526751   4.353613   3.915156
    25  H    2.765021   2.145222   2.147506   3.453444   2.818310
    26  H    4.154845   4.444195   4.895900   2.182080   2.175032
    27  H    6.215319   6.305627   6.209153   5.618047   6.456972
    28  H    5.947022   7.078553   6.922528   5.899350   6.422645
    29  H    6.109923   6.367944   6.734945   4.106326   4.765904
    30  H    6.368403   5.505528   6.001166   3.717913   4.833317
    31  H    3.405962   6.038923   4.968343   6.857801   6.795697
    32  H    4.035934   6.214677   5.530039   6.164433   6.298253
    33  H    5.456836   5.855449   5.273157   6.341484   6.966230
    34  H    5.046273   5.675358   4.689305   7.032246   7.443514
    35  H    6.949875   4.847487   4.992971   5.459055   6.621771
    36  H    6.688081   5.373266   5.597579   4.923895   6.091026
    37  H    6.605993   3.302771   4.194402   3.590963   4.889974
    38  H    6.270944   4.012607   4.858018   2.715348   4.129681
    39  H    2.239837   4.156107   3.990909   4.262093   3.047988
    40  H    2.250063   5.596260   5.262459   5.127112   3.987174
    41  H    1.085868   5.427742   4.462300   6.122136   5.425717
    42  H    1.084697   3.906965   2.853578   5.378816   4.736778
    43  H    5.147202   1.081004   2.227951   3.242252   3.939667
    44  H    5.000462   1.086466   2.247516   3.674605   3.744235
    45  H    3.937367   2.231709   1.082886   4.945652   5.190681
    46  H    3.695796   2.248497   1.086520   5.251643   5.050382
    47  H    6.072591   4.362136   5.459824   1.086593   2.249683
    48  H    5.476622   2.659001   3.951088   1.082684   2.223385
    49  H    5.012159   4.699201   5.500197   2.251668   1.085803
    50  H    4.326347   3.173957   4.015601   2.223975   1.084408
                   21         22         23         24         25
    21  H    0.000000
    22  H    3.694401   0.000000
    23  H    4.332346   2.564134   0.000000
    24  H    1.857254   3.247778   4.665892   0.000000
    25  H    4.686891   3.566012   3.988465   3.622539   0.000000
    26  H    2.278295   4.596195   4.561303   2.606239   3.731601
    27  H    3.080049   4.459829   4.065425   4.686310   6.648224
    28  H    2.384538   4.979315   5.278915   4.064120   6.879272
    29  H    2.402446   5.668481   5.303507   4.082597   6.193023
    30  H    3.091778   5.208942   4.096350   4.700613   5.943212
    31  H    3.779488   2.434186   4.695052   3.351186   5.407143
    32  H    2.432456   3.092551   4.601011   2.872860   5.689080
    33  H    3.752705   3.097340   3.391962   4.630887   6.216847
    34  H    4.759943   2.451463   3.501429   4.976148   5.984786
    35  H    5.264000   4.464699   2.381748   6.266932   6.255297
    36  H    4.063300   4.618941   3.086605   5.470516   6.312443
    37  H    5.346453   4.875667   2.435028   6.052528   4.987458
    38  H    4.120045   4.958069   3.092496   5.167260   5.019963
    39  H    4.639595   4.502145   5.595164   3.090935   2.034871
    40  H    4.126138   4.864939   6.384522   2.419427   3.601387
    41  H    4.120889   3.233973   5.512442   2.439208   3.847365
    42  H    4.615330   2.674350   4.567137   3.090847   2.418317
    43  H    5.306050   3.926109   2.221583   5.275489   3.076958
    44  H    6.192616   4.671058   3.791397   5.652596   2.386538
    45  H    5.133861   2.090941   2.022421   4.694019   3.089183
    46  H    6.023367   3.237338   3.670534   5.082288   2.387399
    47  H    4.390535   6.019355   4.905354   4.941401   4.524326
    48  H    4.758667   5.118470   3.760127   4.946489   3.372307
    49  H    4.634468   6.173273   6.013006   4.271881   3.704014
    50  H    4.990535   5.307975   5.096761   4.313535   2.207972
                   26         27         28         29         30
    26  H    0.000000
    27  H    4.645999   0.000000
    28  H    4.322452   1.815247   0.000000
    29  H    2.758731   3.117789   2.548421   0.000000
    30  H    3.260314   2.518592   3.114955   1.814268   0.000000
    31  H    5.529062   4.583650   4.451192   5.991782   6.074343
    32  H    4.581030   3.127021   2.645341   4.386835   4.676475
    33  H    5.475881   2.205462   3.263547   4.903307   4.253504
    34  H    6.313986   3.996465   4.848614   6.390399   5.752410
    35  H    5.788143   3.464202   5.187988   5.400910   3.771947
    36  H    4.781579   1.983154   3.637443   3.751396   2.182024
    37  H    4.797878   4.822657   6.132466   5.276703   3.688689
    38  H    3.489892   3.864885   4.852213   3.556215   2.040266
    39  H    3.714441   7.293836   7.004361   6.314776   6.641335
    40  H    3.774507   7.082480   6.365657   5.954647   6.718548
    41  H    4.832525   6.393637   5.946938   6.472645   6.878608
    42  H    4.749685   6.615847   6.613470   6.776431   6.775879
    43  H    4.504543   5.814196   6.794696   6.034867   4.915867
    44  H    5.031664   7.336555   8.057673   7.152647   6.341421
    45  H    5.237810   5.656383   6.542423   6.677892   5.810176
    46  H    5.690786   7.195824   7.824522   7.695298   7.056164
    47  H    2.446568   5.661419   5.880288   3.749445   3.429796
    48  H    3.099526   5.849388   6.422005   4.833864   4.067114
    49  H    2.433053   7.008895   6.739737   4.891413   5.278679
    50  H    3.097581   7.137197   7.206503   5.746839   5.678158
                   31         32         33         34         35
    31  H    0.000000
    32  H    1.824872   0.000000
    33  H    3.122602   2.504468   0.000000
    34  H    2.557868   3.116358   1.822155   0.000000
    35  H    5.954790   5.405344   3.359839   4.146833   0.000000
    36  H    5.643163   4.574791   2.998776   4.436479   1.813551
    37  H    6.903578   6.383654   5.121014   5.740299   2.547726
    38  H    6.571684   5.637558   4.842482   5.897698   3.122864
    39  H    5.530307   5.749113   7.028105   6.886800   7.750594
    40  H    5.062981   5.103057   6.940635   6.953054   8.323927
    41  H    2.944842   3.779135   5.506288   5.011040   7.473698
    42  H    3.718275   4.620059   5.621461   4.940166   6.819768
    43  H    6.277649   6.247204   5.531381   5.563934   3.987103
    44  H    6.983147   7.212318   6.941498   6.712285   5.786529
    45  H    4.483458   5.093580   4.475492   3.764466   4.279807
    46  H    5.378195   6.202312   6.105632   5.278681   5.991889
    47  H    7.513449   6.593128   6.733977   7.650305   5.721773
    48  H    7.062362   6.535751   6.361002   6.910151   5.019518
    49  H    7.412469   6.798714   7.702921   8.277527   7.513048
    50  H    6.973758   6.751789   7.364234   7.593438   6.950815
                   36         37         38         39         40
    36  H    0.000000
    37  H    3.105931   0.000000
    38  H    2.514988   1.816527   0.000000
    39  H    7.431356   6.650724   6.231457   0.000000
    40  H    7.688868   7.608594   6.857326   1.816651   0.000000
    41  H    7.137708   7.425559   7.024437   3.125665   2.561276
    42  H    6.843636   6.417556   6.385523   2.517127   3.122659
    43  H    4.615304   2.253876   3.227694   5.003699   6.300390
    44  H    6.343877   3.973015   4.734516   4.314177   5.951810
    45  H    5.048526   4.019079   4.785809   4.788703   5.821560
    46  H    6.661949   5.199667   5.918117   4.039877   5.411842
    47  H    4.958379   3.893842   2.675645   5.152846   5.809035
    48  H    4.837339   2.856786   2.539213   4.645072   5.760072
    49  H    6.803009   5.811572   4.849116   3.395685   4.018992
    50  H    6.675773   5.124393   4.728324   2.657300   4.025180
                   41         42         43         44         45
    41  H    0.000000
    42  H    1.824036   0.000000
    43  H    6.096168   4.723524   0.000000
    44  H    6.044815   4.420310   1.820621   0.000000
    45  H    4.641433   3.261178   2.505309   3.113463   0.000000
    46  H    4.522363   2.746716   3.115118   2.552376   1.815075
    47  H    6.938650   6.358553   4.083582   4.662753   5.883282
    48  H    6.463012   5.456120   2.377852   2.911110   4.452946
    49  H    5.873361   5.423141   5.013117   4.755199   6.226882
    50  H    5.356160   4.381938   3.727806   3.054652   4.896654
                   46         47         48         49         50
    46  H    0.000000
    47  H    6.313159   0.000000
    48  H    4.778277   1.824314   0.000000
    49  H    6.026754   2.562897   3.115755   0.000000
    50  H    4.414631   3.112507   2.487039   1.822011   0.000000
 Symmetry turned off by external request.
 Stoichiometry    C20H30
 Framework group  C1[X(C20H30)]
 Deg. of freedom   144
 Full point group                 C1      NOp   1
 Rotational constants (GHZ):      0.4287274      0.3488556      0.3042192
 Leave Link  202 at Sun Apr 26 02:52:49 2015, MaxMem=   524288000 cpu:         0.0
 (Enter /opt/g09/l301.exe)
 Standard basis: 6-311+G(d,p) (5D, 7F)
 Ernie: Thresh=  0.10000D-02 Tol=  0.10000D-05 Strict=F.
 AO basis set in the form of general basis input (Overlap normalization):
      1 0
 S   6 1.00       0.000000000000
      0.4563240000D+04  0.1966650249D-02
      0.6820240000D+03  0.1523060193D-01
      0.1549730000D+03  0.7612690966D-01
      0.4445530000D+02  0.2608010331D+00
      0.1302900000D+02  0.6164620782D+00
      0.1827730000D+01  0.2210060280D+00
 SP   3 1.00       0.000000000000
      0.2096420000D+02  0.1146600807D+00  0.4024869267D-01
      0.4803310000D+01  0.9199996477D+00  0.2375939567D+00
      0.1459330000D+01 -0.3030682134D-02  0.8158538515D+00
 SP   1 1.00       0.000000000000
      0.4834560000D+00  0.1000000000D+01  0.1000000000D+01
 SP   1 1.00       0.000000000000
      0.1455850000D+00  0.1000000000D+01  0.1000000000D+01
 SP   1 1.00       0.000000000000
      0.4380000000D-01  0.1000000000D+01  0.1000000000D+01
 D   1 1.00       0.000000000000
      0.6260000000D+00  0.1000000000D+01
 ****
      2 0
 S   6 1.00       0.000000000000
      0.4563240000D+04  0.1966650249D-02
      0.6820240000D+03  0.1523060193D-01
      0.1549730000D+03  0.7612690966D-01
      0.4445530000D+02  0.2608010331D+00
      0.1302900000D+02  0.6164620782D+00
      0.1827730000D+01  0.2210060280D+00
 SP   3 1.00       0.000000000000
      0.2096420000D+02  0.1146600807D+00  0.4024869267D-01
      0.4803310000D+01  0.9199996477D+00  0.2375939567D+00
      0.1459330000D+01 -0.3030682134D-02  0.8158538515D+00
 SP   1 1.00       0.000000000000
      0.4834560000D+00  0.1000000000D+01  0.1000000000D+01
 SP   1 1.00       0.000000000000
      0.1455850000D+00  0.1000000000D+01  0.1000000000D+01
 SP   1 1.00       0.000000000000
      0.4380000000D-01  0.1000000000D+01  0.1000000000D+01
 D   1 1.00       0.000000000000
      0.6260000000D+00  0.1000000000D+01
 ****
      3 0
 S   6 1.00       0.000000000000
      0.4563240000D+04  0.1966650249D-02
      0.6820240000D+03  0.1523060193D-01
      0.1549730000D+03  0.7612690966D-01
      0.4445530000D+02  0.2608010331D+00
      0.1302900000D+02  0.6164620782D+00
      0.1827730000D+01  0.2210060280D+00
 SP   3 1.00       0.000000000000
      0.2096420000D+02  0.1146600807D+00  0.4024869267D-01
      0.4803310000D+01  0.9199996477D+00  0.2375939567D+00
      0.1459330000D+01 -0.3030682134D-02  0.8158538515D+00
 SP   1 1.00       0.000000000000
      0.4834560000D+00  0.1000000000D+01  0.1000000000D+01
 SP   1 1.00       0.000000000000
      0.1455850000D+00  0.1000000000D+01  0.1000000000D+01
 SP   1 1.00       0.000000000000
      0.4380000000D-01  0.1000000000D+01  0.1000000000D+01
 D   1 1.00       0.000000000000
      0.6260000000D+00  0.1000000000D+01
 ****
      4 0
 S   6 1.00       0.000000000000
      0.4563240000D+04  0.1966650249D-02
      0.6820240000D+03  0.1523060193D-01
      0.1549730000D+03  0.7612690966D-01
      0.4445530000D+02  0.2608010331D+00
      0.1302900000D+02  0.6164620782D+00
      0.1827730000D+01  0.2210060280D+00
 SP   3 1.00       0.000000000000
      0.2096420000D+02  0.1146600807D+00  0.4024869267D-01
      0.4803310000D+01  0.9199996477D+00  0.2375939567D+00
      0.1459330000D+01 -0.3030682134D-02  0.8158538515D+00
 SP   1 1.00       0.000000000000
      0.4834560000D+00  0.1000000000D+01  0.1000000000D+01
 SP   1 1.00       0.000000000000
      0.1455850000D+00  0.1000000000D+01  0.1000000000D+01
 SP   1 1.00       0.000000000000
      0.4380000000D-01  0.1000000000D+01  0.1000000000D+01
 D   1 1.00       0.000000000000
      0.6260000000D+00  0.1000000000D+01
 ****
      5 0
 S   6 1.00       0.000000000000
      0.4563240000D+04  0.1966650249D-02
      0.6820240000D+03  0.1523060193D-01
      0.1549730000D+03  0.7612690966D-01
      0.4445530000D+02  0.2608010331D+00
      0.1302900000D+02  0.6164620782D+00
      0.1827730000D+01  0.2210060280D+00
 SP   3 1.00       0.000000000000
      0.2096420000D+02  0.1146600807D+00  0.4024869267D-01
      0.4803310000D+01  0.9199996477D+00  0.2375939567D+00
      0.1459330000D+01 -0.3030682134D-02  0.8158538515D+00
 SP   1 1.00       0.000000000000
      0.4834560000D+00  0.1000000000D+01  0.1000000000D+01
 SP   1 1.00       0.000000000000
      0.1455850000D+00  0.1000000000D+01  0.1000000000D+01
 SP   1 1.00       0.000000000000
      0.4380000000D-01  0.1000000000D+01  0.1000000000D+01
 D   1 1.00       0.000000000000
      0.6260000000D+00  0.1000000000D+01
 ****
      6 0
 S   6 1.00       0.000000000000
      0.4563240000D+04  0.1966650249D-02
      0.6820240000D+03  0.1523060193D-01
      0.1549730000D+03  0.7612690966D-01
      0.4445530000D+02  0.2608010331D+00
      0.1302900000D+02  0.6164620782D+00
      0.1827730000D+01  0.2210060280D+00
 SP   3 1.00       0.000000000000
      0.2096420000D+02  0.1146600807D+00  0.4024869267D-01
      0.4803310000D+01  0.9199996477D+00  0.2375939567D+00
      0.1459330000D+01 -0.3030682134D-02  0.8158538515D+00
 SP   1 1.00       0.000000000000
      0.4834560000D+00  0.1000000000D+01  0.1000000000D+01
 SP   1 1.00       0.000000000000
      0.1455850000D+00  0.1000000000D+01  0.1000000000D+01
 SP   1 1.00       0.000000000000
      0.4380000000D-01  0.1000000000D+01  0.1000000000D+01
 D   1 1.00       0.000000000000
      0.6260000000D+00  0.1000000000D+01
 ****
      7 0
 S   6 1.00       0.000000000000
      0.4563240000D+04  0.1966650249D-02
      0.6820240000D+03  0.1523060193D-01
      0.1549730000D+03  0.7612690966D-01
      0.4445530000D+02  0.2608010331D+00
      0.1302900000D+02  0.6164620782D+00
      0.1827730000D+01  0.2210060280D+00
 SP   3 1.00       0.000000000000
      0.2096420000D+02  0.1146600807D+00  0.4024869267D-01
      0.4803310000D+01  0.9199996477D+00  0.2375939567D+00
      0.1459330000D+01 -0.3030682134D-02  0.8158538515D+00
 SP   1 1.00       0.000000000000
      0.4834560000D+00  0.1000000000D+01  0.1000000000D+01
 SP   1 1.00       0.000000000000
      0.1455850000D+00  0.1000000000D+01  0.1000000000D+01
 SP   1 1.00       0.000000000000
      0.4380000000D-01  0.1000000000D+01  0.1000000000D+01
 D   1 1.00       0.000000000000
      0.6260000000D+00  0.1000000000D+01
 ****
      8 0
 S   6 1.00       0.000000000000
      0.4563240000D+04  0.1966650249D-02
      0.6820240000D+03  0.1523060193D-01
      0.1549730000D+03  0.7612690966D-01
      0.4445530000D+02  0.2608010331D+00
      0.1302900000D+02  0.6164620782D+00
      0.1827730000D+01  0.2210060280D+00
 SP   3 1.00       0.000000000000
      0.2096420000D+02  0.1146600807D+00  0.4024869267D-01
      0.4803310000D+01  0.9199996477D+00  0.2375939567D+00
      0.1459330000D+01 -0.3030682134D-02  0.8158538515D+00
 SP   1 1.00       0.000000000000
      0.4834560000D+00  0.1000000000D+01  0.1000000000D+01
 SP   1 1.00       0.000000000000
      0.1455850000D+00  0.1000000000D+01  0.1000000000D+01
 SP   1 1.00       0.000000000000
      0.4380000000D-01  0.1000000000D+01  0.1000000000D+01
 D   1 1.00       0.000000000000
      0.6260000000D+00  0.1000000000D+01
 ****
      9 0
 S   6 1.00       0.000000000000
      0.4563240000D+04  0.1966650249D-02
      0.6820240000D+03  0.1523060193D-01
      0.1549730000D+03  0.7612690966D-01
      0.4445530000D+02  0.2608010331D+00
      0.1302900000D+02  0.6164620782D+00
      0.1827730000D+01  0.2210060280D+00
 SP   3 1.00       0.000000000000
      0.2096420000D+02  0.1146600807D+00  0.4024869267D-01
      0.4803310000D+01  0.9199996477D+00  0.2375939567D+00
      0.1459330000D+01 -0.3030682134D-02  0.8158538515D+00
 SP   1 1.00       0.000000000000
      0.4834560000D+00  0.1000000000D+01  0.1000000000D+01
 SP   1 1.00       0.000000000000
      0.1455850000D+00  0.1000000000D+01  0.1000000000D+01
 SP   1 1.00       0.000000000000
      0.4380000000D-01  0.1000000000D+01  0.1000000000D+01
 D   1 1.00       0.000000000000
      0.6260000000D+00  0.1000000000D+01
 ****
     10 0
 S   6 1.00       0.000000000000
      0.4563240000D+04  0.1966650249D-02
      0.6820240000D+03  0.1523060193D-01
      0.1549730000D+03  0.7612690966D-01
      0.4445530000D+02  0.2608010331D+00
      0.1302900000D+02  0.6164620782D+00
      0.1827730000D+01  0.2210060280D+00
 SP   3 1.00       0.000000000000
      0.2096420000D+02  0.1146600807D+00  0.4024869267D-01
      0.4803310000D+01  0.9199996477D+00  0.2375939567D+00
      0.1459330000D+01 -0.3030682134D-02  0.8158538515D+00
 SP   1 1.00       0.000000000000
      0.4834560000D+00  0.1000000000D+01  0.1000000000D+01
 SP   1 1.00       0.000000000000
      0.1455850000D+00  0.1000000000D+01  0.1000000000D+01
 SP   1 1.00       0.000000000000
      0.4380000000D-01  0.1000000000D+01  0.1000000000D+01
 D   1 1.00       0.000000000000
      0.6260000000D+00  0.1000000000D+01
 ****
     11 0
 S   6 1.00       0.000000000000
      0.4563240000D+04  0.1966650249D-02
      0.6820240000D+03  0.1523060193D-01
      0.1549730000D+03  0.7612690966D-01
      0.4445530000D+02  0.2608010331D+00
      0.1302900000D+02  0.6164620782D+00
      0.1827730000D+01  0.2210060280D+00
 SP   3 1.00       0.000000000000
      0.2096420000D+02  0.1146600807D+00  0.4024869267D-01
      0.4803310000D+01  0.9199996477D+00  0.2375939567D+00
      0.1459330000D+01 -0.3030682134D-02  0.8158538515D+00
 SP   1 1.00       0.000000000000
      0.4834560000D+00  0.1000000000D+01  0.1000000000D+01
 SP   1 1.00       0.000000000000
      0.1455850000D+00  0.1000000000D+01  0.1000000000D+01
 SP   1 1.00       0.000000000000
      0.4380000000D-01  0.1000000000D+01  0.1000000000D+01
 D   1 1.00       0.000000000000
      0.6260000000D+00  0.1000000000D+01
 ****
     12 0
 S   6 1.00       0.000000000000
      0.4563240000D+04  0.1966650249D-02
      0.6820240000D+03  0.1523060193D-01
      0.1549730000D+03  0.7612690966D-01
      0.4445530000D+02  0.2608010331D+00
      0.1302900000D+02  0.6164620782D+00
      0.1827730000D+01  0.2210060280D+00
 SP   3 1.00       0.000000000000
      0.2096420000D+02  0.1146600807D+00  0.4024869267D-01
      0.4803310000D+01  0.9199996477D+00  0.2375939567D+00
      0.1459330000D+01 -0.3030682134D-02  0.8158538515D+00
 SP   1 1.00       0.000000000000
      0.4834560000D+00  0.1000000000D+01  0.1000000000D+01
 SP   1 1.00       0.000000000000
      0.1455850000D+00  0.1000000000D+01  0.1000000000D+01
 SP   1 1.00       0.000000000000
      0.4380000000D-01  0.1000000000D+01  0.1000000000D+01
 D   1 1.00       0.000000000000
      0.6260000000D+00  0.1000000000D+01
 ****
     13 0
 S   6 1.00       0.000000000000
      0.4563240000D+04  0.1966650249D-02
      0.6820240000D+03  0.1523060193D-01
      0.1549730000D+03  0.7612690966D-01
      0.4445530000D+02  0.2608010331D+00
      0.1302900000D+02  0.6164620782D+00
      0.1827730000D+01  0.2210060280D+00
 SP   3 1.00       0.000000000000
      0.2096420000D+02  0.1146600807D+00  0.4024869267D-01
      0.4803310000D+01  0.9199996477D+00  0.2375939567D+00
      0.1459330000D+01 -0.3030682134D-02  0.8158538515D+00
 SP   1 1.00       0.000000000000
      0.4834560000D+00  0.1000000000D+01  0.1000000000D+01
 SP   1 1.00       0.000000000000
      0.1455850000D+00  0.1000000000D+01  0.1000000000D+01
 SP   1 1.00       0.000000000000
      0.4380000000D-01  0.1000000000D+01  0.1000000000D+01
 D   1 1.00       0.000000000000
      0.6260000000D+00  0.1000000000D+01
 ****
     14 0
 S   6 1.00       0.000000000000
      0.4563240000D+04  0.1966650249D-02
      0.6820240000D+03  0.1523060193D-01
      0.1549730000D+03  0.7612690966D-01
      0.4445530000D+02  0.2608010331D+00
      0.1302900000D+02  0.6164620782D+00
      0.1827730000D+01  0.2210060280D+00
 SP   3 1.00       0.000000000000
      0.2096420000D+02  0.1146600807D+00  0.4024869267D-01
      0.4803310000D+01  0.9199996477D+00  0.2375939567D+00
      0.1459330000D+01 -0.3030682134D-02  0.8158538515D+00
 SP   1 1.00       0.000000000000
      0.4834560000D+00  0.1000000000D+01  0.1000000000D+01
 SP   1 1.00       0.000000000000
      0.1455850000D+00  0.1000000000D+01  0.1000000000D+01
 SP   1 1.00       0.000000000000
      0.4380000000D-01  0.1000000000D+01  0.1000000000D+01
 D   1 1.00       0.000000000000
      0.6260000000D+00  0.1000000000D+01
 ****
     15 0
 S   6 1.00       0.000000000000
      0.4563240000D+04  0.1966650249D-02
      0.6820240000D+03  0.1523060193D-01
      0.1549730000D+03  0.7612690966D-01
      0.4445530000D+02  0.2608010331D+00
      0.1302900000D+02  0.6164620782D+00
      0.1827730000D+01  0.2210060280D+00
 SP   3 1.00       0.000000000000
      0.2096420000D+02  0.1146600807D+00  0.4024869267D-01
      0.4803310000D+01  0.9199996477D+00  0.2375939567D+00
      0.1459330000D+01 -0.3030682134D-02  0.8158538515D+00
 SP   1 1.00       0.000000000000
      0.4834560000D+00  0.1000000000D+01  0.1000000000D+01
 SP   1 1.00       0.000000000000
      0.1455850000D+00  0.1000000000D+01  0.1000000000D+01
 SP   1 1.00       0.000000000000
      0.4380000000D-01  0.1000000000D+01  0.1000000000D+01
 D   1 1.00       0.000000000000
      0.6260000000D+00  0.1000000000D+01
 ****
     16 0
 S   6 1.00       0.000000000000
      0.4563240000D+04  0.1966650249D-02
      0.6820240000D+03  0.1523060193D-01
      0.1549730000D+03  0.7612690966D-01
      0.4445530000D+02  0.2608010331D+00
      0.1302900000D+02  0.6164620782D+00
      0.1827730000D+01  0.2210060280D+00
 SP   3 1.00       0.000000000000
      0.2096420000D+02  0.1146600807D+00  0.4024869267D-01
      0.4803310000D+01  0.9199996477D+00  0.2375939567D+00
      0.1459330000D+01 -0.3030682134D-02  0.8158538515D+00
 SP   1 1.00       0.000000000000
      0.4834560000D+00  0.1000000000D+01  0.1000000000D+01
 SP   1 1.00       0.000000000000
      0.1455850000D+00  0.1000000000D+01  0.1000000000D+01
 SP   1 1.00       0.000000000000
      0.4380000000D-01  0.1000000000D+01  0.1000000000D+01
 D   1 1.00       0.000000000000
      0.6260000000D+00  0.1000000000D+01
 ****
     17 0
 S   6 1.00       0.000000000000
      0.4563240000D+04  0.1966650249D-02
      0.6820240000D+03  0.1523060193D-01
      0.1549730000D+03  0.7612690966D-01
      0.4445530000D+02  0.2608010331D+00
      0.1302900000D+02  0.6164620782D+00
      0.1827730000D+01  0.2210060280D+00
 SP   3 1.00       0.000000000000
      0.2096420000D+02  0.1146600807D+00  0.4024869267D-01
      0.4803310000D+01  0.9199996477D+00  0.2375939567D+00
      0.1459330000D+01 -0.3030682134D-02  0.8158538515D+00
 SP   1 1.00       0.000000000000
      0.4834560000D+00  0.1000000000D+01  0.1000000000D+01
 SP   1 1.00       0.000000000000
      0.1455850000D+00  0.1000000000D+01  0.1000000000D+01
 SP   1 1.00       0.000000000000
      0.4380000000D-01  0.1000000000D+01  0.1000000000D+01
 D   1 1.00       0.000000000000
      0.6260000000D+00  0.1000000000D+01
 ****
     18 0
 S   6 1.00       0.000000000000
      0.4563240000D+04  0.1966650249D-02
      0.6820240000D+03  0.1523060193D-01
      0.1549730000D+03  0.7612690966D-01
      0.4445530000D+02  0.2608010331D+00
      0.1302900000D+02  0.6164620782D+00
      0.1827730000D+01  0.2210060280D+00
 SP   3 1.00       0.000000000000
      0.2096420000D+02  0.1146600807D+00  0.4024869267D-01
      0.4803310000D+01  0.9199996477D+00  0.2375939567D+00
      0.1459330000D+01 -0.3030682134D-02  0.8158538515D+00
 SP   1 1.00       0.000000000000
      0.4834560000D+00  0.1000000000D+01  0.1000000000D+01
 SP   1 1.00       0.000000000000
      0.1455850000D+00  0.1000000000D+01  0.1000000000D+01
 SP   1 1.00       0.000000000000
      0.4380000000D-01  0.1000000000D+01  0.1000000000D+01
 D   1 1.00       0.000000000000
      0.6260000000D+00  0.1000000000D+01
 ****
     19 0
 S   6 1.00       0.000000000000
      0.4563240000D+04  0.1966650249D-02
      0.6820240000D+03  0.1523060193D-01
      0.1549730000D+03  0.7612690966D-01
      0.4445530000D+02  0.2608010331D+00
      0.1302900000D+02  0.6164620782D+00
      0.1827730000D+01  0.2210060280D+00
 SP   3 1.00       0.000000000000
      0.2096420000D+02  0.1146600807D+00  0.4024869267D-01
      0.4803310000D+01  0.9199996477D+00  0.2375939567D+00
      0.1459330000D+01 -0.3030682134D-02  0.8158538515D+00
 SP   1 1.00       0.000000000000
      0.4834560000D+00  0.1000000000D+01  0.1000000000D+01
 SP   1 1.00       0.000000000000
      0.1455850000D+00  0.1000000000D+01  0.1000000000D+01
 SP   1 1.00       0.000000000000
      0.4380000000D-01  0.1000000000D+01  0.1000000000D+01
 D   1 1.00       0.000000000000
      0.6260000000D+00  0.1000000000D+01
 ****
     20 0
 S   6 1.00       0.000000000000
      0.4563240000D+04  0.1966650249D-02
      0.6820240000D+03  0.1523060193D-01
      0.1549730000D+03  0.7612690966D-01
      0.4445530000D+02  0.2608010331D+00
      0.1302900000D+02  0.6164620782D+00
      0.1827730000D+01  0.2210060280D+00
 SP   3 1.00       0.000000000000
      0.2096420000D+02  0.1146600807D+00  0.4024869267D-01
      0.4803310000D+01  0.9199996477D+00  0.2375939567D+00
      0.1459330000D+01 -0.3030682134D-02  0.8158538515D+00
 SP   1 1.00       0.000000000000
      0.4834560000D+00  0.1000000000D+01  0.1000000000D+01
 SP   1 1.00       0.000000000000
      0.1455850000D+00  0.1000000000D+01  0.1000000000D+01
 SP   1 1.00       0.000000000000
      0.4380000000D-01  0.1000000000D+01  0.1000000000D+01
 D   1 1.00       0.000000000000
      0.6260000000D+00  0.1000000000D+01
 ****
     21 0
 S   3 1.00       0.000000000000
      0.3386500000D+02  0.2549381454D-01
      0.5094790000D+01  0.1903731086D+00
      0.1158790000D+01  0.8521614860D+00
 S   1 1.00       0.000000000000
      0.3258400000D+00  0.1000000000D+01
 S   1 1.00       0.000000000000
      0.1027410000D+00  0.1000000000D+01
 P   1 1.00       0.000000000000
      0.7500000000D+00  0.1000000000D+01
 ****
     22 0
 S   3 1.00       0.000000000000
      0.3386500000D+02  0.2549381454D-01
      0.5094790000D+01  0.1903731086D+00
      0.1158790000D+01  0.8521614860D+00
 S   1 1.00       0.000000000000
      0.3258400000D+00  0.1000000000D+01
 S   1 1.00       0.000000000000
      0.1027410000D+00  0.1000000000D+01
 P   1 1.00       0.000000000000
      0.7500000000D+00  0.1000000000D+01
 ****
     23 0
 S   3 1.00       0.000000000000
      0.3386500000D+02  0.2549381454D-01
      0.5094790000D+01  0.1903731086D+00
      0.1158790000D+01  0.8521614860D+00
 S   1 1.00       0.000000000000
      0.3258400000D+00  0.1000000000D+01
 S   1 1.00       0.000000000000
      0.1027410000D+00  0.1000000000D+01
 P   1 1.00       0.000000000000
      0.7500000000D+00  0.1000000000D+01
 ****
     24 0
 S   3 1.00       0.000000000000
      0.3386500000D+02  0.2549381454D-01
      0.5094790000D+01  0.1903731086D+00
      0.1158790000D+01  0.8521614860D+00
 S   1 1.00       0.000000000000
      0.3258400000D+00  0.1000000000D+01
 S   1 1.00       0.000000000000
      0.1027410000D+00  0.1000000000D+01
 P   1 1.00       0.000000000000
      0.7500000000D+00  0.1000000000D+01
 ****
     25 0
 S   3 1.00       0.000000000000
      0.3386500000D+02  0.2549381454D-01
      0.5094790000D+01  0.1903731086D+00
      0.1158790000D+01  0.8521614860D+00
 S   1 1.00       0.000000000000
      0.3258400000D+00  0.1000000000D+01
 S   1 1.00       0.000000000000
      0.1027410000D+00  0.1000000000D+01
 P   1 1.00       0.000000000000
      0.7500000000D+00  0.1000000000D+01
 ****
     26 0
 S   3 1.00       0.000000000000
      0.3386500000D+02  0.2549381454D-01
      0.5094790000D+01  0.1903731086D+00
      0.1158790000D+01  0.8521614860D+00
 S   1 1.00       0.000000000000
      0.3258400000D+00  0.1000000000D+01
 S   1 1.00       0.000000000000
      0.1027410000D+00  0.1000000000D+01
 P   1 1.00       0.000000000000
      0.7500000000D+00  0.1000000000D+01
 ****
     27 0
 S   3 1.00       0.000000000000
      0.3386500000D+02  0.2549381454D-01
      0.5094790000D+01  0.1903731086D+00
[...]
 ,-0.00002257,0.00000345,0.00006598,0.00006678,0.00000702,-0.00000011,-
 0.00001974,0.00001435,0.00010723,0.00005183,-0.00006700,0.00018081,-0.
 00012159,0.00038626,-0.00007350,0.00010601,-0.00002928,-0.00004400,0.0
 0003140,-0.00003545,-0.00025956,0.00003044,-0.00012505,0.00001967,-0.0
 0001304,0.00004909,-0.00000037,0.00001287,0.00010015,-0.00008044,0.000
 04698,0.00012739,0.00001152,0.00000655,-0.00000163,0.00001888,0.000044
 26,0.00005181,0.04060669,0.04286728,0.00004469,-0.00009852,0.00008113,
 0.00040954,0.00081540,-0.00054691,0.00002549,0.00002520,-0.00001283,0.
 00001699,-0.00000415,-0.00000649,-0.00005372,-0.00006573,-0.00002598,-
 0.00013183,0.00013079,-0.00024292,-0.00055837,-0.00035275,-0.00027511,
 -0.00569561,-0.00209886,-0.00397645,0.00000147,-0.00003290,-0.00003092
 ,-0.00004207,0.00001761,0.00014201,-0.00001732,-0.00000370,0.00000633,
 0.00000037,-0.00000378,-0.00000088,-0.00016209,0.00010265,0.00012278,0
 .00038904,-0.00013702,-0.00016292,-0.00004164,-0.00010452,0.00018365,-
 0.00004775,-0.00011506,-0.00005122,0.00036606,0.00069876,0.00007252,0.
 00035707,-0.00014285,-0.00018599,0.04990704,0.00215054,-0.05491652,-0.
 02205985,-0.00376867,0.00315434,-0.00001450,0.00000269,0.00001466,-0.0
 0001758,-0.00002249,-0.00000538,-0.00003443,-0.00006922,0.00004094,0.0
 0001151,0.00000634,0.00005771,0.00019108,-0.00000705,0.00004201,-0.000
 70201,-0.00098664,0.00114705,0.00002038,0.00000216,0.00000003,-0.00001
 998,-0.00001842,0.00000033,0.00001977,-0.00003127,-0.00002785,-0.00003
 998,0.00006420,-0.00006539,-0.00000221,-0.00000023,-0.00000081,-0.0000
 0028,0.00001066,0.00000208,-0.00000313,0.00000909,0.00000143,-0.000002
 28,-0.00000361,0.00000154,-0.00003500,-0.00005082,-0.00000765,0.000005
 48,0.00004245,-0.00001215,0.00002910,0.00002384,0.00010388,-0.00010223
 ,0.00032013,-0.00013617,0.00016876,-0.00000729,0.00003211,0.00000740,-
 0.00002714,-0.00000009,-0.00002915,-0.00004483,0.00005630,-0.00003191,
 -0.00000142,-0.00001130,0.00005221,-0.00010931,0.00036700,-0.00009526,
 0.00003748,0.00004686,0.00004211,0.00005998,0.00002340,0.00007891,0.00
 013323,0.00001889,-0.04611833,-0.00110096,0.05591150,-0.00024447,-0.00
 014459,0.00026383,0.00092210,-0.00077697,0.00049201,-0.00007738,0.0000
 3017,-0.00003105,0.00012415,-0.00007238,0.00000915,0.00009966,0.000074
 54,-0.00002404,-0.00012032,0.00026462,-0.00001367,-0.00041833,-0.00082
 727,-0.00070133,0.00084621,-0.00004842,-0.00765175,-0.00001976,-0.0000
 0300,-0.00001250,0.00000914,0.00006572,0.00003568,-0.00004878,-0.00001
 130,0.00000109,-0.00002119,-0.00000611,-0.00000172,-0.00003968,0.00006
 634,0.00019463,0.00025509,-0.00023083,-0.00011479,-0.00001883,-0.00006
 501,0.00010433,-0.00004570,-0.00002553,-0.00001326,-0.00125064,0.00001
 213,0.00113773,0.00013204,-0.00001291,-0.00011219,-0.08413109,0.027531
 44,0.09455392,0.00439051,-0.00588261,-0.01595774,0.00001439,-0.0000053
 6,-0.00000942,-0.00003163,-0.00002718,-0.00000494,-0.00005541,-0.00011
 015,0.00004682,0.00004276,0.00005820,0.00006532,-0.00003296,-0.0000262
 1,-0.00000370,-0.00029167,0.00000488,-0.00096792,0.00000829,0.00003024
 ,-0.00000393,0.00000160,0.00000783,-0.00001274,0.00002924,-0.00006197,
 -0.00006485,-0.00002732,-0.00000083,0.00005999,0.00000022,-0.00001432,
 -0.00000509,-0.00000357,0.00000482,-0.00000696,-0.00000948,0.00002026,
 0.00001082,-0.00000049,-0.00001583,-0.00000068,-0.00001910,-0.00010300
 ,0.00000921,-0.00001012,-0.00002978,0.00000258,0.00011270,0.00003852,-
 0.00020108,-0.00054032,0.00050361,0.00000784,0.00005416,-0.00001057,-0
 .00004086,0.00001490,0.00003253,0.00002613,-0.00001536,-0.00000953,0.0
 0003401,-0.00005008,-0.00003283,0.00000191,-0.00014803,-0.00024565,0.0
 0064664,-0.00024491,0.00013280,0.00016311,0.00010063,0.00009240,-0.000
 04549,0.00010012,0.00012636,-0.00003601,-0.00627592,0.00913598,0.02507
 504,0.08714179,-0.00030667,-0.00036529,-0.00027251,0.00178444,0.001479
 87,0.00145892,0.00011572,-0.00002316,-0.00015678,0.00004141,-0.0000160
 9,0.00012084,-0.00024221,-0.00091065,0.00014149,0.00004586,0.00025287,
 -0.00021736,-0.00070588,-0.00045867,-0.00007680,0.01389545,-0.00729499
 ,-0.02565325,-0.00002336,-0.00004376,0.00016828,-0.00016641,-0.0000310
 8,-0.00008405,0.00005118,0.00002025,0.00005029,-0.00003663,-0.00006567
 ,0.00002923,-0.00026260,0.00007722,-0.00026180,0.00020362,0.00043078,0
 .00032978,0.00015679,-0.00007852,0.00016062,-0.00010291,-0.00001129,0.
 00016269,-0.00054625,0.00069111,0.00015831,0.00044763,-0.00009192,-0.0
 0002015,0.02599887,-0.05987359,-0.08019777,-0.00843787,0.00239434,0.01
 572455,0.00003272,0.00014277,0.00013711,-0.00001211,-0.00001177,-0.000
 01385,0.00001936,0.00005952,0.00005592,0.00006110,0.00017453,0.0000752
 2,0.00013501,0.00003306,0.00005389,-0.00397884,-0.00199581,-0.00381524
 ,0.00004741,-0.00007553,0.00001847,-0.00000356,-0.00000775,0.00001897,
 -0.00007189,0.00006116,0.00003960,0.00007294,-0.00002629,-0.00000734,0
 .00000243,0.00002275,0.00001371,-0.00000552,0.00002149,0.00000879,0.00
 001090,-0.00001758,-0.00001216,-0.00000108,-0.00001291,0.00000118,0.00
 002691,0.00016962,-0.00002587,-0.00003333,0.00009771,-0.00006683,0.000
 13424,0.00000378,0.00030705,0.00065742,-0.00035656,0.00023391,0.000017
 62,0.00001464,0.00001270,0.00002927,-0.00000115,0.00002260,-0.00001557
 ,-0.00002645,0.00003385,-0.00008284,-0.00000754,-0.00003298,-0.0001610
 0,0.00010931,0.00085636,0.00032996,-0.00009302,0.00000989,-0.00001932,
 -0.00003076,-0.00003616,0.00010407,0.00015167,0.00005795,-0.00124990,0
 .00072434,0.00509964,-0.02913109,0.06379402,-0.00029295,-0.00012097,0.
 00000234,0.00075785,-0.00018940,-0.00011813,0.00000920,0.00000859,0.00
 000693,0.00007597,-0.00005527,0.00008708,-0.00009974,-0.00017424,-0.00
 005564,-0.00008343,0.00008482,0.00004997,-0.00014966,-0.00039831,-0.00
 028114,-0.00184288,0.00108167,-0.00219543,0.00000321,-0.00002445,0.000
 02668,-0.00002419,-0.00001325,-0.00001977,-0.00000182,0.00001699,0.000
 00959,-0.00002118,-0.00002313,0.00002631,0.00003759,-0.00000225,-0.000
 31413,-0.00061758,0.00120302,-0.00019769,-0.00000128,-0.00007441,0.000
 10719,-0.00005697,-0.00007612,-0.00005743,0.00152041,0.00088072,0.0000
 2709,0.00036764,0.00022434,-0.00043379,0.09116531,-0.08183989,-0.27586
 149,0.00602048,-0.00628642,-0.01693009,0.00000073,0.00002034,0.0000114
 2,-0.00000139,-0.00001371,-0.00001881,0.00000726,0.00000635,0.00000694
 ,-0.00000916,0.00001331,0.00000119,0.00000263,-0.00001167,-0.00003031,
 -0.00037781,0.00106294,0.00015093,0.00000427,-0.00001250,-0.00000571,0
 .00000461,-0.00000225,-0.00000031,-0.00000676,0.00000525,0.00000208,0.
 00000689,-0.00000108,0.00000826,0.00000078,0.00000281,-0.00000251,-0.0
 0000271,0.00000567,-0.00000225,0.00000624,-0.00000139,0.00000325,-0.00
 000097,-0.00001828,0.00000316,0.00003578,0.00010677,0.00000295,-0.0000
 3170,-0.00002559,-0.00000639,-0.00003631,0.00001375,-0.00019778,0.0000
 2733,0.00040632,-0.00043770,0.00007011,-0.00000439,-0.00001974,0.00001
 549,0.00002361,0.00001746,-0.00003586,-0.00001553,0.00001166,-0.000023
 17,-0.00002435,0.00000499,0.00074714,0.00035205,-0.00036163,-0.0002459
 7,0.00004787,0.00007151,0.00006200,0.00004758,-0.00000396,0.00005276,0
 .00008643,0.00003704,-0.00070119,0.00001665,-0.00051120,-0.09522560,0.
 08452907,0.29705904,-0.00030069,-0.00018326,-0.00009194,0.00008219,-0.
 00062427,0.00063629,-0.00000723,-0.00000426,0.00007573,0.00006974,-0.0
 0006099,0.00010460,-0.00007405,-0.00015325,0.00002039,0.00011940,-0.00
 004955,0.00020736,-0.00044496,-0.00013714,0.00011489,-0.00413628,0.002
 60962,-0.00083912,0.00000725,0.00000561,-0.00001954,0.00002012,-0.0000
 2584,-0.00003494,0.00002279,0.00000232,-0.00001000,-0.00003705,-0.0000
 1697,0.00001244,-0.00001994,-0.00001855,-0.00012096,-0.00011475,0.0002
 3354,-0.00004388,0.00009125,0.00012860,-0.00019103,0.00009114,0.000000
 19,0.00003735,0.00000541,-0.00000045,-0.00039231,0.00019797,-0.0004636
 3,0.00011091,0.00883339,0.00528720,-0.01900737,-0.09230995,-0.02291557
 ,0.10565152,0.00000038,-0.00000356,-0.00002259,0.00001582,0.00002590,0
 .00000679,0.00000888,0.00003886,-0.00002451,-0.00002748,-0.00005754,-0
 .00005569,0.00046774,0.00006674,0.00029037,0.00116777,0.00106713,-0.00
 078645,-0.00001488,-0.00000695,-0.00000085,0.00001496,0.00000103,0.000
 00292,0.00000113,0.00001695,0.00001540,0.00001682,-0.00000126,-0.00000
 088,-0.00000295,-0.00000536,0.00000082,0.00000189,-0.00001085,-0.00000
 486,0.00000411,-0.00000432,-0.00000161,-0.00000056,-0.00001310,-0.0000
 0105,0.00001366,0.00005646,-0.00000128,0.00000279,0.00001014,-0.000002
 35,0.00000700,-0.00000809,0.00003125,0.00017661,-0.00001417,-0.0000236
 2,-0.00008384,0.00006577,0.00018485,-0.00005481,-0.00011625,-0.0000777
 7,0.00000749,0.00001650,-0.00004275,0.00004586,0.00004190,-0.00001134,
 -0.00003450,-0.00003031,0.00014328,0.00007372,-0.00002479,-0.00009734,
 -0.00009852,-0.00001586,0.00013977,-0.00001077,0.00001666,0.00000869,0
 .00148989,-0.00182734,0.00082714,-0.00154886,0.00251806,-0.00210925,0.
 09334075,-0.00148931,-0.00064804,0.00018668,0.00405491,-0.00155308,0.0
 0292245,-0.00015499,0.00013851,0.00008626,0.00043108,-0.00031079,0.000
 35673,-0.00003482,-0.00013716,-0.00023617,0.00006890,0.00010684,0.0004
 1551,0.00051608,-0.00033279,-0.00030980,-0.01259510,-0.00616848,0.0255
 0041,0.00001062,-0.00001746,-0.00008004,-0.00000966,0.00005228,-0.0000
 0062,-0.00001837,-0.00000930,-0.00000267,-0.00016033,-0.00009241,0.000
 04340,-0.00002974,0.00001694,0.00003552,-0.00002074,0.00011600,-0.0000
 3933,0.00012229,0.00015815,-0.00023479,0.00015503,-0.00008579,-0.00001
 740,0.00002003,0.00014874,0.00010894,-0.00009969,0.00016779,-0.0000925
 9,0.00737216,-0.00209031,-0.00798083,-0.02157248,-0.05490015,0.0642357
 6,0.00001087,-0.00004421,-0.00003142,-0.00001087,-0.00000154,-0.000002
 39,-0.00000032,-0.00001543,0.00003296,-0.00001424,-0.00006400,-0.00002
 851,-0.00017148,0.00002091,-0.00008963,-0.00178406,0.00142915,-0.00195
 712,-0.00000790,0.00000839,-0.00000304,0.00002018,-0.00001439,0.000003
 98,0.00005986,-0.00001798,-0.00000968,-0.00000027,0.00001530,-0.000015
 59,-0.00000768,-0.00003408,0.00000076,0.00000285,-0.00001208,-0.000019
 74,0.00000502,0.00001540,0.00001057,-0.00000283,-0.00007298,-0.0000055
 6,0.00001988,0.00001677,0.00000972,0.00000126,0.00000320,0.00000076,0.
 00002378,0.00000840,0.00007315,0.00003920,0.00000020,-0.00003093,-0.00
 015741,0.00004617,0.00001014,-0.00013713,-0.00004598,-0.00011101,-0.00
 003619,0.00004598,-0.00005927,0.00001831,0.00001944,-0.00001209,0.0000
 0975,-0.00001179,0.00002616,-0.00008337,0.00004332,0.00012117,0.000049
 05,0.00001347,-0.00006006,-0.00000803,0.00003670,0.00004797,0.00072063
 ,0.00045228,0.00168311,-0.00159383,0.00096647,-0.00190779,0.02288938,0
 .05927560,-0.00013779,-0.00022957,0.00007387,-0.00012002,-0.00111122,0
 .00066325,-0.00004818,-0.00000084,-0.00000446,0.00000849,-0.00003519,0
 .00004377,-0.00007536,-0.00018424,0.00002905,0.00015804,0.00008283,-0.
 00001158,-0.00004243,-0.00016837,-0.00006686,-0.00381103,-0.00078177,0
 .00031018,-0.00000754,0.00004434,-0.00000914,0.00005554,0.00000018,-0.
 00003965,0.00001424,0.00001463,0.00001715,-0.00001100,-0.00003094,0.00
 000925,-0.00004054,-0.00000214,-0.00012630,-0.00013018,0.00025355,-0.0
 0003610,-0.00000705,0.00001270,0.00002573,-0.00000964,0.00005486,0.000
 00615,-0.00000905,0.00012372,0.00004367,0.00006483,0.00003998,-0.00005
 111,0.00907410,0.00459881,-0.01572355,0.10307424,0.06455302,-0.2680320
 8,-0.00001145,-0.00000369,-0.00000775,0.00000298,-0.00000013,-0.000006
 10,0.00001005,0.00001403,0.00000180,-0.00000269,-0.00000153,0.00000403
 ,-0.00001902,-0.00000530,-0.00001251,-0.00025062,0.00077011,0.00050446
 ,-0.00000877,-0.00000144,-0.00000254,0.00000468,0.00001729,0.00000644,
 0.00000357,0.00000730,0.00002283,0.00003550,-0.00001411,0.00000880,0.0
 0000659,0.00000790,0.00000341,-0.00000404,-0.00000148,0.00000155,0.000
 00035,-0.00000802,-0.00000129,0.00000296,-0.00000397,-0.00000207,0.000
 01639,0.00006476,-0.00000982,-0.00001006,0.00002000,-0.00000898,0.0000
 2740,-0.00000182,0.00004886,0.00020322,-0.00001539,-0.00001541,0.00002
 699,0.00001507,-0.00002492,0.00002426,0.00002075,0.00002066,0.00001455
 ,0.00000650,0.00001024,-0.00001052,-0.00001299,-0.00000045,-0.00000600
 ,-0.00001839,0.00009885,-0.00002200,0.00001252,0.00003427,0.00001186,0
 .00000134,-0.00001170,0.00003173,0.00002950,0.00001130,0.00044737,-0.0
 0136857,0.00190855,-0.00180894,0.00279565,-0.00131606,-0.10680156,-0.0
 7044518,0.28429741,0.00029112,0.00008179,0.00004973,-0.00109175,0.0001
 7861,0.00012199,-0.00005722,-0.00001148,-0.00000539,-0.00009510,0.0000
 6161,-0.00006600,-0.00001253,-0.00003507,0.00005046,0.00025410,-0.0000
 4679,0.00009719,-0.00051295,-0.00086281,0.00069492,0.00411113,-0.00162
 021,-0.00405549,-0.00001506,0.00002732,0.00002957,0.00004425,0.0000169
 8,-0.00001869,0.00001215,-0.00000017,0.00000611,0.00002883,0.00001776,
 -0.00001527,0.00001908,-0.00000818,-0.00007048,-0.00009403,0.00001868,
 0.00003442,-0.00035299,0.00017395,-0.00005089,0.00004321,0.00007084,-0
 .00002279,-0.00021657,-0.00019378,-0.00025090,0.00014085,-0.00026160,0
 .00014430,-0.01545186,0.00724205,0.00433756,-0.26825438,0.11008652,0.0
 5840768,-0.00000127,0.00000706,0.00000793,0.00001679,0.00001390,0.0000
 0154,0.00000865,0.00002392,-0.00002058,-0.00001749,-0.00002260,-0.0000
 0199,-0.00030573,-0.00097056,0.00089626,0.00045804,-0.00143436,0.00015
 706,0.00000227,0.00000287,-0.00000299,-0.00000064,0.00002050,-0.000002
 30,0.00000939,-0.00001663,-0.00000946,0.00003122,-0.00002936,0.0000358
 0,0.00000641,0.00000947,0.00000072,-0.00000230,-0.00000548,0.00000124,
 0.00000056,-0.00000973,0.00000043,0.00000495,0.00001818,-0.00000123,0.
 00000743,0.00002408,-0.00000905,0.00000163,-0.00000444,0.00000462,0.00
 001363,0.00000714,-0.00004166,0.00008946,-0.00002890,0.00004591,-0.000
 07870,-0.00049170,-0.00025966,0.00001184,-0.00000826,0.00001496,0.0000
 7963,-0.00000479,0.00002973,-0.00001290,0.00000652,-0.00002049,0.00000
 399,0.00001613,-0.00002595,0.00012306,0.00000406,-0.00011733,-0.000074
 94,-0.00007031,0.00005938,0.00000510,0.00000176,-0.00002998,-0.0006022
 1,0.00224536,-0.00198813,0.00134172,-0.00134358,0.00099786,-0.00707585
 ,0.00357974,0.00008557,0.28716598,0.00037149,0.00014128,0.00000373,-0.
 00029541,0.00240306,-0.00239418,0.00036156,0.00003904,-0.00000457,-0.0
 0001801,0.00009638,-0.00002843,0.00000972,0.00004470,-0.00007200,-0.00
 038616,-0.00058017,0.00028022,0.00051335,-0.00074516,0.00035007,0.0264
 1817,-0.00929045,-0.00860486,-0.00000433,-0.00017062,0.00021002,-0.000
 36235,-0.00022558,-0.00002734,-0.00001018,-0.00002027,-0.00001578,-0.0
 0001151,0.00000443,-0.00000651,0.00000784,0.00001945,0.00002496,0.0000
 2863,0.00000065,0.00000238,0.00033698,-0.00012039,-0.00012687,0.000105
 70,-0.00001160,0.00015568,-0.00026237,0.00012416,0.00044162,-0.0003279
 8,0.00068651,-0.00012087,-0.01029967,0.00104164,0.00437683,0.10894055,
 -0.08676247,-0.01953068,0.00007299,0.00013080,0.00005100,-0.00005016,-
 0.00004763,0.00001993,-0.00000500,-0.00002409,0.00006828,0.00000375,0.
 00016824,0.00002261,-0.00146782,-0.00033237,0.00013660,0.00222693,-0.0
 0290529,0.00402595,0.00004168,-0.00008537,0.00001975,-0.00000270,-0.00
 004552,0.00000804,-0.00009826,0.00004823,0.00000797,-0.00003075,0.0000
 0850,-0.00000449,-0.00001438,-0.00001807,0.00001207,0.00000792,0.00002
 231,0.00001273,-0.00000368,0.00001775,-0.00001849,-0.00000781,-0.00000
 095,-0.00000188,-0.00001141,-0.00000714,0.00000480,-0.00001775,0.00000
 546,-0.00002008,0.00000375,-0.00000175,0.00001146,-0.00008009,-0.00004
 344,-0.00000314,-0.00064397,-0.00006100,-0.00030614,-0.00002238,0.0001
 7994,0.00002243,-0.00007046,0.00010721,-0.00010114,-0.00004007,-0.0000
 3028,-0.00000172,0.00006946,-0.00000812,-0.00017297,0.00002370,-0.0000
 4661,-0.00000032,0.00012278,-0.00004110,-0.00027911,0.00001521,0.00002
 986,0.00004233,-0.00164811,0.00101149,-0.00202672,0.00129168,0.0000345
 3,0.00106969,-0.00830505,0.00335781,0.00088496,-0.11647602,0.09190202,
 0.00004109,-0.00008041,-0.00006413,0.00023395,0.00087700,0.00085357,-0
 .00003975,-0.00011687,-0.00000023,-0.00003767,0.00001609,-0.00000545,-
 0.00005141,-0.00002253,0.00004604,0.00022892,-0.00003258,-0.00005900,0
 .00008716,0.00113826,0.00037562,-0.00246041,-0.00081941,-0.00332949,-0
 .00004785,0.00001524,0.00004155,0.00002897,0.00007591,-0.00007194,0.00
 002356,-0.00000701,-0.00001789,-0.00000433,0.00001162,-0.00000820,0.00
 004388,-0.00003111,-0.00008074,-0.00009774,-0.00000704,0.00002219,0.00
 016600,-0.00019908,-0.00022549,0.00004487,0.00017417,0.00021610,-0.000
 09120,-0.00013910,-0.00055848,-0.00009885,-0.00027269,0.00013621,-0.02
 112181,0.01045710,0.00402387,0.06157412,-0.02108984,-0.05897697,0.0000
 2997,0.00002371,0.00001184,0.00001632,0.00002457,0.00002063,0.00001662
 ,0.00004778,-0.00003645,-0.00001683,0.00004693,-0.00007147,0.00035440,
 0.00058723,0.00014787,-0.00032900,-0.00061216,0.00034088,0.00000981,0.
 00000182,-0.00000011,0.00001481,0.00001966,-0.00000486,-0.00000321,-0.
 00000577,-0.00000481,0.00004222,-0.00003097,0.00005360,-0.00000257,-0.
 00000582,0.00000242,0.00000200,-0.00001022,-0.00000146,0.00000090,-0.0
 0000379,-0.00000441,0.00000205,0.00000824,-0.00000199,0.00000680,0.000
 02502,-0.00000409,0.00000616,-0.00000955,0.00000687,0.00000829,0.00000
 825,-0.00006440,0.00011007,-0.00003899,0.00008222,-0.00037445,-0.00017
 278,0.00000821,0.00000686,0.00005789,0.00000325,0.00002707,0.00004089,
 -0.00005858,0.00003729,0.00001423,0.00000695,-0.00000193,-0.00004617,0
 .00003867,0.00022898,-0.00016039,-0.00025670,-0.00009339,-0.00004948,0
 .00004369,-0.00007203,-0.00004609,0.00005484,-0.00154700,0.00280053,-0
 .00232589,0.00013044,-0.00193561,0.00164407,0.02219407,-0.01212885,-0.
 00268511,-0.05922623,0.02160216,0.06073722\\-0.00000372,0.00000289,0.0
 0000116,0.00000060,-0.00000327,-0.00000219,0.00000269,-0.00000005,-0.0
 0000607,0.00000175,-0.00000514,-0.00000080,0.00000232,-0.00000302,-0.0
 0000176,0.00000186,0.00000441,0.00000494,0.00000003,0.00000097,0.00000
 606,-0.00000629,0.00000246,0.00000161,-0.00000011,0.00000613,0.0000070
 7,-0.00000413,-0.00000069,-0.00000053,0.00000698,0.00000260,0.00000548
 ,-0.00000154,-0.00000122,0.00000029,-0.00000136,0.00000122,-0.00000099
 ,0.00000215,-0.00000153,-0.00000201,-0.00000036,-0.00000887,-0.0000022
 1,-0.00000414,0.00000468,0.00000311,-0.00000467,0.00000306,-0.00000103
 ,0.00000514,0.00000309,-0.00000037,-0.00000032,0.00000046,-0.00000276,
 0.00000588,0.00000093,-0.00000988,-0.00000089,0.00000148,0.00000208,0.
 00000110,0.00000074,0.00000160,0.00000177,-0.00000074,0.00000034,0.000
 00003,-0.00000164,-0.00000143,-0.00000190,0.00000021,0.00000119,-0.000
 00023,-0.00000027,-0.00000248,0.00000171,0.00000125,-0.00000647,0.0000
 0104,-0.00000366,-0.00000690,-0.00000004,0.00000163,-0.00000407,0.0000
 0111,0.00000033,-0.00000329,-0.00000356,-0.00000178,-0.00000086,-0.000
 00026,0.00000017,-0.00000139,0.00000133,0.00000036,-0.00000171,0.00000
 501,0.00000044,-0.00000179,0.00000382,-0.00000013,-0.00000162,0.000003
 74,-0.00000144,-0.00000297,0.00000110,0.00000269,0.00000195,0.00000216
 ,0.00000129,-0.00000354,-0.00000400,0.00000452,0.00000316,-0.00000396,
 0.00000140,0.00000449,-0.00000244,-0.00000439,-0.00000012,-0.00000002,
 -0.00000080,0.00000257,0.00000277,-0.00000188,0.00000237,0.00000139,-0
 .00000474,0.00000170,0.00000233,-0.00000465,0.00000411,-0.00000223,-0.
 00000045,0.00000281,-0.00000062,0.00000145,-0.00000082,-0.00000096,0.0
 0000001,0.00000176,-0.00000630,-0.00000171,0.00000774,-0.00000577,0.00
 000120,0.00000247\\\@


 ALL MY ATTEMPTS TO ADAPT THE THEORETICAL FOUNDATIONS OF PHYSICS
 TO THESE NEW NOTIONS FAILED COMPLETELY. IT WAS AS IF THE GROUND HAD
 BEEN PULLED OUT FROM UNDER ONE WITH NO FIRM FOUNDATION TO BE SEEN ANYWHERE,
 UPON WHICH ONE COULD HAVE BUILT.  -- A.EINSTEIN
 Job cpu time:       1 days 15 hours 33 minutes 56.8 seconds.
 File lengths (MBytes):  RWF=   1596 Int=      0 D2E=      0 Chk=     29 Scr=      1
 Normal termination of Gaussian 09 at Sun Apr 26 13:05:00 2015.
