 Entering Gaussian System, Link 0=g09
 Input=0_0freq-b971_277-10-1.gau
 Output=0_0freq-b971_277-10-1.log
 Initial command:
 /opt/g09/l1.exe "/scratch/pb556/g09_run/add_hco//Gau-808.inp" -scrdir="/scratch/pb556/g09_run/add_hco//"
 Entering Link 1 = /opt/g09/l1.exe PID=       817.
  
 Copyright (c) 1988,1990,1992,1993,1995,1998,2003,2009,2013,
            Gaussian, Inc.  All Rights Reserved.
  
 This is part of the Gaussian(R) 09 program.  It is based on
 the Gaussian(R) 03 system (copyright 2003, Gaussian, Inc.),
 the Gaussian(R) 98 system (copyright 1998, Gaussian, Inc.),
 the Gaussian(R) 94 system (copyright 1995, Gaussian, Inc.),
 the Gaussian 92(TM) system (copyright 1992, Gaussian, Inc.),
 the Gaussian 90(TM) system (copyright 1990, Gaussian, Inc.),
 the Gaussian 88(TM) system (copyright 1988, Gaussian, Inc.),
 the Gaussian 86(TM) system (copyright 1986, Carnegie Mellon
 University), and the Gaussian 82(TM) system (copyright 1983,
 Carnegie Mellon University). Gaussian is a federally registered
 trademark of Gaussian, Inc.
  
 This software contains proprietary and confidential information,
 including trade secrets, belonging to Gaussian, Inc.
  
 This software is provided under written license and may be
 used, copied, transmitted, or stored only in accord with that
 written license.
  
 The following legend is applicable only to US Government
 contracts under FAR:
  
                    RESTRICTED RIGHTS LEGEND
  
 Use, reproduction and disclosure by the US Government is
 subject to restrictions as set forth in subparagraphs (a)
 and (c) of the Commercial Computer Software - Restricted
 Rights clause in FAR 52.227-19.
  
 Gaussian, Inc.
 340 Quinnipiac St., Bldg. 40, Wallingford CT 06492
  
  
 ---------------------------------------------------------------
 Warning -- This program may not be used in any manner that
 competes with the business of Gaussian, Inc. or will provide
 assistance to any competitor of Gaussian, Inc.  The licensee
 of this program is prohibited from giving any competitor of
 Gaussian, Inc. access to this program.  By using this program,
 the user acknowledges that Gaussian, Inc. is engaged in the
 business of creating and licensing software in the field of
 computational chemistry and represents and warrants to the
 licensee that it is not a competitor of Gaussian, Inc. and that
 it will not use this program in any manner prohibited above.
 ---------------------------------------------------------------
  

 Cite this work as:
 Gaussian 09, Revision D.01,
 M. J. Frisch, G. W. Trucks, H. B. Schlegel, G. E. Scuseria, 
 M. A. Robb, J. R. Cheeseman, G. Scalmani, V. Barone, B. Mennucci, 
 G. A. Petersson, H. Nakatsuji, M. Caricato, X. Li, H. P. Hratchian, 
 A. F. Izmaylov, J. Bloino, G. Zheng, J. L. Sonnenberg, M. Hada, 
 M. Ehara, K. Toyota, R. Fukuda, J. Hasegawa, M. Ishida, T. Nakajima, 
 Y. Honda, O. Kitao, H. Nakai, T. Vreven, J. A. Montgomery, Jr., 
 J. E. Peralta, F. Ogliaro, M. Bearpark, J. J. Heyd, E. Brothers, 
 K. N. Kudin, V. N. Staroverov, T. Keith, R. Kobayashi, J. Normand, 
 K. Raghavachari, A. Rendell, J. C. Burant, S. S. Iyengar, J. Tomasi, 
 M. Cossi, N. Rega, J. M. Millam, M. Klene, J. E. Knox, J. B. Cross, 
 V. Bakken, C. Adamo, J. Jaramillo, R. Gomperts, R. E. Stratmann, 
 O. Yazyev, A. J. Austin, R. Cammi, C. Pomelli, J. W. Ochterski, 
 R. L. Martin, K. Morokuma, V. G. Zakrzewski, G. A. Voth, 
 P. Salvador, J. J. Dannenberg, S. Dapprich, A. D. Daniels, 
 O. Farkas, J. B. Foresman, J. V. Ortiz, J. Cioslowski, 
 and D. J. Fox, Gaussian, Inc., Wallingford CT, 2013.
 
 ******************************************
 Gaussian 09:  ES64L-G09RevD.01 24-Apr-2013
                26-Apr-2015 
 ******************************************
 %NProcShared=8
 Will use up to    8 processors via shared memory.
 %Mem=500MW
 ----------------------------------------------------------------------
 #p rB971/6-311+G(d,p) Opt=(Tight, CalcAll) Freq GFInput Population=Non
 e Integral(Grid=UltraFine) Guess=MIX NoSymmetry
 ----------------------------------------------------------------------
 1/7=10,10=4,14=-1,18=20,19=15,26=4,38=1/1,3;
 2/9=110,12=2,15=1,17=6,18=5,40=1/2;
 3/5=4,6=6,7=111,11=2,16=1,24=10,25=1,30=1,71=2,74=-20,75=-5,116=1,140=1/1,2,3;
 4/13=-1/1;
 5/5=2,38=5/2;
 8/6=4,10=90,11=11/1;
 11/6=1,8=1,9=11,15=111,16=1,31=1/1,2,10;
 10/6=1,31=1/2;
 7/10=1,25=1,30=1/1,2,3,16;
 1/7=10,10=4,14=-1,18=20,19=15,26=4/3(3);
 2/9=110,15=1/2;
 7/8=1,9=1,25=1,30=1,44=-1/16;
 99//99;
 2/9=110,15=1/2;
 3/5=4,6=6,7=111,11=2,16=1,25=1,30=1,71=2,74=-20,75=-5,116=1,140=1/1,2,3;
 4/5=5,16=3,69=1/1;
 5/5=2,38=5/2;
 8/6=4,10=90,11=11/1;
 11/6=1,8=1,9=11,15=111,16=1,31=1/1,2,10;
 10/6=1,31=1/2;
 7/10=1,25=1,30=1/1,2,3,16;
 1/7=10,10=4,14=-1,18=20,19=15,26=4/3(-8);
 2/9=110,15=1/2;
 7/8=1,9=1,25=1,30=1,44=-1/16;
 99//99;
 Leave Link    1 at Sun Apr 26 03:17:19 2015, MaxMem=   524288000 cpu:         0.5
 (Enter /opt/g09/l101.exe)
 ----------------------
 freq-b971_277-10-1.gau
 ----------------------
 Symbolic Z-matrix:
 Charge =  0 Multiplicity = 1
 C                     0.83327   2.23968   2.36073 
 C                     2.29628   2.26953   2.94255 
 C                     0.89032   0.66723   2.29785 
 C                     1.41305   2.31919   0.89871 
 C                     2.35337   0.69704   2.87966 
 C                     2.87609   2.34901   1.48056 
 C                     2.93313   0.77656   1.41765 
 C                     1.47011   0.74671   0.83585 
 H                    -0.00657   2.82485   2.73784 
 H                     2.62666   2.87859   3.78507 
 H                     0.09613  -0.00536   2.6247 
 H                     1.03701   2.96794   0.10645 
 H                     2.72942   0.04831   3.67192 
 H                     3.67027   3.02161   1.15371 
 H                     3.77295   0.19139   1.04052 
 H                     1.13972   0.13764  -0.00666 
 
 NAtoms=     16 NQM=       16 NQMF=       0 NMMI=      0 NMMIF=      0
                NMic=       0 NMicF=      0.
                    Isotopes and Nuclear Properties:
 (Nuclear quadrupole moments (NQMom) in fm**2, nuclear magnetic moments (NMagM)
  in nuclear magnetons)

  Atom         1           2           3           4           5           6           7           8           9          10
 IAtWgt=          12          12          12          12          12          12          12          12           1           1
 AtmWgt=  12.0000000  12.0000000  12.0000000  12.0000000  12.0000000  12.0000000  12.0000000  12.0000000   1.0078250   1.0078250
 NucSpn=           0           0           0           0           0           0           0           0           1           1
 AtZEff=   0.0000000   0.0000000   0.0000000   0.0000000   0.0000000   0.0000000   0.0000000   0.0000000   0.0000000   0.0000000
 NQMom=    0.0000000   0.0000000   0.0000000   0.0000000   0.0000000   0.0000000   0.0000000   0.0000000   0.0000000   0.0000000
 NMagM=    0.0000000   0.0000000   0.0000000   0.0000000   0.0000000   0.0000000   0.0000000   0.0000000   2.7928460   2.7928460
 AtZNuc=   6.0000000   6.0000000   6.0000000   6.0000000   6.0000000   6.0000000   6.0000000   6.0000000   1.0000000   1.0000000

  Atom        11          12          13          14          15          16
 IAtWgt=           1           1           1           1           1           1
 AtmWgt=   1.0078250   1.0078250   1.0078250   1.0078250   1.0078250   1.0078250
 NucSpn=           1           1           1           1           1           1
 AtZEff=   0.0000000   0.0000000   0.0000000   0.0000000   0.0000000   0.0000000
 NQMom=    0.0000000   0.0000000   0.0000000   0.0000000   0.0000000   0.0000000
 NMagM=    2.7928460   2.7928460   2.7928460   2.7928460   2.7928460   2.7928460
 AtZNuc=   1.0000000   1.0000000   1.0000000   1.0000000   1.0000000   1.0000000
 Leave Link  101 at Sun Apr 26 03:17:19 2015, MaxMem=   524288000 cpu:         2.0
 (Enter /opt/g09/l103.exe)

 GradGradGradGradGradGradGradGradGradGradGradGradGradGradGradGradGradGrad
 Berny optimization.
 Initialization pass.
                           ----------------------------
                           !    Initial Parameters    !
                           ! (Angstroms and Degrees)  !
 --------------------------                            --------------------------
 ! Name  Definition              Value          Derivative Info.                !
 --------------------------------------------------------------------------------
 ! R1    R(1,2)                  1.5747         calculate D2E/DX2 analytically  !
 ! R2    R(1,3)                  1.5747         calculate D2E/DX2 analytically  !
 ! R3    R(1,4)                  1.5748         calculate D2E/DX2 analytically  !
 ! R4    R(1,9)                  1.0909         calculate D2E/DX2 analytically  !
 ! R5    R(2,5)                  1.5748         calculate D2E/DX2 analytically  !
 ! R6    R(2,6)                  1.5748         calculate D2E/DX2 analytically  !
 ! R7    R(2,10)                 1.0908         calculate D2E/DX2 analytically  !
 ! R8    R(3,5)                  1.5748         calculate D2E/DX2 analytically  !
 ! R9    R(3,8)                  1.5748         calculate D2E/DX2 analytically  !
 ! R10   R(3,11)                 1.0908         calculate D2E/DX2 analytically  !
 ! R11   R(4,6)                  1.5748         calculate D2E/DX2 analytically  !
 ! R12   R(4,8)                  1.5748         calculate D2E/DX2 analytically  !
 ! R13   R(4,12)                 1.0909         calculate D2E/DX2 analytically  !
 ! R14   R(5,7)                  1.5748         calculate D2E/DX2 analytically  !
 ! R15   R(5,13)                 1.0908         calculate D2E/DX2 analytically  !
 ! R16   R(6,7)                  1.5747         calculate D2E/DX2 analytically  !
 ! R17   R(6,14)                 1.0908         calculate D2E/DX2 analytically  !
 ! R18   R(7,8)                  1.5747         calculate D2E/DX2 analytically  !
 ! R19   R(7,15)                 1.0908         calculate D2E/DX2 analytically  !
 ! R20   R(8,16)                 1.0908         calculate D2E/DX2 analytically  !
 ! A1    A(2,1,3)               90.0013         calculate D2E/DX2 analytically  !
 ! A2    A(2,1,4)               90.0008         calculate D2E/DX2 analytically  !
 ! A3    A(2,1,9)              125.2659         calculate D2E/DX2 analytically  !
 ! A4    A(3,1,4)               90.0004         calculate D2E/DX2 analytically  !
 ! A5    A(3,1,9)              125.2642         calculate D2E/DX2 analytically  !
 ! A6    A(4,1,9)              125.2613         calculate D2E/DX2 analytically  !
 ! A7    A(1,2,5)               89.9999         calculate D2E/DX2 analytically  !
 ! A8    A(1,2,6)               90.0006         calculate D2E/DX2 analytically  !
 ! A9    A(1,2,10)             125.2625         calculate D2E/DX2 analytically  !
 ! A10   A(5,2,6)               89.9985         calculate D2E/DX2 analytically  !
 ! A11   A(5,2,10)             125.2671         calculate D2E/DX2 analytically  !
 ! A12   A(6,2,10)             125.2643         calculate D2E/DX2 analytically  !
 ! A13   A(1,3,5)               90.0002         calculate D2E/DX2 analytically  !
 ! A14   A(1,3,8)               90.0007         calculate D2E/DX2 analytically  !
 ! A15   A(1,3,11)             125.2636         calculate D2E/DX2 analytically  !
 ! A16   A(5,3,8)               89.9994         calculate D2E/DX2 analytically  !
 ! A17   A(5,3,11)             125.2657         calculate D2E/DX2 analytically  !
 ! A18   A(8,3,11)             125.2636         calculate D2E/DX2 analytically  !
 ! A19   A(1,4,6)               89.9985         calculate D2E/DX2 analytically  !
 ! A20   A(1,4,8)               89.999          calculate D2E/DX2 analytically  !
 ! A21   A(1,4,12)             125.2665         calculate D2E/DX2 analytically  !
 ! A22   A(6,4,8)               89.9997         calculate D2E/DX2 analytically  !
 ! A23   A(6,4,12)             125.264          calculate D2E/DX2 analytically  !
 ! A24   A(8,4,12)             125.2646         calculate D2E/DX2 analytically  !
 ! A25   A(2,5,3)               89.9986         calculate D2E/DX2 analytically  !
 ! A26   A(2,5,7)               90.0            calculate D2E/DX2 analytically  !
 ! A27   A(2,5,13)             125.2631         calculate D2E/DX2 analytically  !
 ! A28   A(3,5,7)               89.9995         calculate D2E/DX2 analytically  !
 ! A29   A(3,5,13)             125.2642         calculate D2E/DX2 analytically  !
 ! A30   A(7,5,13)             125.2672         calculate D2E/DX2 analytically  !
 ! A31   A(2,6,4)               90.0001         calculate D2E/DX2 analytically  !
 ! A32   A(2,6,7)               90.0016         calculate D2E/DX2 analytically  !
 ! A33   A(2,6,14)             125.264          calculate D2E/DX2 analytically  !
 ! A34   A(4,6,7)               89.999          calculate D2E/DX2 analytically  !
 ! A35   A(4,6,14)             125.2645         calculate D2E/DX2 analytically  !
 ! A36   A(7,6,14)             125.2642         calculate D2E/DX2 analytically  !
 ! A37   A(5,7,6)               89.9999         calculate D2E/DX2 analytically  !
 ! A38   A(5,7,8)               90.0005         calculate D2E/DX2 analytically  !
 ! A39   A(5,7,15)             125.2617         calculate D2E/DX2 analytically  !
 ! A40   A(6,7,8)               90.002          calculate D2E/DX2 analytically  !
 ! A41   A(6,7,15)             125.2646         calculate D2E/DX2 analytically  !
 ! A42   A(8,7,15)             125.2651         calculate D2E/DX2 analytically  !
 ! A43   A(3,8,4)               89.9999         calculate D2E/DX2 analytically  !
 ! A44   A(3,8,7)               90.0006         calculate D2E/DX2 analytically  !
 ! A45   A(3,8,16)             125.2639         calculate D2E/DX2 analytically  !
 ! A46   A(4,8,7)               89.9993         calculate D2E/DX2 analytically  !
 ! A47   A(4,8,16)             125.2671         calculate D2E/DX2 analytically  !
 ! A48   A(7,8,16)             125.2622         calculate D2E/DX2 analytically  !
 ! D1    D(3,1,2,5)              0.0008         calculate D2E/DX2 analytically  !
 ! D2    D(3,1,2,6)             89.9993         calculate D2E/DX2 analytically  !
 ! D3    D(3,1,2,10)          -135.0016         calculate D2E/DX2 analytically  !
 ! D4    D(4,1,2,5)            -89.9996         calculate D2E/DX2 analytically  !
 ! D5    D(4,1,2,6)             -0.0011         calculate D2E/DX2 analytically  !
 ! D6    D(4,1,2,10)           134.998          calculate D2E/DX2 analytically  !
 ! D7    D(9,1,2,5)            135.0029         calculate D2E/DX2 analytically  !
 ! D8    D(9,1,2,6)           -134.9986         calculate D2E/DX2 analytically  !
 ! D9    D(9,1,2,10)             0.0005         calculate D2E/DX2 analytically  !
 ! D10   D(2,1,3,5)             -0.0008         calculate D2E/DX2 analytically  !
 ! D11   D(2,1,3,8)            -90.0002         calculate D2E/DX2 analytically  !
 ! D12   D(2,1,3,11)           135.0007         calculate D2E/DX2 analytically  !
 ! D13   D(4,1,3,5)             90.0            calculate D2E/DX2 analytically  !
 ! D14   D(4,1,3,8)              0.0006         calculate D2E/DX2 analytically  !
 ! D15   D(4,1,3,11)          -134.9985         calculate D2E/DX2 analytically  !
 ! D16   D(9,1,3,5)           -135.0041         calculate D2E/DX2 analytically  !
 ! D17   D(9,1,3,8)            134.9965         calculate D2E/DX2 analytically  !
 ! D18   D(9,1,3,11)            -0.0026         calculate D2E/DX2 analytically  !
 ! D19   D(2,1,4,6)              0.0011         calculate D2E/DX2 analytically  !
 ! D20   D(2,1,4,8)             90.0007         calculate D2E/DX2 analytically  !
 ! D21   D(2,1,4,12)          -134.9984         calculate D2E/DX2 analytically  !
 ! D22   D(3,1,4,6)            -90.0002         calculate D2E/DX2 analytically  !
 ! D23   D(3,1,4,8)             -0.0006         calculate D2E/DX2 analytically  !
 ! D24   D(3,1,4,12)           135.0002         calculate D2E/DX2 analytically  !
 ! D25   D(9,1,4,6)            135.0018         calculate D2E/DX2 analytically  !
 ! D26   D(9,1,4,8)           -134.9985         calculate D2E/DX2 analytically  !
 ! D27   D(9,1,4,12)             0.0023         calculate D2E/DX2 analytically  !
 ! D28   D(1,2,5,3)             -0.0008         calculate D2E/DX2 analytically  !
 ! D29   D(1,2,5,7)             89.9987         calculate D2E/DX2 analytically  !
 ! D30   D(1,2,5,13)          -134.9983         calculate D2E/DX2 analytically  !
 ! D31   D(6,2,5,3)            -90.0014         calculate D2E/DX2 analytically  !
 ! D32   D(6,2,5,7)             -0.0019         calculate D2E/DX2 analytically  !
 ! D33   D(6,2,5,13)           135.0011         calculate D2E/DX2 analytically  !
 ! D34   D(10,2,5,3)           134.9983         calculate D2E/DX2 analytically  !
 ! D35   D(10,2,5,7)          -135.0022         calculate D2E/DX2 analytically  !
 ! D36   D(10,2,5,13)            0.0008         calculate D2E/DX2 analytically  !
 ! D37   D(1,2,6,4)              0.0011         calculate D2E/DX2 analytically  !
 ! D38   D(1,2,6,7)            -89.9979         calculate D2E/DX2 analytically  !
 ! D39   D(1,2,6,14)           135.001          calculate D2E/DX2 analytically  !
 ! D40   D(5,2,6,4)             90.0009         calculate D2E/DX2 analytically  !
 ! D41   D(5,2,6,7)              0.0019         calculate D2E/DX2 analytically  !
 ! D42   D(5,2,6,14)          -134.9991         calculate D2E/DX2 analytically  !
 ! D43   D(10,2,6,4)          -134.9967         calculate D2E/DX2 analytically  !
 ! D44   D(10,2,6,7)           135.0043         calculate D2E/DX2 analytically  !
 ! D45   D(10,2,6,14)            0.0032         calculate D2E/DX2 analytically  !
 ! D46   D(1,3,5,2)              0.0008         calculate D2E/DX2 analytically  !
 ! D47   D(1,3,5,7)            -89.9992         calculate D2E/DX2 analytically  !
 ! D48   D(1,3,5,13)           134.9975         calculate D2E/DX2 analytically  !
 ! D49   D(8,3,5,2)             90.0015         calculate D2E/DX2 analytically  !
 ! D50   D(8,3,5,7)              0.0015         calculate D2E/DX2 analytically  !
 ! D51   D(8,3,5,13)          -135.0018         calculate D2E/DX2 analytically  !
 ! D52   D(11,3,5,2)          -134.9992         calculate D2E/DX2 analytically  !
 ! D53   D(11,3,5,7)           135.0008         calculate D2E/DX2 analytically  !
 ! D54   D(11,3,5,13)           -0.0025         calculate D2E/DX2 analytically  !
 ! D55   D(1,3,8,4)             -0.0006         calculate D2E/DX2 analytically  !
 ! D56   D(1,3,8,7)             89.9987         calculate D2E/DX2 analytically  !
 ! D57   D(1,3,8,16)          -135.0041         calculate D2E/DX2 analytically  !
 ! D58   D(5,3,8,4)            -90.0008         calculate D2E/DX2 analytically  !
 ! D59   D(5,3,8,7)             -0.0015         calculate D2E/DX2 analytically  !
 ! D60   D(5,3,8,16)           134.9957         calculate D2E/DX2 analytically  !
 ! D61   D(11,3,8,4)           134.9984         calculate D2E/DX2 analytically  !
 ! D62   D(11,3,8,7)          -135.0023         calculate D2E/DX2 analytically  !
 ! D63   D(11,3,8,16)           -0.005          calculate D2E/DX2 analytically  !
 ! D64   D(1,4,6,2)             -0.0011         calculate D2E/DX2 analytically  !
 ! D65   D(1,4,6,7)             90.0005         calculate D2E/DX2 analytically  !
 ! D66   D(1,4,6,14)          -135.0007         calculate D2E/DX2 analytically  !
 ! D67   D(8,4,6,2)            -90.0001         calculate D2E/DX2 analytically  !
 ! D68   D(8,4,6,7)              0.0015         calculate D2E/DX2 analytically  !
 ! D69   D(8,4,6,14)           135.0003         calculate D2E/DX2 analytically  !
 ! D70   D(12,4,6,2)           135.0002         calculate D2E/DX2 analytically  !
 ! D71   D(12,4,6,7)          -134.9983         calculate D2E/DX2 analytically  !
 ! D72   D(12,4,6,14)            0.0006         calculate D2E/DX2 analytically  !
 ! D73   D(1,4,8,3)              0.0006         calculate D2E/DX2 analytically  !
 ! D74   D(1,4,8,7)            -90.0            calculate D2E/DX2 analytically  !
 ! D75   D(1,4,8,16)           135.0018         calculate D2E/DX2 analytically  !
 ! D76   D(6,4,8,3)             89.9991         calculate D2E/DX2 analytically  !
 ! D77   D(6,4,8,7)             -0.0015         calculate D2E/DX2 analytically  !
 ! D78   D(6,4,8,16)          -134.9997         calculate D2E/DX2 analytically  !
 ! D79   D(12,4,8,3)          -135.0016         calculate D2E/DX2 analytically  !
 ! D80   D(12,4,8,7)           134.9978         calculate D2E/DX2 analytically  !
 ! D81   D(12,4,8,16)           -0.0003         calculate D2E/DX2 analytically  !
 ! D82   D(2,5,7,6)              0.0019         calculate D2E/DX2 analytically  !
 ! D83   D(2,5,7,8)            -90.0001         calculate D2E/DX2 analytically  !
 ! D84   D(2,5,7,15)           135.0002         calculate D2E/DX2 analytically  !
 ! D85   D(3,5,7,6)             90.0006         calculate D2E/DX2 analytically  !
 ! D86   D(3,5,7,8)             -0.0015         calculate D2E/DX2 analytically  !
 ! D87   D(3,5,7,15)          -135.0011         calculate D2E/DX2 analytically  !
 ! D88   D(13,5,7,6)          -134.9982         calculate D2E/DX2 analytically  !
 ! D89   D(13,5,7,8)           134.9997         calculate D2E/DX2 analytically  !
 ! D90   D(13,5,7,15)            0.0001         calculate D2E/DX2 analytically  !
 ! D91   D(2,6,7,5)             -0.0019         calculate D2E/DX2 analytically  !
 ! D92   D(2,6,7,8)             89.9986         calculate D2E/DX2 analytically  !
 ! D93   D(2,6,7,15)          -134.9982         calculate D2E/DX2 analytically  !
 ! D94   D(4,6,7,5)            -90.002          calculate D2E/DX2 analytically  !
 ! D95   D(4,6,7,8)             -0.0015         calculate D2E/DX2 analytically  !
 ! D96   D(4,6,7,15)           135.0017         calculate D2E/DX2 analytically  !
 ! D97   D(14,6,7,5)           134.999          calculate D2E/DX2 analytically  !
 ! D98   D(14,6,7,8)          -135.0005         calculate D2E/DX2 analytically  !
 ! D99   D(14,6,7,15)            0.0028         calculate D2E/DX2 analytically  !
 ! D100  D(5,7,8,3)              0.0015         calculate D2E/DX2 analytically  !
 ! D101  D(5,7,8,4)             90.0014         calculate D2E/DX2 analytically  !
 ! D102  D(5,7,8,16)          -134.997          calculate D2E/DX2 analytically  !
 ! D103  D(6,7,8,3)            -89.9984         calculate D2E/DX2 analytically  !
 ! D104  D(6,7,8,4)              0.0015         calculate D2E/DX2 analytically  !
 ! D105  D(6,7,8,16)           135.0031         calculate D2E/DX2 analytically  !
 ! D106  D(15,7,8,3)           134.9987         calculate D2E/DX2 analytically  !
 ! D107  D(15,7,8,4)          -135.0014         calculate D2E/DX2 analytically  !
 ! D108  D(15,7,8,16)            0.0003         calculate D2E/DX2 analytically  !
 --------------------------------------------------------------------------------
 Trust Radius=3.00D-01 FncErr=1.00D-07 GrdErr=1.00D-06
 Number of steps in this run=    100 maximum allowed number of steps=    100.
 GradGradGradGradGradGradGradGradGradGradGradGradGradGradGradGradGradGrad

 Leave Link  103 at Sun Apr 26 03:17:19 2015, MaxMem=   524288000 cpu:         0.1
 (Enter /opt/g09/l202.exe)
                          Input orientation:                          
 ---------------------------------------------------------------------
 Center     Atomic      Atomic             Coordinates (Angstroms)
 Number     Number       Type             X           Y           Z
 ---------------------------------------------------------------------
      1          6           0        0.833270    2.239680    2.360730
      2          6           0        2.296280    2.269530    2.942550
      3          6           0        0.890320    0.667230    2.297850
      4          6           0        1.413050    2.319190    0.898710
      5          6           0        2.353370    0.697040    2.879660
      6          6           0        2.876090    2.349010    1.480560
      7          6           0        2.933130    0.776560    1.417650
      8          6           0        1.470110    0.746710    0.835850
      9          1           0       -0.006570    2.824850    2.737840
     10          1           0        2.626660    2.878590    3.785070
     11          1           0        0.096130   -0.005360    2.624700
     12          1           0        1.037010    2.967940    0.106450
     13          1           0        2.729420    0.048310    3.671920
     14          1           0        3.670270    3.021610    1.153710
     15          1           0        3.772950    0.191390    1.040520
     16          1           0        1.139720    0.137640   -0.006660
 ---------------------------------------------------------------------
                    Distance matrix (angstroms):
                    1          2          3          4          5
     1  C    0.000000
     2  C    1.574739   0.000000
     3  C    1.574740   2.227044   0.000000
     4  C    1.574792   2.227071   2.227063   0.000000
     5  C    2.227045   1.574782   1.574772   2.727588   0.000000
     6  C    2.227053   1.574773   2.727568   1.574778   2.227043
     7  C    2.727551   2.227074   2.227056   2.227027   1.574776
     8  C    2.227057   2.727585   1.574775   1.574770   2.227055
     9  H    1.090856   2.377689   2.377673   2.377691   3.180724
    10  H    2.377645   1.090846   3.180694   3.180700   2.377733
    11  H    2.377659   3.180694   1.090846   3.180700   2.377710
    12  H    2.377741   3.180723   3.180726   1.090852   3.818440
    13  H    3.180677   2.377690   2.377692   3.818432   1.090844
    14  H    3.180704   2.377692   3.818414   2.377701   3.180685
    15  H    3.818398   3.180713   3.180701   3.180687   2.377672
    16  H    3.180726   3.818432   2.377695   2.377723   3.180679
                    6          7          8          9         10
     6  C    0.000000
     7  C    1.574741   0.000000
     8  C    2.227060   1.574741   0.000000
     9  H    3.180708   3.818407   3.180694   0.000000
    10  H    2.377696   3.180744   3.818431   2.834339   0.000000
    11  H    3.818415   3.180713   2.377691   2.834332   4.008392
    12  H    2.377702   3.180670   2.377701   2.834387   4.008393
    13  H    3.180690   2.377726   3.180710   4.008406   2.834404
    14  H    1.090845   2.377665   3.180709   4.008408   2.834366
    15  H    2.377671   1.090848   2.377676   4.909254   4.008439
    16  H    3.180717   2.377645   1.090847   4.008411   4.909278
                   11         12         13         14         15
    11  H    0.000000
    12  H    4.008410   0.000000
    13  H    2.834390   4.909284   0.000000
    14  H    4.909260   2.834377   4.008378   0.000000
    15  H    4.008409   4.008377   2.834377   2.834343   0.000000
    16  H    2.834358   2.834421   4.008376   4.008419   2.834321
                   16
    16  H    0.000000
 Symmetry turned off by external request.
 Stoichiometry    C8H8
 Framework group  C1[X(C8H8)]
 Deg. of freedom    42
 Full point group                 C1      NOp   1
 Rotational constants (GHZ):      3.3376143      3.3375824      3.3375628
 Leave Link  202 at Sun Apr 26 03:17:19 2015, MaxMem=   524288000 cpu:         0.0
 (Enter /opt/g09/l301.exe)
 Standard basis: 6-311+G(d,p) (5D, 7F)
 Ernie: Thresh=  0.10000D-02 Tol=  0.10000D-05 Strict=F.
 AO basis set in the form of general basis input (Overlap normalization):
      1 0
 S   6 1.00       0.000000000000
      0.4563240000D+04  0.1966650249D-02
      0.6820240000D+03  0.1523060193D-01
      0.1549730000D+03  0.7612690966D-01
      0.4445530000D+02  0.2608010331D+00
      0.1302900000D+02  0.6164620782D+00
      0.1827730000D+01  0.2210060280D+00
 SP   3 1.00       0.000000000000
      0.2096420000D+02  0.1146600807D+00  0.4024869267D-01
      0.4803310000D+01  0.9199996477D+00  0.2375939567D+00
      0.1459330000D+01 -0.3030682134D-02  0.8158538515D+00
 SP   1 1.00       0.000000000000
      0.4834560000D+00  0.1000000000D+01  0.1000000000D+01
 SP   1 1.00       0.000000000000
      0.1455850000D+00  0.1000000000D+01  0.1000000000D+01
 SP   1 1.00       0.000000000000
      0.4380000000D-01  0.1000000000D+01  0.1000000000D+01
 D   1 1.00       0.000000000000
      0.6260000000D+00  0.1000000000D+01
 ****
      2 0
 S   6 1.00       0.000000000000
      0.4563240000D+04  0.1966650249D-02
      0.6820240000D+03  0.1523060193D-01
      0.1549730000D+03  0.7612690966D-01
      0.4445530000D+02  0.2608010331D+00
      0.1302900000D+02  0.6164620782D+00
      0.1827730000D+01  0.2210060280D+00
 SP   3 1.00       0.000000000000
      0.2096420000D+02  0.1146600807D+00  0.4024869267D-01
      0.4803310000D+01  0.9199996477D+00  0.2375939567D+00
      0.1459330000D+01 -0.3030682134D-02  0.8158538515D+00
 SP   1 1.00       0.000000000000
      0.4834560000D+00  0.1000000000D+01  0.1000000000D+01
 SP   1 1.00       0.000000000000
      0.1455850000D+00  0.1000000000D+01  0.1000000000D+01
 SP   1 1.00       0.000000000000
      0.4380000000D-01  0.1000000000D+01  0.1000000000D+01
 D   1 1.00       0.000000000000
      0.6260000000D+00  0.1000000000D+01
 ****
      3 0
 S   6 1.00       0.000000000000
      0.4563240000D+04  0.1966650249D-02
      0.6820240000D+03  0.1523060193D-01
      0.1549730000D+03  0.7612690966D-01
      0.4445530000D+02  0.2608010331D+00
      0.1302900000D+02  0.6164620782D+00
      0.1827730000D+01  0.2210060280D+00
 SP   3 1.00       0.000000000000
      0.2096420000D+02  0.1146600807D+00  0.4024869267D-01
      0.4803310000D+01  0.9199996477D+00  0.2375939567D+00
      0.1459330000D+01 -0.3030682134D-02  0.8158538515D+00
 SP   1 1.00       0.000000000000
      0.4834560000D+00  0.1000000000D+01  0.1000000000D+01
 SP   1 1.00       0.000000000000
      0.1455850000D+00  0.1000000000D+01  0.1000000000D+01
 SP   1 1.00       0.000000000000
      0.4380000000D-01  0.1000000000D+01  0.1000000000D+01
 D   1 1.00       0.000000000000
      0.6260000000D+00  0.1000000000D+01
 ****
      4 0
 S   6 1.00       0.000000000000
      0.4563240000D+04  0.1966650249D-02
      0.6820240000D+03  0.1523060193D-01
      0.1549730000D+03  0.7612690966D-01
      0.4445530000D+02  0.2608010331D+00
      0.1302900000D+02  0.6164620782D+00
      0.1827730000D+01  0.2210060280D+00
 SP   3 1.00       0.000000000000
      0.2096420000D+02  0.1146600807D+00  0.4024869267D-01
      0.4803310000D+01  0.9199996477D+00  0.2375939567D+00
      0.1459330000D+01 -0.3030682134D-02  0.8158538515D+00
 SP   1 1.00       0.000000000000
      0.4834560000D+00  0.1000000000D+01  0.1000000000D+01
 SP   1 1.00       0.000000000000
      0.1455850000D+00  0.1000000000D+01  0.1000000000D+01
 SP   1 1.00       0.000000000000
      0.4380000000D-01  0.1000000000D+01  0.1000000000D+01
 D   1 1.00       0.000000000000
      0.6260000000D+00  0.1000000000D+01
 ****
      5 0
 S   6 1.00       0.000000000000
      0.4563240000D+04  0.1966650249D-02
      0.6820240000D+03  0.1523060193D-01
      0.1549730000D+03  0.7612690966D-01
      0.4445530000D+02  0.2608010331D+00
      0.1302900000D+02  0.6164620782D+00
      0.1827730000D+01  0.2210060280D+00
 SP   3 1.00       0.000000000000
      0.2096420000D+02  0.1146600807D+00  0.4024869267D-01
      0.4803310000D+01  0.9199996477D+00  0.2375939567D+00
      0.1459330000D+01 -0.3030682134D-02  0.8158538515D+00
 SP   1 1.00       0.000000000000
      0.4834560000D+00  0.1000000000D+01  0.1000000000D+01
 SP   1 1.00       0.000000000000
      0.1455850000D+00  0.1000000000D+01  0.1000000000D+01
 SP   1 1.00       0.000000000000
      0.4380000000D-01  0.1000000000D+01  0.1000000000D+01
 D   1 1.00       0.000000000000
      0.6260000000D+00  0.1000000000D+01
 ****
      6 0
 S   6 1.00       0.000000000000
      0.4563240000D+04  0.1966650249D-02
      0.6820240000D+03  0.1523060193D-01
      0.1549730000D+03  0.7612690966D-01
      0.4445530000D+02  0.2608010331D+00
      0.1302900000D+02  0.6164620782D+00
      0.1827730000D+01  0.2210060280D+00
 SP   3 1.00       0.000000000000
      0.2096420000D+02  0.1146600807D+00  0.4024869267D-01
      0.4803310000D+01  0.9199996477D+00  0.2375939567D+00
      0.1459330000D+01 -0.3030682134D-02  0.8158538515D+00
 SP   1 1.00       0.000000000000
      0.4834560000D+00  0.1000000000D+01  0.1000000000D+01
 SP   1 1.00       0.000000000000
      0.1455850000D+00  0.1000000000D+01  0.1000000000D+01
 SP   1 1.00       0.000000000000
      0.4380000000D-01  0.1000000000D+01  0.1000000000D+01
 D   1 1.00       0.000000000000
      0.6260000000D+00  0.1000000000D+01
 ****
      7 0
 S   6 1.00       0.000000000000
      0.4563240000D+04  0.1966650249D-02
      0.6820240000D+03  0.1523060193D-01
      0.1549730000D+03  0.7612690966D-01
      0.4445530000D+02  0.2608010331D+00
      0.1302900000D+02  0.6164620782D+00
      0.1827730000D+01  0.2210060280D+00
 SP   3 1.00       0.000000000000
      0.2096420000D+02  0.1146600807D+00  0.4024869267D-01
      0.4803310000D+01  0.9199996477D+00  0.2375939567D+00
      0.1459330000D+01 -0.3030682134D-02  0.8158538515D+00
 SP   1 1.00       0.000000000000
      0.4834560000D+00  0.1000000000D+01  0.1000000000D+01
 SP   1 1.00       0.000000000000
      0.1455850000D+00  0.1000000000D+01  0.1000000000D+01
 SP   1 1.00       0.000000000000
      0.4380000000D-01  0.1000000000D+01  0.1000000000D+01
 D   1 1.00       0.000000000000
      0.6260000000D+00  0.1000000000D+01
 ****
      8 0
 S   6 1.00       0.000000000000
      0.4563240000D+04  0.1966650249D-02
      0.6820240000D+03  0.1523060193D-01
      0.1549730000D+03  0.7612690966D-01
      0.4445530000D+02  0.2608010331D+00
      0.1302900000D+02  0.6164620782D+00
      0.1827730000D+01  0.2210060280D+00
 SP   3 1.00       0.000000000000
      0.2096420000D+02  0.1146600807D+00  0.4024869267D-01
      0.4803310000D+01  0.9199996477D+00  0.2375939567D+00
      0.1459330000D+01 -0.3030682134D-02  0.8158538515D+00
 SP   1 1.00       0.000000000000
      0.4834560000D+00  0.1000000000D+01  0.1000000000D+01
 SP   1 1.00       0.000000000000
      0.1455850000D+00  0.1000000000D+01  0.1000000000D+01
 SP   1 1.00       0.000000000000
      0.4380000000D-01  0.1000000000D+01  0.1000000000D+01
 D   1 1.00       0.000000000000
      0.6260000000D+00  0.1000000000D+01
 ****
      9 0
 S   3 1.00       0.000000000000
      0.3386500000D+02  0.2549381454D-01
      0.5094790000D+01  0.1903731086D+00
      0.1158790000D+01  0.8521614860D+00
 S   1 1.00       0.000000000000
      0.3258400000D+00  0.1000000000D+01
 S   1 1.00       0.000000000000
      0.1027410000D+00  0.1000000000D+01
 P   1 1.00       0.000000000000
      0.7500000000D+00  0.1000000000D+01
 ****
     10 0
 S   3 1.00       0.000000000000
      0.3386500000D+02  0.2549381454D-01
      0.5094790000D+01  0.1903731086D+00
      0.1158790000D+01  0.8521614860D+00
 S   1 1.00       0.000000000000
      0.3258400000D+00  0.1000000000D+01
 S   1 1.00       0.000000000000
      0.1027410000D+00  0.1000000000D+01
 P   1 1.00       0.000000000000
      0.7500000000D+00  0.1000000000D+01
 ****
     11 0
 S   3 1.00       0.000000000000
      0.3386500000D+02  0.2549381454D-01
      0.5094790000D+01  0.1903731086D+00
      0.1158790000D+01  0.8521614860D+00
 S   1 1.00       0.000000000000
      0.3258400000D+00  0.1000000000D+01
 S   1 1.00       0.000000000000
      0.1027410000D+00  0.1000000000D+01
 P   1 1.00       0.000000000000
      0.7500000000D+00  0.1000000000D+01
 ****
     12 0
 S   3 1.00       0.000000000000
      0.3386500000D+02  0.2549381454D-01
      0.5094790000D+01  0.1903731086D+00
      0.1158790000D+01  0.8521614860D+00
 S   1 1.00       0.000000000000
      0.3258400000D+00  0.1000000000D+01
 S   1 1.00       0.000000000000
      0.1027410000D+00  0.1000000000D+01
 P   1 1.00       0.000000000000
      0.7500000000D+00  0.1000000000D+01
 ****
     13 0
 S   3 1.00       0.000000000000
      0.3386500000D+02  0.2549381454D-01
      0.5094790000D+01  0.1903731086D+00
      0.1158790000D+01  0.8521614860D+00
 S   1 1.00       0.000000000000
      0.3258400000D+00  0.1000000000D+01
 S   1 1.00       0.000000000000
      0.1027410000D+00  0.1000000000D+01
 P   1 1.00       0.000000000000
      0.7500000000D+00  0.1000000000D+01
 ****
     14 0
 S   3 1.00       0.000000000000
      0.3386500000D+02  0.2549381454D-01
      0.5094790000D+01  0.1903731086D+00
      0.1158790000D+01  0.8521614860D+00
 S   1 1.00       0.000000000000
      0.3258400000D+00  0.1000000000D+01
 S   1 1.00       0.000000000000
      0.1027410000D+00  0.1000000000D+01
 P   1 1.00       0.000000000000
      0.7500000000D+00  0.1000000000D+01
 ****
     15 0
 S   3 1.00       0.000000000000
      0.3386500000D+02  0.2549381454D-01
      0.5094790000D+01  0.1903731086D+00
      0.1158790000D+01  0.8521614860D+00
 S   1 1.00       0.000000000000
      0.3258400000D+00  0.1000000000D+01
 S   1 1.00       0.000000000000
      0.1027410000D+00  0.1000000000D+01
 P   1 1.00       0.000000000000
      0.7500000000D+00  0.1000000000D+01
 ****
     16 0
 S   3 1.00       0.000000000000
      0.3386500000D+02  0.2549381454D-01
      0.5094790000D+01  0.1903731086D+00
      0.1158790000D+01  0.8521614860D+00
 S   1 1.00       0.000000000000
      0.3258400000D+00  0.1000000000D+01
 S   1 1.00       0.000000000000
      0.1027410000D+00  0.1000000000D+01
 P   1 1.00       0.000000000000
      0.7500000000D+00  0.1000000000D+01
 ****

   224 basis functions,   352 primitive gaussians,   232 cartesian basis functions
    28 alpha electrons       28 beta electrons
       nuclear repulsion energy       365.9526920047 Hartrees.
 IExCor= 1614 DFT=T Ex+Corr=B971 ExCW=0 ScaHFX=  0.210000
 ScaDFX=  1.000000  1.000000  1.000000  1.000000 ScalE2=  1.000000  1.000000
 IRadAn=      5 IRanWt=     -1 IRanGd=            0 ICorTp=0 IEmpDi=  4
 NAtoms=   16 NActive=   16 NUniq=   16 SFac= 1.00D+00 NAtFMM=   60 NAOKFM=F Big=F
 Integral buffers will be    131072 words long.
 Raffenetti 2 integral format.
 Two-electron integral symmetry is turned off.
 Leave Link  301 at Sun Apr 26 03:17:19 2015, MaxMem=   524288000 cpu:         0.4
 (Enter /opt/g09/l302.exe)
 NPDir=0 NMtPBC=     1 NCelOv=     1 NCel=       1 NClECP=     1 NCelD=      1
         NCelK=      1 NCelE2=     1 NClLst=     1 CellRange=     0.0.
 One-electron integrals computed using PRISM.
 NBasis=   224 RedAO= T EigKep=  1.14D-05  NBF=   224
 NBsUse=   223 1.00D-06 EigRej=  3.91D-07 NBFU=   223
 Precomputing XC quadrature grid using
 IXCGrd= 4 IRadAn=           5 IRanWt=          -1 IRanGd=           0 AccXCQ= 0.00D+00.
 Generated NRdTot=       0 NPtTot=           0 NUsed=           0 NTot=          32
 NSgBfM=   232   232   232   232   232 MxSgAt=    16 MxSgA2=    16.
 Leave Link  302 at Sun Apr 26 03:17:20 2015, MaxMem=   524288000 cpu:         2.3
 (Enter /opt/g09/l303.exe)
 DipDrv:  MaxL=1.
 Leave Link  303 at Sun Apr 26 03:17:20 2015, MaxMem=   524288000 cpu:         0.4
 (Enter /opt/g09/l401.exe)
 ExpMin= 4.38D-02 ExpMax= 4.56D+03 ExpMxC= 6.82D+02 IAcc=3 IRadAn=         5 AccDes= 0.00D+00
 Harris functional with IExCor= 1614 and IRadAn=       5 diagonalized for initial guess.
 HarFok:  IExCor= 1614 AccDes= 0.00D+00 IRadAn=         5 IDoV= 1 UseB2=F ITyADJ=14
 ICtDFT=  3500011 ScaDFX=  1.000000  1.000000  1.000000  1.000000
 FoFCou: FMM=F IPFlag=           0 FMFlag=      100000 FMFlg1=           0
         NFxFlg=           0 DoJE=T BraDBF=F KetDBF=T FulRan=T
         wScrn=  0.000000 ICntrl=     500 IOpCl=  0 I1Cent=   200000004 NGrid=           0
         NMat0=    1 NMatS0=      1 NMatT0=    0 NMatD0=    1 NMtDS0=    0 NMtDT0=    0
 Symmetry not used in FoFCou.
 Harris En= -300.319890137861    
 JPrj=0 DoOrth=F DoCkMO=T.
 Mixing orbitals, IMix= 1 IMixAn=  0 NRI=1 NE=   28 Coef=  7.07106781D-01  7.07106781D-01
 Leave Link  401 at Sun Apr 26 03:17:22 2015, MaxMem=   524288000 cpu:        16.2
 (Enter /opt/g09/l502.exe)
 Closed shell SCF:
 Using DIIS extrapolation, IDIIS=  1040.
 Two-electron integral symmetry not used.
 Keep R1 ints in memory in canonical form, NReq=324040454.
 IVT=      183302 IEndB=      183302 NGot=   524288000 MDV=   206572099
 LenX=   206572099 LenY=   206517834
 Requested convergence on RMS density matrix=1.00D-08 within 128 cycles.
 Requested convergence on MAX density matrix=1.00D-06.
 Requested convergence on             energy=1.00D-06.
 No special actions if energy rises.
 FoFCou: FMM=F IPFlag=           0 FMFlag=           0 FMFlg1=           0
         NFxFlg=           0 DoJE=F BraDBF=F KetDBF=F FulRan=T
         wScrn=  0.000000 ICntrl=     600 IOpCl=  0 I1Cent=           0 NGrid=           0
         NMat0=    1 NMatS0=  25200 NMatT0=    0 NMatD0=    1 NMtDS0=    0 NMtDT0=    0
 Symmetry not used in FoFCou.

 Cycle   1  Pass 1  IDiag  1:
 E= -309.148765641053    
 DIIS: error= 8.36D-02 at cycle   1 NSaved=   1.
 NSaved= 1 IEnMin= 1 EnMin= -309.148765641053     IErMin= 1 ErrMin= 8.36D-02
 ErrMax= 8.36D-02  0.00D+00 EMaxC= 1.00D-01 BMatC= 5.83D-01 BMatP= 5.83D-01
 IDIUse=3 WtCom= 1.64D-01 WtEn= 8.36D-01
 Coeff-Com:  0.100D+01
 Coeff-En:   0.100D+01
 Coeff:      0.100D+01
 Gap=     0.032 Goal=   None    Shift=    0.000
 GapD=    0.032 DampG=0.250 DampE=0.500 DampFc=0.2500 IDamp=-1.
 Damping current iteration by 2.50D-01
 RMSDP=7.28D-02 MaxDP=4.03D+00              OVMax= 6.60D-01

 Cycle   2  Pass 1  IDiag  1:
 E= -309.220520584088     Delta-E=       -0.071754943035 Rises=F Damp=T
 DIIS: error= 6.13D-02 at cycle   2 NSaved=   2.
 NSaved= 2 IEnMin= 2 EnMin= -309.220520584088     IErMin= 2 ErrMin= 6.13D-02
 ErrMax= 6.13D-02  0.00D+00 EMaxC= 1.00D-01 BMatC= 3.13D-01 BMatP= 5.83D-01
 IDIUse=3 WtCom= 3.87D-01 WtEn= 6.13D-01
 Coeff-Com: -0.260D+01 0.360D+01
 Coeff-En:   0.000D+00 0.100D+01
 Coeff:     -0.101D+01 0.201D+01
 Gap=     0.255 Goal=   None    Shift=    0.000
 RMSDP=5.49D-02 MaxDP=3.03D+00 DE=-7.18D-02 OVMax= 3.31D-02

 Cycle   3  Pass 1  IDiag  1:
 E= -309.451659300446     Delta-E=       -0.231138716358 Rises=F Damp=F
 DIIS: error= 2.74D-03 at cycle   3 NSaved=   3.
 NSaved= 3 IEnMin= 3 EnMin= -309.451659300446     IErMin= 3 ErrMin= 2.74D-03
 ErrMax= 2.74D-03  0.00D+00 EMaxC= 1.00D-01 BMatC= 1.68D-03 BMatP= 3.13D-01
 IDIUse=3 WtCom= 9.73D-01 WtEn= 2.74D-02
 Coeff-Com: -0.339D+00 0.490D+00 0.849D+00
 Coeff-En:   0.000D+00 0.000D+00 0.100D+01
 Coeff:     -0.330D+00 0.477D+00 0.853D+00
 Gap=     0.276 Goal=   None    Shift=    0.000
 RMSDP=8.88D-04 MaxDP=1.32D-02 DE=-2.31D-01 OVMax= 3.98D-02

 Cycle   4  Pass 1  IDiag  1:
 E= -309.453395515934     Delta-E=       -0.001736215488 Rises=F Damp=F
 DIIS: error= 1.68D-03 at cycle   4 NSaved=   4.
 NSaved= 4 IEnMin= 4 EnMin= -309.453395515934     IErMin= 4 ErrMin= 1.68D-03
 ErrMax= 1.68D-03  0.00D+00 EMaxC= 1.00D-01 BMatC= 5.29D-04 BMatP= 1.68D-03
 IDIUse=3 WtCom= 9.83D-01 WtEn= 1.68D-02
 Coeff-Com:  0.297D-01-0.298D-01 0.356D+00 0.644D+00
 Coeff-En:   0.000D+00 0.000D+00 0.000D+00 0.100D+01
 Coeff:      0.292D-01-0.293D-01 0.350D+00 0.650D+00
 Gap=     0.276 Goal=   None    Shift=    0.000
 RMSDP=2.44D-04 MaxDP=3.87D-03 DE=-1.74D-03 OVMax= 4.84D-03

 Cycle   5  Pass 1  IDiag  1:
 E= -309.453897398133     Delta-E=       -0.000501882200 Rises=F Damp=F
 DIIS: error= 3.81D-04 at cycle   5 NSaved=   5.
 NSaved= 5 IEnMin= 5 EnMin= -309.453897398133     IErMin= 5 ErrMin= 3.81D-04
 ErrMax= 3.81D-04  0.00D+00 EMaxC= 1.00D-01 BMatC= 1.66D-05 BMatP= 5.29D-04
 IDIUse=3 WtCom= 9.96D-01 WtEn= 3.81D-03
 Coeff-Com:  0.531D-01-0.724D-01 0.499D-02 0.140D+00 0.875D+00
 Coeff-En:   0.000D+00 0.000D+00 0.000D+00 0.000D+00 0.100D+01
 Coeff:      0.529D-01-0.722D-01 0.497D-02 0.139D+00 0.875D+00
 Gap=     0.277 Goal=   None    Shift=    0.000
 RMSDP=7.47D-05 MaxDP=1.29D-03 DE=-5.02D-04 OVMax= 3.30D-03

 Cycle   6  Pass 1  IDiag  1:
 E= -309.453915886817     Delta-E=       -0.000018488684 Rises=F Damp=F
 DIIS: error= 2.05D-04 at cycle   6 NSaved=   6.
 NSaved= 6 IEnMin= 6 EnMin= -309.453915886817     IErMin= 6 ErrMin= 2.05D-04
 ErrMax= 2.05D-04  0.00D+00 EMaxC= 1.00D-01 BMatC= 4.97D-06 BMatP= 1.66D-05
 IDIUse=3 WtCom= 9.98D-01 WtEn= 2.05D-03
 Coeff-Com:  0.270D-01-0.373D-01-0.148D-01 0.401D-01 0.470D+00 0.515D+00
 Coeff-En:   0.000D+00 0.000D+00 0.000D+00 0.000D+00 0.000D+00 0.100D+01
 Coeff:      0.269D-01-0.372D-01-0.148D-01 0.400D-01 0.469D+00 0.516D+00
 Gap=     0.277 Goal=   None    Shift=    0.000
 RMSDP=3.34D-05 MaxDP=4.78D-04 DE=-1.85D-05 OVMax= 6.01D-04

 Cycle   7  Pass 1  IDiag  1:
 E= -309.453920510278     Delta-E=       -0.000004623461 Rises=F Damp=F
 DIIS: error= 4.20D-05 at cycle   7 NSaved=   7.
 NSaved= 7 IEnMin= 7 EnMin= -309.453920510278     IErMin= 7 ErrMin= 4.20D-05
 ErrMax= 4.20D-05  0.00D+00 EMaxC= 1.00D-01 BMatC= 2.23D-07 BMatP= 4.97D-06
 IDIUse=1 WtCom= 1.00D+00 WtEn= 0.00D+00
 Coeff-Com:  0.942D-03-0.145D-02-0.543D-02-0.739D-02 0.377D-01 0.192D+00
 Coeff-Com:  0.783D+00
 Coeff:      0.942D-03-0.145D-02-0.543D-02-0.739D-02 0.377D-01 0.192D+00
 Coeff:      0.783D+00
 Gap=     0.277 Goal=   None    Shift=    0.000
 RMSDP=6.98D-06 MaxDP=1.11D-04 DE=-4.62D-06 OVMax= 1.19D-04

 Cycle   8  Pass 1  IDiag  1:
 E= -309.453920733979     Delta-E=       -0.000000223702 Rises=F Damp=F
 DIIS: error= 3.03D-06 at cycle   8 NSaved=   8.
 NSaved= 8 IEnMin= 8 EnMin= -309.453920733979     IErMin= 8 ErrMin= 3.03D-06
 ErrMax= 3.03D-06  0.00D+00 EMaxC= 1.00D-01 BMatC= 2.37D-09 BMatP= 2.23D-07
 IDIUse=1 WtCom= 1.00D+00 WtEn= 0.00D+00
 Coeff-Com: -0.717D-03 0.959D-03-0.501D-03-0.225D-02-0.507D-02 0.259D-01
 Coeff-Com:  0.154D+00 0.827D+00
 Coeff:     -0.717D-03 0.959D-03-0.501D-03-0.225D-02-0.507D-02 0.259D-01
 Coeff:      0.154D+00 0.827D+00
 Gap=     0.277 Goal=   None    Shift=    0.000
 RMSDP=8.74D-07 MaxDP=1.67D-05 DE=-2.24D-07 OVMax= 1.67D-05

 Cycle   9  Pass 1  IDiag  1:
 E= -309.453920736050     Delta-E=       -0.000000002070 Rises=F Damp=F
 DIIS: error= 1.82D-06 at cycle   9 NSaved=   9.
 NSaved= 9 IEnMin= 9 EnMin= -309.453920736050     IErMin= 9 ErrMin= 1.82D-06
 ErrMax= 1.82D-06  0.00D+00 EMaxC= 1.00D-01 BMatC= 4.62D-10 BMatP= 2.37D-09
 IDIUse=1 WtCom= 1.00D+00 WtEn= 0.00D+00
 Coeff-Com: -0.313D-03 0.427D-03 0.401D-04-0.512D-03-0.376D-02 0.743D-03
 Coeff-Com:  0.244D-01 0.327D+00 0.652D+00
 Coeff:     -0.313D-03 0.427D-03 0.401D-04-0.512D-03-0.376D-02 0.743D-03
 Coeff:      0.244D-01 0.327D+00 0.652D+00
 Gap=     0.277 Goal=   None    Shift=    0.000
 RMSDP=1.80D-07 MaxDP=3.83D-06 DE=-2.07D-09 OVMax= 6.73D-06

 Cycle  10  Pass 1  IDiag  1:
 E= -309.453920736428     Delta-E=       -0.000000000378 Rises=F Damp=F
 DIIS: error= 8.45D-07 at cycle  10 NSaved=  10.
 NSaved=10 IEnMin=10 EnMin= -309.453920736428     IErMin=10 ErrMin= 8.45D-07
 ErrMax= 8.45D-07  0.00D+00 EMaxC= 1.00D-01 BMatC= 1.02D-10 BMatP= 4.62D-10
 IDIUse=1 WtCom= 1.00D+00 WtEn= 0.00D+00
 Coeff-Com: -0.366D-04 0.523D-04 0.835D-04 0.874D-04-0.105D-02-0.347D-02
 Coeff-Com: -0.968D-02 0.284D-01 0.345D+00 0.641D+00
 Coeff:     -0.366D-04 0.523D-04 0.835D-04 0.874D-04-0.105D-02-0.347D-02
 Coeff:     -0.968D-02 0.284D-01 0.345D+00 0.641D+00
 Gap=     0.277 Goal=   None    Shift=    0.000
 DSYEVD-2 returned Info=         251 IAlg= 4 N=   223 NDim=   223 NE2=      926087 trying  DSYEV.
 RMSDP=8.46D-08 MaxDP=1.26D-06 DE=-3.78D-10 OVMax= 2.24D-06

 Cycle  11  Pass 1  IDiag  1:
 E= -309.453920736529     Delta-E=       -0.000000000101 Rises=F Damp=F
 DIIS: error= 5.40D-08 at cycle  11 NSaved=  11.
 NSaved=11 IEnMin=11 EnMin= -309.453920736529     IErMin=11 ErrMin= 5.40D-08
 ErrMax= 5.40D-08  0.00D+00 EMaxC= 1.00D-01 BMatC= 4.78D-13 BMatP= 1.02D-10
 IDIUse=1 WtCom= 1.00D+00 WtEn= 0.00D+00
 Coeff-Com:  0.588D-06-0.310D-06 0.146D-04 0.329D-04-0.145D-03-0.723D-03
 Coeff-Com: -0.215D-02-0.759D-03 0.642D-01 0.137D+00 0.803D+00
 Coeff:      0.588D-06-0.310D-06 0.146D-04 0.329D-04-0.145D-03-0.723D-03
 Coeff:     -0.215D-02-0.759D-03 0.642D-01 0.137D+00 0.803D+00
 Gap=     0.277 Goal=   None    Shift=    0.000
 RMSDP=1.21D-08 MaxDP=2.54D-07 DE=-1.01D-10 OVMax= 2.52D-07

 Cycle  12  Pass 1  IDiag  1:
 E= -309.453920736525     Delta-E=        0.000000000004 Rises=F Damp=F
 DIIS: error= 4.02D-08 at cycle  12 NSaved=  12.
 NSaved=12 IEnMin=11 EnMin= -309.453920736529     IErMin=12 ErrMin= 4.02D-08
 ErrMax= 4.02D-08  0.00D+00 EMaxC= 1.00D-01 BMatC= 2.48D-13 BMatP= 4.78D-13
 IDIUse=1 WtCom= 1.00D+00 WtEn= 0.00D+00
 Coeff-Com:  0.370D-05-0.496D-05 0.152D-05 0.135D-04 0.601D-05-0.144D-03
 Coeff-Com: -0.469D-03-0.315D-02 0.100D-01 0.295D-01 0.455D+00 0.509D+00
 Coeff:      0.370D-05-0.496D-05 0.152D-05 0.135D-04 0.601D-05-0.144D-03
 Coeff:     -0.469D-03-0.315D-02 0.100D-01 0.295D-01 0.455D+00 0.509D+00
 Gap=     0.277 Goal=   None    Shift=    0.000
 RMSDP=4.08D-09 MaxDP=6.38D-08 DE= 3.64D-12 OVMax= 1.17D-07

 SCF Done:  E(RB971) =  -309.453920737     A.U. after   12 cycles
            NFock= 12  Conv=0.41D-08     -V/T= 2.0043
 KE= 3.081387058548D+02 PE=-1.450136653415D+03 EE= 4.665913348195D+02
 Leave Link  502 at Sun Apr 26 03:18:14 2015, MaxMem=   524288000 cpu:       300.2
 (Enter /opt/g09/l801.exe)
 DoSCS=F DFT=T ScalE2(SS,OS)=  1.000000  1.000000
 Range of M.O.s used for correlation:     1   223
 NBasis=   224 NAE=    28 NBE=    28 NFC=     0 NFV=     0
 NROrb=    223 NOA=    28 NOB=    28 NVA=   195 NVB=   195

 **** Warning!!: The largest alpha MO coefficient is  0.88266764D+02

 Leave Link  801 at Sun Apr 26 03:18:16 2015, MaxMem=   524288000 cpu:         0.3
 (Enter /opt/g09/l1101.exe)
 Using compressed storage, NAtomX=    16.
 Will process     17 centers per pass.
 Leave Link 1101 at Sun Apr 26 03:18:16 2015, MaxMem=   524288000 cpu:         2.6
 (Enter /opt/g09/l1102.exe)
 Symmetrizing basis deriv contribution to polar:
 IMax=3 JMax=2 DiffMx= 0.00D+00
 Leave Link 1102 at Sun Apr 26 03:18:17 2015, MaxMem=   524288000 cpu:         0.4
 (Enter /opt/g09/l1110.exe)
 Forming Gx(P) for the SCF density, NAtomX=    16.
 Integral derivatives from FoFJK, PRISM(SPDF).
 Do as many integral derivatives as possible in FoFJK.
 G2DrvN: MDV=     524287768.
 G2DrvN: will do    17 centers at a time, making    1 passes.
 Calling FoFCou, ICntrl=  3107 FMM=F I1Cent=   0 AccDes= 0.00D+00.
 FoFJK:  IHMeth= 1 ICntrl=    3107 DoSepK=F KAlg= 0 I1Cent=   0 FoldK=F
 IRaf=         0 NMat=   1 IRICut=       1 DoRegI=T DoRafI=F ISym2E= 0.
 FoFCou: FMM=F IPFlag=           0 FMFlag=      100000 FMFlg1=           0
         NFxFlg=           0 DoJE=F BraDBF=F KetDBF=F FulRan=T
         wScrn=  0.000000 ICntrl=    3107 IOpCl=  0 I1Cent=           0 NGrid=           0
         NMat0=    1 NMatS0=      1 NMatT0=    0 NMatD0=    1 NMtDS0=    0 NMtDT0=    0
 Symmetry not used in FoFCou.
 End of G2Drv F.D. properties file   721 does not exist.
 End of G2Drv F.D. properties file   722 does not exist.
 End of G2Drv F.D. properties file   788 does not exist.
 Leave Link 1110 at Sun Apr 26 03:20:16 2015, MaxMem=   524288000 cpu:       953.3
 (Enter /opt/g09/l1002.exe)
 Minotr:  Closed shell wavefunction.
          IDoAtm=1111111111111111
          Direct CPHF calculation.
          Differentiating once with respect to electric field.
                with respect to dipole field.
          Differentiating once with respect to nuclear coordinates.
          Requested convergence is 1.0D-08 RMS, and 1.0D-07 maximum.
          Secondary convergence is 1.0D-12 RMS, and 1.0D-12 maximum.
          NewPWx=T KeepS1=F KeepF1=F KeepIn=T MapXYZ=F SortEE=F KeepMc=T.
          MDV=     524287613 using IRadAn=       1.
 Generate precomputed XC quadrature information.
 Keep R1 ints in memory in canonical form, NReq=323864098.
 FoFCou: FMM=F IPFlag=           0 FMFlag=           0 FMFlg1=           0
         NFxFlg=           0 DoJE=F BraDBF=F KetDBF=F FulRan=T
         wScrn=  0.000000 ICntrl=     600 IOpCl=  0 I1Cent=           0 NGrid=           0
         NMat0=    1 NMatS0=  25200 NMatT0=    0 NMatD0=    1 NMtDS0=    0 NMtDT0=    0
 Symmetry not used in FoFCou.
          Solving linear equations simultaneously, MaxMat=       0.
          There are    51 degrees of freedom in the 1st order CPHF.  IDoFFX=6 NUNeed=     3.
     48 vectors produced by pass  0 Test12= 1.07D-14 1.96D-09 XBig12= 5.26D+01 1.52D+00.
 AX will form    48 AO Fock derivatives at one time.
     48 vectors produced by pass  1 Test12= 1.07D-14 1.96D-09 XBig12= 6.74D+00 5.34D-01.
     48 vectors produced by pass  2 Test12= 1.07D-14 1.96D-09 XBig12= 1.08D-01 8.99D-02.
     48 vectors produced by pass  3 Test12= 1.07D-14 1.96D-09 XBig12= 2.42D-04 2.43D-03.
     48 vectors produced by pass  4 Test12= 1.07D-14 1.96D-09 XBig12= 5.95D-07 1.10D-04.
     45 vectors produced by pass  5 Test12= 1.07D-14 1.96D-09 XBig12= 1.31D-09 5.73D-06.
     16 vectors produced by pass  6 Test12= 1.07D-14 1.96D-09 XBig12= 3.02D-12 3.32D-07.
      3 vectors produced by pass  7 Test12= 1.07D-14 1.96D-09 XBig12= 7.20D-15 1.44D-08.
      1 vectors produced by pass  8 Test12= 1.07D-14 1.96D-09 XBig12= 8.23D-17 2.03D-09.
 InvSVY:  IOpt=1 It=  1 EMax= 4.44D-15
 Solved reduced A of dimension   305 with    51 vectors.
 FullF1:  Do perturbations    1 to     3.
 Isotropic polarizability for W=    0.000000       75.12 Bohr**3.
 End of Minotr F.D. properties file   721 does not exist.
 End of Minotr F.D. properties file   722 does not exist.
 End of Minotr F.D. properties file   788 does not exist.
 Leave Link 1002 at Sun Apr 26 03:22:45 2015, MaxMem=   524288000 cpu:      1175.8
 (Enter /opt/g09/l701.exe)
 Compute integral second derivatives.
 ... and contract with generalized density number  0.
 Leave Link  701 at Sun Apr 26 03:22:47 2015, MaxMem=   524288000 cpu:         2.4
 (Enter /opt/g09/l702.exe)
 L702 exits ... SP integral derivatives will be done elsewhere.
 Leave Link  702 at Sun Apr 26 03:22:47 2015, MaxMem=   524288000 cpu:         0.3
 (Enter /opt/g09/l703.exe)
 Compute integral second derivatives, UseDBF=F ICtDFT=           0.
 Integral derivatives from FoFJK, PRISM(SPDF).
 Calling FoFJK, ICntrl=    100127 FMM=F ISym2X=0 I1Cent= 0 IOpClX= 0 NMat=1 NMatS=1 NMatT=0.
 FoFJK:  IHMeth= 1 ICntrl=  100127 DoSepK=F KAlg= 0 I1Cent=   0 FoldK=F
 IRaf=         0 NMat=   1 IRICut=       1 DoRegI=T DoRafI=F ISym2E= 0.
 FoFCou: FMM=F IPFlag=           0 FMFlag=      100000 FMFlg1=         800
         NFxFlg=           0 DoJE=F BraDBF=F KetDBF=F FulRan=T
         wScrn=  0.000000 ICntrl=  100127 IOpCl=  0 I1Cent=           0 NGrid=           0
         NMat0=    1 NMatS0=      1 NMatT0=    0 NMatD0=    1 NMtDS0=    0 NMtDT0=    0
 Symmetry not used in FoFCou.
 Leave Link  703 at Sun Apr 26 03:26:23 2015, MaxMem=   524288000 cpu:      1727.3
 (Enter /opt/g09/l716.exe)
 Dipole        = 2.93145865D-06-3.63662596D-06 6.60221673D-07
 Polarizability= 7.51148733D+01 1.18385537D-03 7.51173072D+01
                -1.11341387D-03-9.52941506D-04 7.51159171D+01
 -------------------------------------------------------------------
 Center     Atomic                   Forces (Hartrees/Bohr)
 Number     Number              X              Y              Z
 -------------------------------------------------------------------
      1        6           0.000000070    0.000003207    0.000004040
      2        6           0.000000547   -0.000003891   -0.000006470
      3        6           0.000002472    0.000000601   -0.000006095
      4        6          -0.000004316    0.000005221    0.000008303
      5        6          -0.000003384    0.000003504    0.000001983
      6        6          -0.000006327   -0.000000462   -0.000003596
      7        6          -0.000002115   -0.000001145   -0.000002176
      8        6           0.000004442    0.000000004    0.000001306
      9        1           0.000003377   -0.000003180    0.000002947
     10        1           0.000002990   -0.000000421    0.000003235
     11        1          -0.000001844   -0.000003222    0.000001097
     12        1          -0.000001949    0.000001412    0.000002196
     13        1           0.000003656   -0.000005852    0.000001079
     14        1           0.000003339    0.000002901   -0.000000819
     15        1           0.000001453    0.000000619   -0.000003848
     16        1          -0.000002411    0.000000703   -0.000003182
 -------------------------------------------------------------------
 Cartesian Forces:  Max     0.000008303 RMS     0.000003333
 FormGI is forming the generalized inverse of G from B-inverse, IUseBI=4.
 Leave Link  716 at Sun Apr 26 03:26:24 2015, MaxMem=   524288000 cpu:         0.4
 (Enter /opt/g09/l103.exe)

 GradGradGradGradGradGradGradGradGradGradGradGradGradGradGradGradGradGrad
 Berny optimization.
 Red2BG is reusing G-inverse.
 Internal  Forces:  Max     0.000005524 RMS     0.000000964
 Search for a local minimum.
 Step number   1 out of a maximum of  100
 All quantities printed in internal units (Hartrees-Bohrs-Radians)
 RMS Force = .96363D-06 SwitMx=.10000D-02 MixMth= 2
 Mixed Optimization -- En-DIIS/RFO-DIIS
 Second derivative matrix not updated -- analytic derivatives used.
 ITU=  0
     Eigenvalues ---    0.01151   0.01152   0.01152   0.01427   0.01427
     Eigenvalues ---    0.01428   0.01614   0.01615   0.02247   0.02253
     Eigenvalues ---    0.02256   0.02602   0.02603   0.03070   0.03071
     Eigenvalues ---    0.03072   0.05259   0.05276   0.06683   0.06697
     Eigenvalues ---    0.06725   0.09555   0.11714   0.11717   0.11724
     Eigenvalues ---    0.13599   0.13620   0.13631   0.14187   0.14202
     Eigenvalues ---    0.14239   0.24197   0.24235   0.25706   0.33720
     Eigenvalues ---    0.33807   0.33810   0.33812   0.33820   0.33823
     Eigenvalues ---    0.33825   0.34127
 RFO step:  Lambda= 0.00000000D+00 EMin= 1.15137423D-02
 Linear search not attempted -- first point.
 Iteration  1 RMS(Cart)=  0.00000841 RMS(Int)=  0.00000000
 Iteration  2 RMS(Cart)=  0.00000000 RMS(Int)=  0.00000000
 ITry= 1 IFail=0 DXMaxC= 3.87D-05 DCOld= 1.00D+10 DXMaxT= 3.00D-01 DXLimC= 3.00D+00 Rises=F
 Variable       Old X    -DE/DX   Delta X   Delta X   Delta X     New X
                                 (Linear)    (Quad)   (Total)
    R1        2.97583   0.00000   0.00000  -0.00001  -0.00001   2.97582
    R2        2.97583   0.00000   0.00000   0.00001   0.00001   2.97584
    R3        2.97593   0.00000   0.00000  -0.00001  -0.00001   2.97591
    R4        2.06142   0.00000   0.00000  -0.00001  -0.00001   2.06141
    R5        2.97591   0.00000   0.00000  -0.00001  -0.00001   2.97590
    R6        2.97589   0.00000   0.00000   0.00000   0.00000   2.97589
    R7        2.06140   0.00000   0.00000   0.00001   0.00001   2.06141
    R8        2.97589   0.00000   0.00000   0.00001   0.00001   2.97589
    R9        2.97589   0.00000   0.00000  -0.00001  -0.00001   2.97589
   R10        2.06140   0.00000   0.00000   0.00001   0.00001   2.06141
   R11        2.97590   0.00000   0.00000  -0.00001  -0.00001   2.97589
   R12        2.97588   0.00000   0.00000   0.00002   0.00002   2.97590
   R13        2.06141   0.00000   0.00000   0.00000   0.00000   2.06141
   R14        2.97589   0.00000   0.00000   0.00002   0.00002   2.97591
   R15        2.06140   0.00001   0.00000   0.00002   0.00002   2.06141
   R16        2.97583   0.00000   0.00000   0.00001   0.00001   2.97584
   R17        2.06140   0.00000   0.00000   0.00001   0.00001   2.06141
   R18        2.97583   0.00000   0.00000  -0.00001  -0.00001   2.97582
   R19        2.06140   0.00000   0.00000   0.00001   0.00001   2.06141
   R20        2.06140   0.00000   0.00000   0.00001   0.00001   2.06141
    A1        1.57082   0.00000   0.00000   0.00000   0.00000   1.57082
    A2        1.57081   0.00000   0.00000   0.00000   0.00000   1.57081
    A3        2.18630   0.00000   0.00000   0.00000   0.00000   2.18630
    A4        1.57080   0.00000   0.00000  -0.00001  -0.00001   1.57080
    A5        2.18627   0.00000   0.00000   0.00000   0.00000   2.18627
    A6        2.18622   0.00000   0.00000   0.00001   0.00001   2.18623
    A7        1.57079   0.00000   0.00000   0.00000   0.00000   1.57079
    A8        1.57081   0.00000   0.00000   0.00000   0.00000   1.57081
    A9        2.18624   0.00000   0.00000   0.00000   0.00000   2.18624
   A10        1.57077   0.00000   0.00000   0.00001   0.00001   1.57078
   A11        2.18632   0.00000   0.00000   0.00000   0.00000   2.18632
   A12        2.18627   0.00000   0.00000   0.00000   0.00000   2.18627
   A13        1.57080   0.00000   0.00000  -0.00001  -0.00001   1.57079
   A14        1.57081   0.00000   0.00000   0.00001   0.00001   1.57082
   A15        2.18626   0.00000   0.00000   0.00000   0.00000   2.18626
   A16        1.57079   0.00000   0.00000   0.00000   0.00000   1.57079
   A17        2.18630   0.00000   0.00000   0.00000   0.00000   2.18630
   A18        2.18626   0.00000   0.00000   0.00000   0.00000   2.18626
   A19        1.57077   0.00000   0.00000   0.00001   0.00001   1.57078
   A20        1.57078   0.00000   0.00000   0.00001   0.00001   1.57079
   A21        2.18631   0.00000   0.00000   0.00001   0.00001   2.18632
   A22        1.57079   0.00000   0.00000  -0.00001  -0.00001   1.57078
   A23        2.18627   0.00000   0.00000   0.00000   0.00000   2.18627
   A24        2.18628   0.00000   0.00000  -0.00001  -0.00001   2.18627
   A25        1.57077   0.00000   0.00000   0.00000   0.00000   1.57078
   A26        1.57080   0.00000   0.00000  -0.00001  -0.00001   1.57079
   A27        2.18625   0.00000   0.00000   0.00001   0.00001   2.18627
   A28        1.57079   0.00000   0.00000  -0.00001  -0.00001   1.57078
   A29        2.18627   0.00000   0.00000   0.00000   0.00000   2.18627
   A30        2.18632   0.00000   0.00000   0.00000   0.00000   2.18632
   A31        1.57080   0.00000   0.00000  -0.00001  -0.00001   1.57079
   A32        1.57082   0.00000   0.00000  -0.00001  -0.00001   1.57082
   A33        2.18627   0.00000   0.00000  -0.00001  -0.00001   2.18626
   A34        1.57078   0.00000   0.00000   0.00001   0.00001   1.57079
   A35        2.18628   0.00000   0.00000   0.00002   0.00002   2.18630
   A36        2.18627   0.00000   0.00000  -0.00001  -0.00001   2.18626
   A37        1.57079   0.00000   0.00000   0.00000   0.00000   1.57080
   A38        1.57081   0.00000   0.00000   0.00000   0.00000   1.57081
   A39        2.18623   0.00000   0.00000   0.00000   0.00000   2.18623
   A40        1.57083   0.00000   0.00000  -0.00001  -0.00001   1.57082
   A41        2.18628   0.00000   0.00000  -0.00001  -0.00001   2.18627
   A42        2.18629   0.00000   0.00000   0.00001   0.00001   2.18630
   A43        1.57079   0.00000   0.00000  -0.00001  -0.00001   1.57078
   A44        1.57081   0.00000   0.00000   0.00000   0.00000   1.57081
   A45        2.18627   0.00000   0.00000   0.00000   0.00000   2.18627
   A46        1.57078   0.00000   0.00000   0.00001   0.00001   1.57079
   A47        2.18632   0.00000   0.00000   0.00000   0.00000   2.18632
   A48        2.18624   0.00000   0.00000   0.00000   0.00000   2.18624
    D1        0.00001   0.00000   0.00000  -0.00002  -0.00002  -0.00001
    D2        1.57078   0.00000   0.00000  -0.00001  -0.00001   1.57078
    D3       -2.35622   0.00000   0.00000  -0.00001  -0.00001  -2.35624
    D4       -1.57079   0.00000   0.00000  -0.00002  -0.00002  -1.57081
    D5       -0.00002   0.00000   0.00000   0.00000   0.00000  -0.00002
    D6        2.35616   0.00000   0.00000  -0.00001  -0.00001   2.35615
    D7        2.35625   0.00000   0.00000  -0.00003  -0.00003   2.35622
    D8       -2.35617   0.00000   0.00000  -0.00001  -0.00001  -2.35618
    D9        0.00001   0.00000   0.00000  -0.00002  -0.00002  -0.00001
   D10       -0.00001   0.00000   0.00000   0.00002   0.00002   0.00001
   D11       -1.57080   0.00000   0.00000   0.00002   0.00002  -1.57078
   D12        2.35621   0.00000   0.00000   0.00001   0.00001   2.35622
   D13        1.57080   0.00000   0.00000   0.00002   0.00002   1.57082
   D14        0.00001   0.00000   0.00000   0.00001   0.00001   0.00003
   D15       -2.35617   0.00000   0.00000   0.00001   0.00001  -2.35616
   D16       -2.35627   0.00000   0.00000   0.00003   0.00003  -2.35624
   D17        2.35613   0.00000   0.00000   0.00002   0.00002   2.35615
   D18       -0.00004   0.00000   0.00000   0.00001   0.00001  -0.00003
   D19        0.00002   0.00000   0.00000   0.00000   0.00000   0.00002
   D20        1.57081   0.00000   0.00000  -0.00001  -0.00001   1.57080
   D21       -2.35617   0.00000   0.00000  -0.00001  -0.00001  -2.35618
   D22       -1.57080   0.00000   0.00000   0.00000   0.00000  -1.57080
   D23       -0.00001   0.00000   0.00000  -0.00001  -0.00001  -0.00003
   D24        2.35620   0.00000   0.00000  -0.00002  -0.00002   2.35618
   D25        2.35623   0.00000   0.00000   0.00000   0.00000   2.35623
   D26       -2.35617   0.00000   0.00000  -0.00001  -0.00001  -2.35618
   D27        0.00004   0.00000   0.00000  -0.00001  -0.00001   0.00003
   D28       -0.00001   0.00000   0.00000   0.00002   0.00002   0.00001
   D29        1.57077   0.00000   0.00000   0.00001   0.00001   1.57078
   D30       -2.35616   0.00000   0.00000   0.00001   0.00001  -2.35616
   D31       -1.57082   0.00000   0.00000   0.00002   0.00002  -1.57080
   D32       -0.00003   0.00000   0.00000   0.00001   0.00001  -0.00003
   D33        2.35621   0.00000   0.00000   0.00000   0.00000   2.35622
   D34        2.35617   0.00000   0.00000   0.00001   0.00001   2.35618
   D35       -2.35623   0.00000   0.00000   0.00000   0.00000  -2.35623
   D36        0.00001   0.00000   0.00000   0.00000   0.00000   0.00001
   D37        0.00002   0.00000   0.00000   0.00000   0.00000   0.00002
   D38       -1.57076   0.00000   0.00000  -0.00001  -0.00001  -1.57077
   D39        2.35621   0.00000   0.00000   0.00002   0.00002   2.35623
   D40        1.57081   0.00000   0.00000   0.00000   0.00000   1.57082
   D41        0.00003   0.00000   0.00000  -0.00001  -0.00001   0.00003
   D42       -2.35618   0.00000   0.00000   0.00002   0.00002  -2.35616
   D43       -2.35614   0.00000   0.00000   0.00001   0.00001  -2.35613
   D44        2.35627   0.00000   0.00000   0.00000   0.00000   2.35627
   D45        0.00006   0.00000   0.00000   0.00003   0.00003   0.00008
   D46        0.00001   0.00000   0.00000  -0.00002  -0.00002  -0.00001
   D47       -1.57078   0.00000   0.00000  -0.00001  -0.00001  -1.57079
   D48        2.35615   0.00000   0.00000   0.00000   0.00000   2.35615
   D49        1.57082   0.00000   0.00000  -0.00001  -0.00001   1.57081
   D50        0.00003   0.00000   0.00000   0.00000   0.00000   0.00002
   D51       -2.35623   0.00000   0.00000   0.00001   0.00001  -2.35622
   D52       -2.35618   0.00000   0.00000  -0.00001  -0.00001  -2.35619
   D53        2.35621   0.00000   0.00000   0.00000   0.00000   2.35621
   D54       -0.00004   0.00000   0.00000   0.00002   0.00002  -0.00003
   D55       -0.00001   0.00000   0.00000  -0.00001  -0.00001  -0.00003
   D56        1.57077   0.00000   0.00000   0.00000   0.00000   1.57077
   D57       -2.35627   0.00000   0.00000   0.00000   0.00000  -2.35627
   D58       -1.57081   0.00000   0.00000  -0.00001  -0.00001  -1.57082
   D59       -0.00003   0.00000   0.00000   0.00000   0.00000  -0.00002
   D60        2.35612   0.00000   0.00000   0.00001   0.00001   2.35613
   D61        2.35617   0.00000   0.00000  -0.00001  -0.00001   2.35616
   D62       -2.35623   0.00000   0.00000   0.00000   0.00000  -2.35623
   D63       -0.00009   0.00000   0.00000   0.00001   0.00001  -0.00008
   D64       -0.00002   0.00000   0.00000   0.00000   0.00000  -0.00002
   D65        1.57080   0.00000   0.00000  -0.00001  -0.00001   1.57079
   D66       -2.35621   0.00000   0.00000   0.00000   0.00000  -2.35621
   D67       -1.57080   0.00000   0.00000  -0.00001  -0.00001  -1.57081
   D68        0.00003   0.00000   0.00000  -0.00002  -0.00002   0.00001
   D69        2.35620   0.00000   0.00000  -0.00001  -0.00001   2.35619
   D70        2.35620   0.00000   0.00000   0.00002   0.00002   2.35622
   D71       -2.35616   0.00000   0.00000   0.00001   0.00001  -2.35615
   D72        0.00001   0.00000   0.00000   0.00002   0.00002   0.00003
   D73        0.00001   0.00000   0.00000   0.00001   0.00001   0.00003
   D74       -1.57080   0.00000   0.00000   0.00001   0.00001  -1.57078
   D75        2.35623   0.00000   0.00000   0.00000   0.00000   2.35623
   D76        1.57078   0.00000   0.00000   0.00002   0.00002   1.57080
   D77       -0.00003   0.00000   0.00000   0.00002   0.00002  -0.00001
   D78       -2.35619   0.00000   0.00000   0.00001   0.00001  -2.35618
   D79       -2.35622   0.00000   0.00000   0.00000   0.00000  -2.35622
   D80        2.35616   0.00000   0.00000   0.00000   0.00000   2.35616
   D81       -0.00001   0.00000   0.00000  -0.00001  -0.00001  -0.00001
   D82        0.00003   0.00000   0.00000  -0.00001  -0.00001   0.00003
   D83       -1.57080   0.00000   0.00000   0.00000   0.00000  -1.57080
   D84        2.35620   0.00000   0.00000  -0.00002  -0.00002   2.35618
   D85        1.57081   0.00000   0.00000   0.00000   0.00000   1.57080
   D86       -0.00003   0.00000   0.00000   0.00000   0.00000  -0.00002
   D87       -2.35621   0.00000   0.00000  -0.00001  -0.00001  -2.35623
   D88       -2.35616   0.00000   0.00000  -0.00002  -0.00002  -2.35618
   D89        2.35619   0.00000   0.00000  -0.00001  -0.00001   2.35618
   D90        0.00000   0.00000   0.00000  -0.00003  -0.00003  -0.00003
   D91       -0.00003   0.00000   0.00000   0.00001   0.00001  -0.00003
   D92        1.57077   0.00000   0.00000   0.00001   0.00001   1.57078
   D93       -2.35616   0.00000   0.00000   0.00001   0.00001  -2.35615
   D94       -1.57083   0.00000   0.00000   0.00002   0.00002  -1.57082
   D95       -0.00003   0.00000   0.00000   0.00002   0.00002  -0.00001
   D96        2.35623   0.00000   0.00000   0.00002   0.00002   2.35624
   D97        2.35618   0.00000   0.00000  -0.00002  -0.00002   2.35616
   D98       -2.35620   0.00000   0.00000  -0.00001  -0.00001  -2.35622
   D99        0.00005   0.00000   0.00000  -0.00002  -0.00002   0.00003
   D100       0.00003   0.00000   0.00000   0.00000   0.00000   0.00002
   D101       1.57082   0.00000   0.00000  -0.00001  -0.00001   1.57081
   D102      -2.35614   0.00000   0.00000  -0.00001  -0.00001  -2.35615
   D103      -1.57077   0.00000   0.00000  -0.00001  -0.00001  -1.57078
   D104       0.00003   0.00000   0.00000  -0.00002  -0.00002   0.00001
   D105       2.35625   0.00000   0.00000  -0.00001  -0.00001   2.35624
   D106       2.35617   0.00000   0.00000   0.00001   0.00001   2.35618
   D107      -2.35622   0.00000   0.00000   0.00000   0.00000  -2.35622
   D108       0.00000   0.00000   0.00000   0.00000   0.00000   0.00001
         Item               Value     Threshold  Converged?
 Maximum Force            0.000006     0.000015     YES
 RMS     Force            0.000001     0.000010     YES
 Maximum Displacement     0.000039     0.000060     YES
 RMS     Displacement     0.000008     0.000040     YES
 Predicted change in Energy=-6.145599D-10
 Optimization completed.
    -- Stationary point found.
                           ----------------------------
                           !   Optimized Parameters   !
                           ! (Angstroms and Degrees)  !
 --------------------------                            --------------------------
 ! Name  Definition              Value          Derivative Info.                !
 --------------------------------------------------------------------------------
 ! R1    R(1,2)                  1.5747         -DE/DX =    0.0                 !
 ! R2    R(1,3)                  1.5747         -DE/DX =    0.0                 !
 ! R3    R(1,4)                  1.5748         -DE/DX =    0.0                 !
 ! R4    R(1,9)                  1.0909         -DE/DX =    0.0                 !
 ! R5    R(2,5)                  1.5748         -DE/DX =    0.0                 !
 ! R6    R(2,6)                  1.5748         -DE/DX =    0.0                 !
 ! R7    R(2,10)                 1.0908         -DE/DX =    0.0                 !
 ! R8    R(3,5)                  1.5748         -DE/DX =    0.0                 !
 ! R9    R(3,8)                  1.5748         -DE/DX =    0.0                 !
 ! R10   R(3,11)                 1.0908         -DE/DX =    0.0                 !
 ! R11   R(4,6)                  1.5748         -DE/DX =    0.0                 !
 ! R12   R(4,8)                  1.5748         -DE/DX =    0.0                 !
 ! R13   R(4,12)                 1.0909         -DE/DX =    0.0                 !
 ! R14   R(5,7)                  1.5748         -DE/DX =    0.0                 !
 ! R15   R(5,13)                 1.0908         -DE/DX =    0.0                 !
 ! R16   R(6,7)                  1.5747         -DE/DX =    0.0                 !
 ! R17   R(6,14)                 1.0908         -DE/DX =    0.0                 !
 ! R18   R(7,8)                  1.5747         -DE/DX =    0.0                 !
 ! R19   R(7,15)                 1.0908         -DE/DX =    0.0                 !
 ! R20   R(8,16)                 1.0908         -DE/DX =    0.0                 !
 ! A1    A(2,1,3)               90.0013         -DE/DX =    0.0                 !
 ! A2    A(2,1,4)               90.0008         -DE/DX =    0.0                 !
 ! A3    A(2,1,9)              125.2659         -DE/DX =    0.0                 !
 ! A4    A(3,1,4)               90.0004         -DE/DX =    0.0                 !
 ! A5    A(3,1,9)              125.2642         -DE/DX =    0.0                 !
 ! A6    A(4,1,9)              125.2613         -DE/DX =    0.0                 !
 ! A7    A(1,2,5)               89.9999         -DE/DX =    0.0                 !
 ! A8    A(1,2,6)               90.0006         -DE/DX =    0.0                 !
 ! A9    A(1,2,10)             125.2625         -DE/DX =    0.0                 !
 ! A10   A(5,2,6)               89.9985         -DE/DX =    0.0                 !
 ! A11   A(5,2,10)             125.2671         -DE/DX =    0.0                 !
 ! A12   A(6,2,10)             125.2643         -DE/DX =    0.0                 !
 ! A13   A(1,3,5)               90.0002         -DE/DX =    0.0                 !
 ! A14   A(1,3,8)               90.0007         -DE/DX =    0.0                 !
 ! A15   A(1,3,11)             125.2636         -DE/DX =    0.0                 !
 ! A16   A(5,3,8)               89.9994         -DE/DX =    0.0                 !
 ! A17   A(5,3,11)             125.2657         -DE/DX =    0.0                 !
 ! A18   A(8,3,11)             125.2636         -DE/DX =    0.0                 !
 ! A19   A(1,4,6)               89.9985         -DE/DX =    0.0                 !
 ! A20   A(1,4,8)               89.999          -DE/DX =    0.0                 !
 ! A21   A(1,4,12)             125.2665         -DE/DX =    0.0                 !
 ! A22   A(6,4,8)               89.9997         -DE/DX =    0.0                 !
 ! A23   A(6,4,12)             125.264          -DE/DX =    0.0                 !
 ! A24   A(8,4,12)             125.2646         -DE/DX =    0.0                 !
 ! A25   A(2,5,3)               89.9986         -DE/DX =    0.0                 !
 ! A26   A(2,5,7)               90.0            -DE/DX =    0.0                 !
 ! A27   A(2,5,13)             125.2631         -DE/DX =    0.0                 !
 ! A28   A(3,5,7)               89.9995         -DE/DX =    0.0                 !
 ! A29   A(3,5,13)             125.2642         -DE/DX =    0.0                 !
 ! A30   A(7,5,13)             125.2672         -DE/DX =    0.0                 !
 ! A31   A(2,6,4)               90.0001         -DE/DX =    0.0                 !
 ! A32   A(2,6,7)               90.0016         -DE/DX =    0.0                 !
 ! A33   A(2,6,14)             125.264          -DE/DX =    0.0                 !
 ! A34   A(4,6,7)               89.999          -DE/DX =    0.0                 !
 ! A35   A(4,6,14)             125.2645         -DE/DX =    0.0                 !
 ! A36   A(7,6,14)             125.2642         -DE/DX =    0.0                 !
 ! A37   A(5,7,6)               89.9999         -DE/DX =    0.0                 !
 ! A38   A(5,7,8)               90.0005         -DE/DX =    0.0                 !
 ! A39   A(5,7,15)             125.2617         -DE/DX =    0.0                 !
 ! A40   A(6,7,8)               90.002          -DE/DX =    0.0                 !
 ! A41   A(6,7,15)             125.2646         -DE/DX =    0.0                 !
 ! A42   A(8,7,15)             125.2651         -DE/DX =    0.0                 !
 ! A43   A(3,8,4)               89.9999         -DE/DX =    0.0                 !
 ! A44   A(3,8,7)               90.0006         -DE/DX =    0.0                 !
 ! A45   A(3,8,16)             125.2639         -DE/DX =    0.0                 !
 ! A46   A(4,8,7)               89.9993         -DE/DX =    0.0                 !
 ! A47   A(4,8,16)             125.2671         -DE/DX =    0.0                 !
 ! A48   A(7,8,16)             125.2622         -DE/DX =    0.0                 !
 ! D1    D(3,1,2,5)              0.0008         -DE/DX =    0.0                 !
 ! D2    D(3,1,2,6)             89.9993         -DE/DX =    0.0                 !
 ! D3    D(3,1,2,10)          -135.0016         -DE/DX =    0.0                 !
 ! D4    D(4,1,2,5)            -89.9996         -DE/DX =    0.0                 !
 ! D5    D(4,1,2,6)             -0.0011         -DE/DX =    0.0                 !
 ! D6    D(4,1,2,10)           134.998          -DE/DX =    0.0                 !
 ! D7    D(9,1,2,5)            135.0029         -DE/DX =    0.0                 !
 ! D8    D(9,1,2,6)           -134.9986         -DE/DX =    0.0                 !
 ! D9    D(9,1,2,10)             0.0005         -DE/DX =    0.0                 !
 ! D10   D(2,1,3,5)             -0.0008         -DE/DX =    0.0                 !
 ! D11   D(2,1,3,8)            -90.0002         -DE/DX =    0.0                 !
 ! D12   D(2,1,3,11)           135.0007         -DE/DX =    0.0                 !
 ! D13   D(4,1,3,5)             90.0            -DE/DX =    0.0                 !
 ! D14   D(4,1,3,8)              0.0006         -DE/DX =    0.0                 !
 ! D15   D(4,1,3,11)          -134.9985         -DE/DX =    0.0                 !
 ! D16   D(9,1,3,5)           -135.0041         -DE/DX =    0.0                 !
 ! D17   D(9,1,3,8)            134.9965         -DE/DX =    0.0                 !
 ! D18   D(9,1,3,11)            -0.0026         -DE/DX =    0.0                 !
 ! D19   D(2,1,4,6)              0.0011         -DE/DX =    0.0                 !
 ! D20   D(2,1,4,8)             90.0007         -DE/DX =    0.0                 !
 ! D21   D(2,1,4,12)          -134.9984         -DE/DX =    0.0                 !
 ! D22   D(3,1,4,6)            -90.0002         -DE/DX =    0.0                 !
 ! D23   D(3,1,4,8)             -0.0006         -DE/DX =    0.0                 !
 ! D24   D(3,1,4,12)           135.0002         -DE/DX =    0.0                 !
 ! D25   D(9,1,4,6)            135.0018         -DE/DX =    0.0                 !
 ! D26   D(9,1,4,8)           -134.9985         -DE/DX =    0.0                 !
 ! D27   D(9,1,4,12)             0.0023         -DE/DX =    0.0                 !
 ! D28   D(1,2,5,3)             -0.0008         -DE/DX =    0.0                 !
 ! D29   D(1,2,5,7)             89.9987         -DE/DX =    0.0                 !
 ! D30   D(1,2,5,13)          -134.9983         -DE/DX =    0.0                 !
 ! D31   D(6,2,5,3)            -90.0014         -DE/DX =    0.0                 !
 ! D32   D(6,2,5,7)             -0.0019         -DE/DX =    0.0                 !
 ! D33   D(6,2,5,13)           135.0011         -DE/DX =    0.0                 !
 ! D34   D(10,2,5,3)           134.9983         -DE/DX =    0.0                 !
 ! D35   D(10,2,5,7)          -135.0022         -DE/DX =    0.0                 !
[...]
 ! D80   D(12,4,8,7)           134.9978         -DE/DX =    0.0                 !
 ! D81   D(12,4,8,16)           -0.0003         -DE/DX =    0.0                 !
 ! D82   D(2,5,7,6)              0.0019         -DE/DX =    0.0                 !
 ! D83   D(2,5,7,8)            -90.0001         -DE/DX =    0.0                 !
 ! D84   D(2,5,7,15)           135.0002         -DE/DX =    0.0                 !
 ! D85   D(3,5,7,6)             90.0006         -DE/DX =    0.0                 !
 ! D86   D(3,5,7,8)             -0.0015         -DE/DX =    0.0                 !
 ! D87   D(3,5,7,15)          -135.0011         -DE/DX =    0.0                 !
 ! D88   D(13,5,7,6)          -134.9982         -DE/DX =    0.0                 !
 ! D89   D(13,5,7,8)           134.9997         -DE/DX =    0.0                 !
 ! D90   D(13,5,7,15)            0.0001         -DE/DX =    0.0                 !
 ! D91   D(2,6,7,5)             -0.0019         -DE/DX =    0.0                 !
 ! D92   D(2,6,7,8)             89.9986         -DE/DX =    0.0                 !
 ! D93   D(2,6,7,15)          -134.9982         -DE/DX =    0.0                 !
 ! D94   D(4,6,7,5)            -90.002          -DE/DX =    0.0                 !
 ! D95   D(4,6,7,8)             -0.0015         -DE/DX =    0.0                 !
 ! D96   D(4,6,7,15)           135.0017         -DE/DX =    0.0                 !
 ! D97   D(14,6,7,5)           134.999          -DE/DX =    0.0                 !
 ! D98   D(14,6,7,8)          -135.0005         -DE/DX =    0.0                 !
 ! D99   D(14,6,7,15)            0.0028         -DE/DX =    0.0                 !
 ! D100  D(5,7,8,3)              0.0015         -DE/DX =    0.0                 !
 ! D101  D(5,7,8,4)             90.0014         -DE/DX =    0.0                 !
 ! D102  D(5,7,8,16)          -134.997          -DE/DX =    0.0                 !
 ! D103  D(6,7,8,3)            -89.9984         -DE/DX =    0.0                 !
 ! D104  D(6,7,8,4)              0.0015         -DE/DX =    0.0                 !
 ! D105  D(6,7,8,16)           135.0031         -DE/DX =    0.0                 !
 ! D106  D(15,7,8,3)           134.9987         -DE/DX =    0.0                 !
 ! D107  D(15,7,8,4)          -135.0014         -DE/DX =    0.0                 !
 ! D108  D(15,7,8,16)            0.0003         -DE/DX =    0.0                 !
 --------------------------------------------------------------------------------
 GradGradGradGradGradGradGradGradGradGradGradGradGradGradGradGradGradGrad

 Leave Link  103 at Sun Apr 26 03:34:40 2015, MaxMem=   524288000 cpu:         0.1
 (Enter /opt/g09/l9999.exe)
 1\1\GINC-HOKUSAI\Freq\RB971\6-311+G(d,p)\C8H8\PB556\26-Apr-2015\0\\#P 
 Geom=AllCheck Guess=TCheck SCRF=Check GenChk RB971/6-311+G(d,p) Freq\\
 freq-b971_277-10-1.gau\\0,1\C,0.83327,2.23968,2.36073\C,2.29628,2.2695
 3,2.94255\C,0.89032,0.66723,2.29785\C,1.41305,2.31919,0.89871\C,2.3533
 7,0.69704,2.87966\C,2.87609,2.34901,1.48056\C,2.93313,0.77656,1.41765\
 C,1.47011,0.74671,0.83585\H,-0.00657,2.82485,2.73784\H,2.62666,2.87859
 ,3.78507\H,0.09613,-0.00536,2.6247\H,1.03701,2.96794,0.10645\H,2.72942
 ,0.04831,3.67192\H,3.67027,3.02161,1.15371\H,3.77295,0.19139,1.04052\H
 ,1.13972,0.13764,-0.00666\\Version=ES64L-G09RevD.01\HF=-309.4539207\RM
 SD=1.061e-09\RMSF=3.333e-06\ZeroPoint=0.1324222\Thermal=0.1370218\Dipo
 le=0.0000027,-0.0000035,0.0000006\DipoleDeriv=0.0794408,-0.067178,-0.0
 431034,-0.0671306,0.030322,0.0301806,-0.0429427,0.0300108,0.0031481,-0
 .0019319,0.0275065,0.0378116,0.0274642,0.0339303,0.0699069,0.0378133,0
 .070027,0.0800129,0.0689512,0.0728795,-0.0350338,0.0729688,0.0446612,-
 0.0300811,-0.0352684,-0.0300669,-0.0021573,0.0030056,-0.0332146,0.0402
 889,-0.0332818,0.0406008,-0.0700148,0.0403976,-0.0699744,0.0684428,0.0
 03008,-0.0332135,0.0402834,-0.0332838,0.0405909,-0.0700074,0.0403981,-
 0.0699726,0.068459,0.0689446,0.0728762,-0.0350405,0.0729716,0.0446667,
 -0.0300738,-0.0352779,-0.0300697,-0.0021449,0.0794321,-0.0671694,-0.04
 3105,-0.0671264,0.0303206,0.0301868,-0.0429402,0.0300178,0.0031413,-0.
 0019334,0.0275143,0.0378024,0.0274687,0.0339433,0.0699111,0.0378084,0.
 0700357,0.0800184,-0.109829,0.1154297,0.0743633,0.1154122,-0.0246069,-
 0.051866,0.0743786,-0.0518398,0.0223992,0.030139,-0.0472524,-0.0653483
 ,-0.0472747,-0.0313306,-0.1205211,-0.0653596,-0.1205274,-0.110897,-0.0
 923579,-0.1254525,0.0609576,-0.1254547,-0.0504936,0.0516813,0.060938,0
 .0516477,0.0306783,0.0225832,0.0572774,-0.069925,0.0572954,-0.0430868,
 0.1207074,-0.0699543,0.1207191,-0.091639,0.0225823,0.0572804,-0.069923
 7,0.0572974,-0.0430801,0.1207025,-0.0699539,0.120718,-0.0916401,-0.092
 3534,-0.1254509,0.060958,-0.1254592,-0.0504962,0.0516791,0.0609429,0.0
 51647,0.0306745,-0.1098202,0.115424,0.0743616,0.1154107,-0.0246074,-0.
 0518692,0.0743781,-0.0518421,0.0224022,0.030139,-0.0472568,-0.0653472,
 -0.0472778,-0.0313343,-0.1205222,-0.0653581,-0.1205303,-0.1108983\Pola
 r=75.1148733,0.001184,75.1173073,-0.0011134,-0.0009533,75.115917\PG=C0
 1 [X(C8H8)]\NImag=0\\0.54202976,-0.14281687,0.43677326,-0.09199765,0.0
 6428517,0.37793293,-0.14024592,-0.00474354,-0.04524685,0.36912621,0.00
 774346,-0.04284923,-0.00655313,0.05806688,0.44526936,-0.03059555,-0.01
 123914,-0.05913865,0.08084892,0.14922814,0.54313162,-0.04993307,0.0129
 0310,0.00679282,-0.03067270,-0.02550497,-0.01378672,0.52059137,-0.0053
 4435,-0.15520329,-0.00066021,-0.02818094,-0.04042223,-0.00950635,0.154
 70843,0.46920261,0.00633590,-0.00853055,-0.03770780,-0.02168900,-0.017
 25855,0.00272514,-0.07545003,-0.06346360,0.36800389,-0.05897646,0.0031
 9625,0.04556312,-0.01898232,0.00201826,-0.02160805,0.00451478,-0.01391
 877,0.01946669,0.37795127,0.00902151,-0.04344006,0.00202935,-0.0024372
 6,0.01042087,-0.00317902,-0.00621895,-0.04253983,0.02969782,-0.0710045
 1,0.45974236,0.03130122,0.01454107,-0.13925698,-0.02218160,0.00716319,
 -0.06013074,0.01191961,0.02649272,-0.03042938,0.08658995,-0.14879817,0
 .51919000,-0.03446335,0.03008042,-0.02043710,-0.03781726,0.00079289,-0
 .00677593,-0.13961137,0.00182899,-0.04541773,-0.00011024,-0.00032625,0
 .00043157,0.37796255,0.02684834,-0.03799156,0.01221789,0.00864077,-0.1
 5503897,0.00451459,-0.01185216,-0.04462451,0.00449739,-0.00032622,0.00
 022752,-0.00070363,-0.07100807,0.45972581,-0.01223107,0.00507853,0.004
 53033,-0.00584936,-0.01370020,-0.04980353,-0.03217277,0.01019943,-0.05
 783620,0.00043159,-0.00070361,0.00063093,0.08659043,-0.14880823,0.5192
 1964,-0.06007697,-0.00858640,0.02158124,-0.05791319,-0.01257044,0.0311
 2321,0.00061812,0.00078573,-0.00038979,-0.13960430,-0.01185228,-0.0321
 7273,0.00451506,-0.00621937,0.01192038,0.52058141,0.00175489,0.0103085
 8,-0.00030634,-0.00797121,-0.04420289,-0.00507320,0.00078581,0.0003717
 1,-0.00033569,0.00182883,-0.04462499,0.01019889,-0.01391989,-0.0425426
 2,0.02649391,0.15471038,0.46920684,0.02183543,0.00422266,-0.01888181,0
 .04492173,0.00851649,-0.13991687,-0.00038977,-0.00033570,-0.00014563,-
 0.04541671,0.00449741,-0.05783710,0.01946779,0.02969985,-0.03042994,-0
 .07545571,-0.06346589,0.36800721,0.00070036,-0.00074324,-0.00047281,0.
 00289084,0.00818672,0.01436778,-0.06007602,0.00175460,0.02183572,-0.03
 446458,0.02684966,-0.01223200,-0.05897782,0.00902151,0.03130616,-0.049
 93284,-0.00534484,0.00633659,0.54203410,-0.00074330,0.00024694,0.00034
 771,0.01536181,-0.03631863,-0.02587802,-0.00858594,0.01030846,0.004223
 10,0.03008237,-0.03799370,0.00507936,0.00319580,-0.04344015,0.01454349
 ,0.01290293,-0.15520212,-0.00853216,-0.14282534,0.43677747,-0.00047284
 ,0.00034778,-0.00008313,0.02277196,-0.02853960,-0.03472149,0.02158118,
 -0.00030615,-0.01888211,-0.02043842,0.01221865,0.00453054,0.04556849,0
 .00203194,-0.13927306,0.00679265,-0.00066126,-0.03770801,-0.09201211,0
 .06428793,0.37795105,0.00289140,0.01536264,0.02277272,-0.00011487,0.00
 031741,0.00044636,-0.05791181,-0.00797076,0.04491923,-0.03781644,0.008
 64016,-0.00584910,-0.01898333,-0.00243721,-0.02218286,-0.03067134,-0.0
 2817972,-0.02168836,-0.14024449,-0.00474239,-0.04524448,0.36912347,0.0
 0818677,-0.03632035,-0.02854124,0.00031741,0.00023069,0.00072519,-0.01
 256990,-0.04420275,0.00851564,0.00079140,-0.15505360,-0.01370016,0.002
 01888,0.01042132,0.00716409,-0.02550325,-0.04042026,-0.01725740,0.0077
 4386,-0.04284959,-0.00655264,0.05806587,0.44528534,0.01436794,-0.02587
 912,-0.03472275,0.00044626,0.00072520,0.00068756,0.03112071,-0.0050739
 6,-0.13991616,-0.00677659,0.00451534,-0.04980279,-0.02160960,-0.003178
 41,-0.06013231,-0.01378600,-0.00950603,0.00272468,-0.03059317,-0.01123
 916,-0.05913752,0.08084924,0.14922728,0.54312728,-0.21011306,0.1135557
 0,0.07318922,-0.00586253,0.01050442,0.01122475,0.00571812,-0.00142634,
 -0.00368532,-0.00213104,0.00013985,-0.00160945,-0.00183234,0.00068342,
 -0.00060899,-0.00361335,-0.00051810,0.00097063,-0.00023221,-0.00009642
 ,-0.00006181,-0.00044748,-0.00107874,-0.00094493,0.21588444,0.11354801
 ,-0.12625541,-0.05099024,-0.00339730,0.00233329,0.00470001,0.01890057,
 -0.00090337,-0.00812258,-0.00626687,0.00307208,-0.00072606,0.00131511,
 -0.00278291,0.00073775,-0.00254106,-0.00113200,0.00110327,-0.00009506,
 -0.00030573,0.00004259,0.00030067,-0.00263836,-0.00142643,-0.12378941,
 0.12448672,0.07319430,-0.05099967,-0.07999826,-0.00520623,0.00990571,0
 .00703216,-0.00319698,0.00066189,-0.00133217,0.01432589,-0.01470293,0.
 00257477,-0.00218548,0.00212046,-0.00183035,0.00092018,0.00022966,-0.0
 0173199,-0.00006136,0.00004305,-0.00034473,0.00068274,-0.00193997,-0.0
 0336984,-0.07977776,0.05559145,0.07405212,0.00375890,-0.01458395,-0.01
 480780,-0.07236612,-0.04652060,-0.06433417,-0.00310953,-0.00198904,-0.
 00066982,-0.00182683,0.00017903,-0.00110610,-0.00077376,0.00066148,0.0
 0461147,0.00590126,0.01017088,0.00498458,-0.00206048,0.00217048,0.0022
 9108,-0.00034910,0.00003982,0.00005450,0.00181600,0.00083701,0.0011974
 4,0.06574105,-0.00067621,0.00187694,0.00517406,-0.04651711,-0.13287545
 ,-0.11859618,-0.00147436,-0.00289737,-0.00036179,0.00104958,-0.0010444
 8,0.00247429,-0.00809251,-0.00139960,-0.01863358,0.00500611,0.00349993
 ,0.00382428,0.00079276,-0.00256024,-0.00114796,0.00003816,-0.00030006,
 0.00009957,-0.00046680,0.00085469,-0.00064998,0.05070141,0.13169292,0.
 00161713,-0.00002031,-0.00213266,-0.06433061,-0.11859737,-0.21119306,0
 .00085403,0.00113762,-0.00044435,-0.00100125,0.00045192,-0.00360634,0.
 00352407,0.00167780,0.00566780,-0.01035725,-0.01128189,-0.00589225,0.0
 0066435,-0.00063780,-0.00183495,0.00005370,0.00010142,-0.00023252,-0.0
 0034332,-0.00016251,0.00093677,0.07012300,0.12928315,0.21705783,0.0069
 1881,0.00234008,-0.00411219,-0.00169880,-0.00057303,-0.00060375,-0.192
 93169,-0.12346681,0.06000355,-0.00051687,0.00131958,-0.00095417,-0.005
 28071,-0.01196901,0.01064971,-0.00024762,0.00010547,-0.00005070,-0.003
 81644,0.00023957,0.00107722,-0.00251493,-0.00036907,-0.00167177,0.0005
 0382,-0.00101974,0.00030053,0.00013753,-0.00078529,0.00029330,0.197152
 22,-0.01798109,-0.00267668,0.00777086,-0.00108633,-0.00267614,-0.00084
 787,-0.12346533,-0.15169067,0.05080402,-0.00018201,-0.00284009,0.00140
 488,0.00319199,0.00293357,-0.00420718,0.00010273,-0.00028299,-0.000042
 38,0.00226065,-0.00083246,-0.00096449,0.00478742,0.00218589,0.00055225
 ,0.00088709,0.00198665,-0.00036569,-0.00108879,-0.00002115,0.00004975,
 0.13457375,0.15220852,-0.00460604,-0.00100819,-0.00075933,-0.00212687,
 -0.00234960,-0.00207581,0.06000359,0.05080469,-0.07182803,0.00051748,0
 .00203527,-0.00309944,-0.00419155,-0.01054024,0.00585743,-0.00004961,-
 0.00004358,-0.00034918,0.00112619,-0.00008986,-0.00182571,0.01366352,0
 .01566225,0.00384184,0.00034704,0.00045786,0.00111884,-0.00060922,-0.0
 0083977,0.00032327,-0.06540677,-0.05537629,0.06514394,0.00697066,-0.01
 026355,0.00439605,-0.00173684,-0.00015445,-0.00094910,-0.00184434,-0.0
 0229496,0.00202981,-0.07980692,0.05636163,-0.06884719,-0.00034251,-0.0
 0004816,0.00005821,0.00260801,0.01575587,-0.01319352,-0.00335188,0.001
 98586,-0.00052689,-0.00129517,-0.00089780,0.00320532,0.00093928,0.0007
 3913,-0.00114047,0.00071372,0.00029798,-0.00070791,0.00038117,-0.00081
 275,0.00052272,0.07384600,-0.00385235,0.00180264,-0.00284050,-0.001025
 59,-0.00090837,-0.00233052,-0.00078875,-0.00292468,0.00123821,0.056363
 21,-0.14438768,0.11877535,-0.00004570,-0.00028900,-0.00009873,0.000595
 18,0.00344101,-0.00578835,0.00135288,-0.00257333,0.00013629,0.00784571
 ,-0.00220916,0.01825665,0.00013680,0.00083011,0.00076510,-0.00021657,0
 .00040787,-0.00058039,0.00008058,-0.00008773,0.00113243,-0.06144987,0.
 14424787,-0.01152787,0.01113458,-0.00525615,-0.00105758,-0.00031005,-0
 .00382944,0.00055663,0.00060981,-0.00168647,-0.06885768,0.11878152,-0.
 19220843,0.00005694,-0.00010103,-0.00025054,0.00165460,0.00053613,-0.0
 0254740,0.00104994,-0.00124801,-0.00052041,0.00429941,-0.00205373,0.00
 699368,0.00035343,-0.00054544,0.00183963,-0.00077160,0.00061370,-0.000
 68087,-0.00035167,0.00075938,0.00014417,0.07505349,-0.12946675,0.19635
 673,-0.00335183,0.00198574,-0.00052706,-0.00129507,-0.00089787,0.00320
 495,0.00260814,0.01575624,-0.01319374,-0.00034254,-0.00004802,0.000058
 00,-0.07981012,0.05636624,-0.06885312,-0.00184444,-0.00229475,0.002029
 60,0.00697074,-0.01026348,0.00439638,-0.00173686,-0.00015452,-0.000949
 18,0.00000065,0.00113886,-0.00057764,0.00111753,0.00039324,-0.00027721
 ,0.00184012,-0.00085399,0.00108034,-0.00003952,0.00010302,-0.00012598,
 0.07384907,0.00135291,-0.00257325,0.00013634,0.00784613,-0.00221007,0.
 01825698,0.00059521,0.00344098,-0.00578862,-0.00004573,-0.00028900,-0.
 00009878,0.05636817,-0.14438673,0.11878155,-0.00078902,-0.00292473,0.0
 0123823,-0.00385227,0.00180264,-0.00284059,-0.00102567,-0.00090841,-0.
 00233064,0.00076211,0.00005607,0.00076902,-0.00042850,0.00198782,-0.00
 090560,0.00056790,0.00076415,0.00072016,0.00010300,-0.00015753,0.00021
 758,-0.06145508,0.14424782,0.00104998,-0.00124812,-0.00052029,0.004299
 35,-0.00205381,0.00699405,0.00165453,0.00053580,-0.00254703,0.00005696
 ,-0.00010112,-0.00025046,-0.06886433,0.11878813,-0.19221906,0.00055663
 ,0.00060965,-0.00168659,-0.01152807,0.01113469,-0.00525642,-0.00105748
 ,-0.00030998,-0.00382953,0.00035890,-0.00005294,0.00038317,-0.00037864
 ,0.00099920,0.00050391,-0.00031236,0.00012607,0.00100336,-0.00012597,0
 .00021759,-0.00024499,0.07506043,-0.12947275,0.19636681,-0.00381653,0.
 00023971,0.00107718,-0.00251496,-0.00036941,-0.00167196,-0.00024764,0.
 00010548,-0.00005069,-0.00528132,-0.01196932,0.01064973,-0.00051700,0.
 00131960,-0.00095405,-0.19292868,-0.12346826,0.06000383,0.00691882,0.0
 0234011,-0.00411253,-0.00169866,-0.00057308,-0.00060369,-0.00067899,-0
 .00066621,0.00072431,0.00099886,-0.00015173,0.00030520,-0.00024653,-0.
 00022598,0.00010956,0.00184017,0.00056785,-0.00031235,0.00038117,0.000
 08056,-0.00035172,0.19715000,0.00226055,-0.00083253,-0.00096442,0.0047
 8731,0.00218605,0.00055237,0.00010268,-0.00028302,-0.00004234,0.003192
 02,0.00293349,-0.00420691,-0.00018201,-0.00283995,0.00140496,-0.123467
 37,-0.15169474,0.05080429,-0.01798089,-0.00267621,0.00777048,-0.001086
 24,-0.00267623,-0.00084773,0.00052838,0.00040399,-0.00024367,-0.000635
 72,0.00079609,0.00048703,-0.00022600,-0.00017096,0.00009327,-0.0008540
 0,0.00076415,0.00012602,-0.00081275,-0.00008779,0.00075939,0.13457575,
 0.15221213,0.00112593,-0.00008973,-0.00182566,0.01366322,0.01566214,0.
 00384146,-0.00004979,-0.00004366,-0.00034912,-0.00419185,-0.01054056,0
 .00585786,0.00051752,0.00203522,-0.00309965,0.06000484,0.05080573,-0.0
 7182863,-0.00460625,-0.00100823,-0.00075923,-0.00212696,-0.00234967,-0
 .00207565,0.00075310,0.00027251,0.00071586,-0.00113353,-0.00093093,0.0
 0181373,0.00010956,0.00009328,-0.00002497,0.00108035,0.00072016,0.0010
 0340,0.00052268,0.00113247,0.00014424,-0.06540664,-0.05537679,0.065144
 26,-0.00023213,-0.00009648,-0.00006187,-0.00044729,-0.00107896,-0.0009
 4511,-0.00361348,-0.00051811,0.00097055,-0.00183227,0.00068355,-0.0006
 0900,-0.00213096,0.00013968,-0.00160963,0.00571836,-0.00142619,-0.0036
 8551,-0.21011706,0.11356227,0.07319795,-0.00586326,0.01050454,0.011225
 01,-0.00027783,0.00020800,0.00013397,0.00032655,-0.00003001,-0.0002994
 8,-0.00067894,0.00052838,0.00075315,0.00000065,0.00076214,0.00035891,0
 .00093928,0.00013685,0.00035344,0.00050381,0.00088706,0.00034708,0.215
 88850,-0.00009507,-0.00030571,0.00004260,0.00030084,-0.00263821,-0.001
 42642,-0.00254112,-0.00113201,0.00110332,0.00131502,-0.00278302,0.0007
 3787,-0.00626735,0.00307229,-0.00072622,0.01890030,-0.00090330,-0.0081
 2265,0.11355513,-0.12626036,-0.05099722,-0.00339723,0.00233340,0.00469
 976,0.00020802,-0.00012422,-0.00009350,0.00078829,0.00011841,-0.000785
 68,-0.00066622,0.00040401,0.00027250,0.00113889,0.00005609,-0.00005290
 ,0.00073918,0.00083014,-0.00054550,-0.00101980,0.00198662,0.00045783,-
 0.12379584,0.12449118,-0.00006117,0.00004288,-0.00034482,0.00068290,-0
 .00194005,-0.00336999,0.00092008,0.00022967,-0.00173185,-0.00218523,0.
 00212035,-0.00183048,0.01432603,-0.01470373,0.00257492,-0.00319678,0.0
 0066216,-0.00133235,0.07320205,-0.05100589,-0.08000237,-0.00520651,0.0
 0990560,0.00703215,0.00013399,-0.00009352,-0.00003960,0.00066657,-0.00
 109092,-0.00000639,0.00072431,-0.00024367,0.00071581,-0.00057765,0.000
 76904,0.00038313,-0.00114048,0.00076507,0.00183964,0.00030054,-0.00036
 571,0.00111880,-0.07978614,0.05559874,0.07405662,-0.00206057,0.0021704
 1,0.00229097,-0.00034917,0.00003970,0.00005437,0.00590113,0.01017063,0
 .00498466,-0.00077390,0.00066162,0.00461124,-0.00182683,0.00017917,-0.
 00110607,-0.00310947,-0.00198917,-0.00066989,0.00375898,-0.01458433,-0
 .01480782,-0.07236713,-0.04652218,-0.06433406,0.00032651,0.00078830,0.
 00066655,-0.00002557,-0.00008523,-0.00011775,0.00099886,-0.00063572,-0
 .00113353,0.00111754,-0.00042853,-0.00037861,0.00071369,-0.00021657,-0
 .00077165,0.00013749,-0.00108876,-0.00060925,0.00181609,0.00083697,0.0
 0119749,0.06574235,0.00079281,-0.00256033,-0.00114790,0.00003814,-0.00
 030009,0.00009945,0.00500569,0.00349998,0.00382424,-0.00809284,-0.0013
 9989,-0.01863390,0.00104955,-0.00104453,0.00247404,-0.00147417,-0.0028
 9745,-0.00036193,-0.00067611,0.00187700,0.00517424,-0.04651883,-0.1328
 7787,-0.11859457,-0.00002998,0.00011839,-0.00109094,-0.00008523,-0.000
 13632,-0.00021716,-0.00015174,0.00079606,-0.00093092,0.00039319,0.0019
 8773,0.00099918,0.00029796,0.00040787,0.00061369,-0.00078525,-0.000021
 11,-0.00083975,-0.00046688,0.00085467,-0.00065003,0.05070369,0.1316958
 9,0.00066435,-0.00063784,-0.00183498,0.00005377,0.00010148,-0.00023240
 ,-0.01035713,-0.01128200,-0.00589272,0.00352409,0.00167777,0.00566803,
 -0.00100113,0.00045201,-0.00360639,0.00085415,0.00113773,-0.00044415,0
 .00161699,-0.00002020,-0.00213245,-0.06433118,-0.11859669,-0.21118811,
 -0.00029948,-0.00078572,-0.00000639,-0.00011774,-0.00021713,-0.0002799
 3,0.00030522,0.00048707,0.00181380,-0.00027724,-0.00090556,0.00050395,
 -0.00070797,-0.00058041,-0.00068082,0.00029327,0.00004976,0.00032330,-
 0.00034333,-0.00016253,0.00093676,0.07012336,0.12928226,0.21705250\\-0
 .00000007,-0.00000320,-0.00000404,-0.00000054,0.00000388,0.00000647,-0
 .00000247,-0.00000062,0.00000610,0.00000431,-0.00000522,-0.00000831,0.
 00000339,-0.00000349,-0.00000199,0.00000634,0.00000046,0.00000360,0.00
 000211,0.00000114,0.00000218,-0.00000443,0.,-0.00000130,-0.00000338,0.
 00000318,-0.00000295,-0.00000299,0.00000042,-0.00000324,0.00000184,0.0
 0000322,-0.00000110,0.00000195,-0.00000141,-0.00000220,-0.00000366,0.0
 0000585,-0.00000108,-0.00000334,-0.00000290,0.00000082,-0.00000145,-0.
 00000062,0.00000385,0.00000241,-0.00000070,0.00000318\\\@


 NO SCIENCE HAS EVER MADE MORE RAPID PROGRESS IN A
 SHORTER TIME THAN CHEMISTRY.
   -- MARTIN HEINRICH KLOPROTH, 1791
 (FIRST PROFESSOR OF CHEMISTRY AT THE UNIVERSITY OF BERLIN)
 Job cpu time:       0 days  1 hours  5 minutes 36.6 seconds.
 File lengths (MBytes):  RWF=     77 Int=      0 D2E=      0 Chk=      5 Scr=      1
 Normal termination of Gaussian 09 at Sun Apr 26 03:34:40 2015.
