 Entering Gaussian System, Link 0=g09
 Input=0_0freq-b971_41487-78-9.gau
 Output=0_0freq-b971_41487-78-9.log
 Initial command:
 /opt/g09/l1.exe "/scratch/pb556/g09_run/add_hco//Gau-2730.inp" -scrdir="/scratch/pb556/g09_run/add_hco//"
 Entering Link 1 = /opt/g09/l1.exe PID=      2739.
  
 Copyright (c) 1988,1990,1992,1993,1995,1998,2003,2009,2013,
            Gaussian, Inc.  All Rights Reserved.
  
 This is part of the Gaussian(R) 09 program.  It is based on
 the Gaussian(R) 03 system (copyright 2003, Gaussian, Inc.),
 the Gaussian(R) 98 system (copyright 1998, Gaussian, Inc.),
 the Gaussian(R) 94 system (copyright 1995, Gaussian, Inc.),
 the Gaussian 92(TM) system (copyright 1992, Gaussian, Inc.),
 the Gaussian 90(TM) system (copyright 1990, Gaussian, Inc.),
 the Gaussian 88(TM) system (copyright 1988, Gaussian, Inc.),
 the Gaussian 86(TM) system (copyright 1986, Carnegie Mellon
 University), and the Gaussian 82(TM) system (copyright 1983,
 Carnegie Mellon University). Gaussian is a federally registered
 trademark of Gaussian, Inc.
  
 This software contains proprietary and confidential information,
 including trade secrets, belonging to Gaussian, Inc.
  
 This software is provided under written license and may be
 used, copied, transmitted, or stored only in accord with that
 written license.
  
 The following legend is applicable only to US Government
 contracts under FAR:
  
                    RESTRICTED RIGHTS LEGEND
  
 Use, reproduction and disclosure by the US Government is
 subject to restrictions as set forth in subparagraphs (a)
 and (c) of the Commercial Computer Software - Restricted
 Rights clause in FAR 52.227-19.
  
 Gaussian, Inc.
 340 Quinnipiac St., Bldg. 40, Wallingford CT 06492
  
  
 ---------------------------------------------------------------
 Warning -- This program may not be used in any manner that
 competes with the business of Gaussian, Inc. or will provide
 assistance to any competitor of Gaussian, Inc.  The licensee
 of this program is prohibited from giving any competitor of
 Gaussian, Inc. access to this program.  By using this program,
 the user acknowledges that Gaussian, Inc. is engaged in the
 business of creating and licensing software in the field of
 computational chemistry and represents and warrants to the
 licensee that it is not a competitor of Gaussian, Inc. and that
 it will not use this program in any manner prohibited above.
 ---------------------------------------------------------------
  

 Cite this work as:
 Gaussian 09, Revision D.01,
 M. J. Frisch, G. W. Trucks, H. B. Schlegel, G. E. Scuseria, 
 M. A. Robb, J. R. Cheeseman, G. Scalmani, V. Barone, B. Mennucci, 
 G. A. Petersson, H. Nakatsuji, M. Caricato, X. Li, H. P. Hratchian, 
 A. F. Izmaylov, J. Bloino, G. Zheng, J. L. Sonnenberg, M. Hada, 
 M. Ehara, K. Toyota, R. Fukuda, J. Hasegawa, M. Ishida, T. Nakajima, 
 Y. Honda, O. Kitao, H. Nakai, T. Vreven, J. A. Montgomery, Jr., 
 J. E. Peralta, F. Ogliaro, M. Bearpark, J. J. Heyd, E. Brothers, 
 K. N. Kudin, V. N. Staroverov, T. Keith, R. Kobayashi, J. Normand, 
 K. Raghavachari, A. Rendell, J. C. Burant, S. S. Iyengar, J. Tomasi, 
 M. Cossi, N. Rega, J. M. Millam, M. Klene, J. E. Knox, J. B. Cross, 
 V. Bakken, C. Adamo, J. Jaramillo, R. Gomperts, R. E. Stratmann, 
 O. Yazyev, A. J. Austin, R. Cammi, C. Pomelli, J. W. Ochterski, 
 R. L. Martin, K. Morokuma, V. G. Zakrzewski, G. A. Voth, 
 P. Salvador, J. J. Dannenberg, S. Dapprich, A. D. Daniels, 
 O. Farkas, J. B. Foresman, J. V. Ortiz, J. Cioslowski, 
 and D. J. Fox, Gaussian, Inc., Wallingford CT, 2013.
 
 ******************************************
 Gaussian 09:  ES64L-G09RevD.01 24-Apr-2013
                26-Apr-2015 
 ******************************************
 %NProcShared=8
 Will use up to    8 processors via shared memory.
 %Mem=500MW
 ----------------------------------------------------------------------
 #p rB971/6-311+G(d,p) Opt=(Tight, CalcAll) Freq GFInput Population=Non
 e Integral(Grid=UltraFine) Guess=MIX NoSymmetry
 ----------------------------------------------------------------------
 1/7=10,10=4,14=-1,18=20,19=15,26=4,38=1/1,3;
 2/9=110,12=2,15=1,17=6,18=5,40=1/2;
 3/5=4,6=6,7=111,11=2,16=1,24=10,25=1,30=1,71=2,74=-20,75=-5,116=1,140=1/1,2,3;
 4/13=-1/1;
 5/5=2,38=5/2;
 8/6=4,10=90,11=11/1;
 11/6=1,8=1,9=11,15=111,16=1,31=1/1,2,10;
 10/6=1,31=1/2;
 7/10=1,25=1,30=1/1,2,3,16;
 1/7=10,10=4,14=-1,18=20,19=15,26=4/3(3);
 2/9=110,15=1/2;
 7/8=1,9=1,25=1,30=1,44=-1/16;
 99//99;
 2/9=110,15=1/2;
 3/5=4,6=6,7=111,11=2,16=1,25=1,30=1,71=2,74=-20,75=-5,116=1,140=1/1,2,3;
 4/5=5,16=3,69=1/1;
 5/5=2,38=5/2;
 8/6=4,10=90,11=11/1;
 11/6=1,8=1,9=11,15=111,16=1,31=1/1,2,10;
 10/6=1,31=1/2;
 7/10=1,25=1,30=1/1,2,3,16;
 1/7=10,10=4,14=-1,18=20,19=15,26=4/3(-8);
 2/9=110,15=1/2;
 7/8=1,9=1,25=1,30=1,44=-1/16;
 99//99;
 Leave Link    1 at Sun Apr 26 08:25:02 2015, MaxMem=   524288000 cpu:         0.6
 (Enter /opt/g09/l101.exe)
 ------------------------
 freq-b971_41487-78-9.gau
 ------------------------
 Symbolic Z-matrix:
 Charge =  0 Multiplicity = 1
 C                     0.82373   2.54294   0.82471 
 C                     0.71255   3.16341   2.30009 
 C                     2.3061    2.30495   1.18836 
 C                     2.2143    2.81739   2.40689 
 C                     3.47809   2.15548   2.96738 
 C                     3.5938    1.51008   1.43279 
 C                     4.9004    2.7568    2.76126 
 C                     3.45436   0.67248   2.68194 
 C                     5.00837   2.15412   1.32884 
 H                     0.21898   1.63728   0.70075 
 H                     0.61768   3.22631  -0.00524 
 H                     0.43933   4.22163   2.3615 
 H                     0.04926   2.58442   2.95287 
 H                     4.88544   3.84774   2.76588 
 H                     5.64358   2.4188    3.49223 
 H                     4.3158    0.08151   2.99544 
 H                     2.50483   0.16681   2.82307 
 H                     5.81935   1.43691   1.15906 
 H                     5.05294   2.91433   0.5475 
 
 NAtoms=     19 NQM=       19 NQMF=       0 NMMI=      0 NMMIF=      0
                NMic=       0 NMicF=      0.
                    Isotopes and Nuclear Properties:
 (Nuclear quadrupole moments (NQMom) in fm**2, nuclear magnetic moments (NMagM)
  in nuclear magnetons)

  Atom         1           2           3           4           5           6           7           8           9          10
 IAtWgt=          12          12          12          12          12          12          12          12          12           1
 AtmWgt=  12.0000000  12.0000000  12.0000000  12.0000000  12.0000000  12.0000000  12.0000000  12.0000000  12.0000000   1.0078250
 NucSpn=           0           0           0           0           0           0           0           0           0           1
 AtZEff=   0.0000000   0.0000000   0.0000000   0.0000000   0.0000000   0.0000000   0.0000000   0.0000000   0.0000000   0.0000000
 NQMom=    0.0000000   0.0000000   0.0000000   0.0000000   0.0000000   0.0000000   0.0000000   0.0000000   0.0000000   0.0000000
 NMagM=    0.0000000   0.0000000   0.0000000   0.0000000   0.0000000   0.0000000   0.0000000   0.0000000   0.0000000   2.7928460
 AtZNuc=   6.0000000   6.0000000   6.0000000   6.0000000   6.0000000   6.0000000   6.0000000   6.0000000   6.0000000   1.0000000

  Atom        11          12          13          14          15          16          17          18          19
 IAtWgt=           1           1           1           1           1           1           1           1           1
 AtmWgt=   1.0078250   1.0078250   1.0078250   1.0078250   1.0078250   1.0078250   1.0078250   1.0078250   1.0078250
 NucSpn=           1           1           1           1           1           1           1           1           1
 AtZEff=   0.0000000   0.0000000   0.0000000   0.0000000   0.0000000   0.0000000   0.0000000   0.0000000   0.0000000
 NQMom=    0.0000000   0.0000000   0.0000000   0.0000000   0.0000000   0.0000000   0.0000000   0.0000000   0.0000000
 NMagM=    2.7928460   2.7928460   2.7928460   2.7928460   2.7928460   2.7928460   2.7928460   2.7928460   2.7928460
 AtZNuc=   1.0000000   1.0000000   1.0000000   1.0000000   1.0000000   1.0000000   1.0000000   1.0000000   1.0000000
 Leave Link  101 at Sun Apr 26 08:25:03 2015, MaxMem=   524288000 cpu:         2.0
 (Enter /opt/g09/l103.exe)

 GradGradGradGradGradGradGradGradGradGradGradGradGradGradGradGradGradGrad
 Berny optimization.
 Initialization pass.
                           ----------------------------
                           !    Initial Parameters    !
                           ! (Angstroms and Degrees)  !
 --------------------------                            --------------------------
 ! Name  Definition              Value          Derivative Info.                !
 --------------------------------------------------------------------------------
 ! R1    R(1,2)                  1.6044         calculate D2E/DX2 analytically  !
 ! R2    R(1,3)                  1.5448         calculate D2E/DX2 analytically  !
 ! R3    R(1,10)                 1.096          calculate D2E/DX2 analytically  !
 ! R4    R(1,11)                 1.0947         calculate D2E/DX2 analytically  !
 ! R5    R(2,4)                  1.5448         calculate D2E/DX2 analytically  !
 ! R6    R(2,12)                 1.0946         calculate D2E/DX2 analytically  !
 ! R7    R(2,13)                 1.096          calculate D2E/DX2 analytically  !
 ! R8    R(3,4)                  1.3251         calculate D2E/DX2 analytically  !
 ! R9    R(3,6)                  1.5329         calculate D2E/DX2 analytically  !
 ! R10   R(4,5)                  1.5328         calculate D2E/DX2 analytically  !
 ! R11   R(5,6)                  1.6688         calculate D2E/DX2 analytically  !
 ! R12   R(5,7)                  1.5579         calculate D2E/DX2 analytically  !
 ! R13   R(5,8)                  1.5104         calculate D2E/DX2 analytically  !
 ! R14   R(6,8)                  1.5104         calculate D2E/DX2 analytically  !
 ! R15   R(6,9)                  1.5578         calculate D2E/DX2 analytically  !
 ! R16   R(7,9)                  1.5578         calculate D2E/DX2 analytically  !
 ! R17   R(7,14)                 1.0911         calculate D2E/DX2 analytically  !
 ! R18   R(7,15)                 1.0958         calculate D2E/DX2 analytically  !
 ! R19   R(8,16)                 1.0907         calculate D2E/DX2 analytically  !
 ! R20   R(8,17)                 1.085          calculate D2E/DX2 analytically  !
 ! R21   R(9,18)                 1.0959         calculate D2E/DX2 analytically  !
 ! R22   R(9,19)                 1.0911         calculate D2E/DX2 analytically  !
 ! A1    A(2,1,3)               84.8134         calculate D2E/DX2 analytically  !
 ! A2    A(2,1,10)             112.6638         calculate D2E/DX2 analytically  !
 ! A3    A(2,1,11)             116.279          calculate D2E/DX2 analytically  !
 ! A4    A(3,1,10)             115.391          calculate D2E/DX2 analytically  !
 ! A5    A(3,1,11)             117.0836         calculate D2E/DX2 analytically  !
 ! A6    A(10,1,11)            109.0404         calculate D2E/DX2 analytically  !
 ! A7    A(1,2,4)               84.8125         calculate D2E/DX2 analytically  !
 ! A8    A(1,2,12)             116.2793         calculate D2E/DX2 analytically  !
 ! A9    A(1,2,13)             112.6642         calculate D2E/DX2 analytically  !
 ! A10   A(4,2,12)             117.0843         calculate D2E/DX2 analytically  !
 ! A11   A(4,2,13)             115.3918         calculate D2E/DX2 analytically  !
 ! A12   A(12,2,13)            109.0393         calculate D2E/DX2 analytically  !
 ! A13   A(1,3,4)               95.1877         calculate D2E/DX2 analytically  !
 ! A14   A(1,3,6)              157.4499         calculate D2E/DX2 analytically  !
 ! A15   A(4,3,6)               96.4362         calculate D2E/DX2 analytically  !
 ! A16   A(2,4,3)               95.1863         calculate D2E/DX2 analytically  !
 ! A17   A(2,4,5)              157.4489         calculate D2E/DX2 analytically  !
 ! A18   A(3,4,5)               96.4388         calculate D2E/DX2 analytically  !
 ! A19   A(4,5,6)               83.5647         calculate D2E/DX2 analytically  !
 ! A20   A(4,5,7)              122.5263         calculate D2E/DX2 analytically  !
 ! A21   A(4,5,8)              109.9951         calculate D2E/DX2 analytically  !
 ! A22   A(6,5,7)               87.9546         calculate D2E/DX2 analytically  !
 ! A23   A(7,5,8)              111.612          calculate D2E/DX2 analytically  !
 ! A24   A(3,6,5)               83.5603         calculate D2E/DX2 analytically  !
 ! A25   A(3,6,8)              109.9914         calculate D2E/DX2 analytically  !
 ! A26   A(3,6,9)              122.5344         calculate D2E/DX2 analytically  !
 ! A27   A(5,6,9)               87.9617         calculate D2E/DX2 analytically  !
 ! A28   A(8,6,9)              111.6103         calculate D2E/DX2 analytically  !
 ! A29   A(5,7,9)               92.0406         calculate D2E/DX2 analytically  !
 ! A30   A(5,7,14)             111.8924         calculate D2E/DX2 analytically  !
 ! A31   A(5,7,15)             114.3212         calculate D2E/DX2 analytically  !
 ! A32   A(9,7,14)             113.0594         calculate D2E/DX2 analytically  !
 ! A33   A(9,7,15)             116.5528         calculate D2E/DX2 analytically  !
 ! A34   A(14,7,15)            108.3536         calculate D2E/DX2 analytically  !
 ! A35   A(5,8,16)             117.7278         calculate D2E/DX2 analytically  !
 ! A36   A(5,8,17)             116.5364         calculate D2E/DX2 analytically  !
 ! A37   A(6,8,16)             117.7275         calculate D2E/DX2 analytically  !
 ! A38   A(6,8,17)             116.5394         calculate D2E/DX2 analytically  !
 ! A39   A(16,8,17)            113.6586         calculate D2E/DX2 analytically  !
 ! A40   A(6,9,7)               92.0432         calculate D2E/DX2 analytically  !
 ! A41   A(6,9,18)             114.3161         calculate D2E/DX2 analytically  !
 ! A42   A(6,9,19)             111.898          calculate D2E/DX2 analytically  !
 ! A43   A(7,9,18)             116.5486         calculate D2E/DX2 analytically  !
 ! A44   A(7,9,19)             113.0644         calculate D2E/DX2 analytically  !
 ! A45   A(18,9,19)            108.3508         calculate D2E/DX2 analytically  !
 ! D1    D(3,1,2,4)             -0.0002         calculate D2E/DX2 analytically  !
 ! D2    D(3,1,2,12)           117.7127         calculate D2E/DX2 analytically  !
 ! D3    D(3,1,2,13)          -115.3847         calculate D2E/DX2 analytically  !
 ! D4    D(10,1,2,4)           115.3838         calculate D2E/DX2 analytically  !
 ! D5    D(10,1,2,12)         -126.9033         calculate D2E/DX2 analytically  !
 ! D6    D(10,1,2,13)           -0.0007         calculate D2E/DX2 analytically  !
 ! D7    D(11,1,2,4)          -117.7128         calculate D2E/DX2 analytically  !
 ! D8    D(11,1,2,12)            0.0002         calculate D2E/DX2 analytically  !
 ! D9    D(11,1,2,13)          126.9027         calculate D2E/DX2 analytically  !
 ! D10   D(2,1,3,4)              0.0002         calculate D2E/DX2 analytically  !
 ! D11   D(2,1,3,6)            120.8076         calculate D2E/DX2 analytically  !
 ! D12   D(10,1,3,4)          -112.6556         calculate D2E/DX2 analytically  !
 ! D13   D(10,1,3,6)             8.1518         calculate D2E/DX2 analytically  !
 ! D14   D(11,1,3,4)           116.9301         calculate D2E/DX2 analytically  !
 ! D15   D(11,1,3,6)          -122.2625         calculate D2E/DX2 analytically  !
 ! D16   D(1,2,4,3)              0.0002         calculate D2E/DX2 analytically  !
 ! D17   D(1,2,4,5)           -120.8097         calculate D2E/DX2 analytically  !
 ! D18   D(12,2,4,3)          -116.9296         calculate D2E/DX2 analytically  !
 ! D19   D(12,2,4,5)           122.2604         calculate D2E/DX2 analytically  !
 ! D20   D(13,2,4,3)           112.6562         calculate D2E/DX2 analytically  !
 ! D21   D(13,2,4,5)            -8.1538         calculate D2E/DX2 analytically  !
 ! D22   D(1,3,4,2)             -0.0002         calculate D2E/DX2 analytically  !
 ! D23   D(1,3,4,5)            160.6415         calculate D2E/DX2 analytically  !
 ! D24   D(6,3,4,2)           -160.6424         calculate D2E/DX2 analytically  !
 ! D25   D(6,3,4,5)             -0.0007         calculate D2E/DX2 analytically  !
 ! D26   D(1,3,6,5)           -120.5927         calculate D2E/DX2 analytically  !
 ! D27   D(1,3,6,8)            -69.8391         calculate D2E/DX2 analytically  !
 ! D28   D(1,3,6,9)            155.9797         calculate D2E/DX2 analytically  !
 ! D29   D(4,3,6,5)              0.0006         calculate D2E/DX2 analytically  !
 ! D30   D(4,3,6,8)             50.7543         calculate D2E/DX2 analytically  !
 ! D31   D(4,3,6,9)            -83.427          calculate D2E/DX2 analytically  !
 ! D32   D(2,4,5,6)            120.5959         calculate D2E/DX2 analytically  !
 ! D33   D(2,4,5,7)           -155.9806         calculate D2E/DX2 analytically  !
 ! D34   D(2,4,5,8)             69.84           calculate D2E/DX2 analytically  !
 ! D35   D(3,4,5,6)              0.0006         calculate D2E/DX2 analytically  !
 ! D36   D(3,4,5,7)             83.4242         calculate D2E/DX2 analytically  !
 ! D37   D(3,4,5,8)            -50.7553         calculate D2E/DX2 analytically  !
 ! D38   D(4,5,6,3)             -0.0006         calculate D2E/DX2 analytically  !
 ! D39   D(4,5,6,9)            123.0638         calculate D2E/DX2 analytically  !
 ! D40   D(7,5,6,3)           -123.0573         calculate D2E/DX2 analytically  !
 ! D41   D(7,5,6,9)              0.0071         calculate D2E/DX2 analytically  !
 ! D42   D(4,5,7,9)            -81.0443         calculate D2E/DX2 analytically  !
 ! D43   D(4,5,7,14)            34.85           calculate D2E/DX2 analytically  !
 ! D44   D(4,5,7,15)           158.4933         calculate D2E/DX2 analytically  !
 ! D45   D(6,5,7,9)             -0.0071         calculate D2E/DX2 analytically  !
 ! D46   D(6,5,7,14)           115.8872         calculate D2E/DX2 analytically  !
 ! D47   D(6,5,7,15)          -120.4695         calculate D2E/DX2 analytically  !
 ! D48   D(8,5,7,9)             52.4958         calculate D2E/DX2 analytically  !
 ! D49   D(8,5,7,14)           168.3901         calculate D2E/DX2 analytically  !
 ! D50   D(8,5,7,15)           -67.9666         calculate D2E/DX2 analytically  !
 ! D51   D(4,5,8,16)           177.7904         calculate D2E/DX2 analytically  !
 ! D52   D(4,5,8,17)           -41.9262         calculate D2E/DX2 analytically  !
 ! D53   D(7,5,8,16)            38.3617         calculate D2E/DX2 analytically  !
 ! D54   D(7,5,8,17)           178.6451         calculate D2E/DX2 analytically  !
 ! D55   D(3,6,8,16)          -177.787          calculate D2E/DX2 analytically  !
 ! D56   D(3,6,8,17)            41.9256         calculate D2E/DX2 analytically  !
 ! D57   D(9,6,8,16)           -38.3518         calculate D2E/DX2 analytically  !
 ! D58   D(9,6,8,17)          -178.6392         calculate D2E/DX2 analytically  !
 ! D59   D(3,6,9,7)             81.0283         calculate D2E/DX2 analytically  !
 ! D60   D(3,6,9,18)          -158.5141         calculate D2E/DX2 analytically  !
 ! D61   D(3,6,9,19)           -34.874          calculate D2E/DX2 analytically  !
 ! D62   D(5,6,9,7)             -0.0071         calculate D2E/DX2 analytically  !
 ! D63   D(5,6,9,18)           120.4504         calculate D2E/DX2 analytically  !
 ! D64   D(5,6,9,19)          -115.9094         calculate D2E/DX2 analytically  !
 ! D65   D(8,6,9,7)            -52.5129         calculate D2E/DX2 analytically  !
 ! D66   D(8,6,9,18)            67.9446         calculate D2E/DX2 analytically  !
 ! D67   D(8,6,9,19)          -168.4152         calculate D2E/DX2 analytically  !
 ! D68   D(5,7,9,6)              0.0076         calculate D2E/DX2 analytically  !
 ! D69   D(5,7,9,18)          -118.575          calculate D2E/DX2 analytically  !
 ! D70   D(5,7,9,19)           114.8931         calculate D2E/DX2 analytically  !
 ! D71   D(14,7,9,6)          -114.8692         calculate D2E/DX2 analytically  !
 ! D72   D(14,7,9,18)          126.5482         calculate D2E/DX2 analytically  !
 ! D73   D(14,7,9,19)            0.0163         calculate D2E/DX2 analytically  !
 ! D74   D(15,7,9,6)           118.5959         calculate D2E/DX2 analytically  !
 ! D75   D(15,7,9,18)            0.0133         calculate D2E/DX2 analytically  !
 ! D76   D(15,7,9,19)         -126.5186         calculate D2E/DX2 analytically  !
 --------------------------------------------------------------------------------
 Trust Radius=3.00D-01 FncErr=1.00D-07 GrdErr=1.00D-06
 Number of steps in this run=    114 maximum allowed number of steps=    114.
 GradGradGradGradGradGradGradGradGradGradGradGradGradGradGradGradGradGrad

 Leave Link  103 at Sun Apr 26 08:25:03 2015, MaxMem=   524288000 cpu:         0.1
 (Enter /opt/g09/l202.exe)
                          Input orientation:                          
 ---------------------------------------------------------------------
 Center     Atomic      Atomic             Coordinates (Angstroms)
 Number     Number       Type             X           Y           Z
 ---------------------------------------------------------------------
      1          6           0        0.823730    2.542940    0.824710
      2          6           0        0.712550    3.163410    2.300090
      3          6           0        2.306100    2.304950    1.188360
      4          6           0        2.214300    2.817390    2.406890
      5          6           0        3.478090    2.155480    2.967380
      6          6           0        3.593800    1.510080    1.432790
      7          6           0        4.900400    2.756800    2.761260
      8          6           0        3.454360    0.672480    2.681940
      9          6           0        5.008370    2.154120    1.328840
     10          1           0        0.218980    1.637280    0.700750
     11          1           0        0.617680    3.226310   -0.005240
     12          1           0        0.439330    4.221630    2.361500
     13          1           0        0.049260    2.584420    2.952870
     14          1           0        4.885440    3.847740    2.765880
     15          1           0        5.643580    2.418800    3.492230
     16          1           0        4.315800    0.081510    2.995440
     17          1           0        2.504830    0.166810    2.823070
     18          1           0        5.819350    1.436910    1.159060
     19          1           0        5.052940    2.914330    0.547500
 ---------------------------------------------------------------------
                    Distance matrix (angstroms):
                    1          2          3          4          5
     1  C    0.000000
     2  C    1.604397   0.000000
     3  C    1.544766   2.124217   0.000000
     4  C    2.124218   1.544794   1.325080   0.000000
     5  C    3.433189   3.018180   2.135606   1.532788   0.000000
     6  C    3.018253   3.433265   1.532885   2.135638   1.668801
     7  C    4.518318   4.232741   3.067340   2.710052   1.557895
     8  C    3.723995   3.723985   2.492838   2.492798   1.510407
     9  C    4.232793   4.518414   2.710119   3.067401   2.242002
    10  H    1.096042   2.265077   2.244909   2.878346   4.003491
    11  H    1.094654   2.308138   2.263702   2.921435   4.262053
    12  H    2.308135   1.094646   2.921429   2.263729   3.724262
    13  H    2.265080   1.096040   2.878355   2.244943   3.455586
    14  H    4.687017   4.254207   3.394373   2.885391   2.210199
    15  H    5.510175   5.127446   4.057037   3.618950   2.243692
    16  H    4.792208   4.792184   3.499731   3.499676   2.236939
    17  H    3.530656   3.530636   2.698780   2.698738   2.218754
    18  H    5.127505   5.510187   3.619016   4.056993   3.044316
    19  H    4.254526   4.687494   2.885685   3.394791   2.985268
                    6          7          8          9         10
     6  C    0.000000
     7  C    2.241952   0.000000
     8  C    1.510428   2.538053   0.000000
     9  C    1.557755   1.557789   2.537929   0.000000
    10  H    3.455644   5.235907   3.914542   4.857970   0.000000
    11  H    3.724334   5.120122   4.667948   4.712485   1.783928
    12  H    4.262122   4.712396   4.667928   5.120265   3.079855
    13  H    4.003575   4.857982   3.914540   5.235972   2.449066
    14  H    2.984982   1.091052   3.483865   2.224532   5.561182
    15  H    3.044448   1.095846   2.915285   2.270199   6.150563
    16  H    2.236956   2.748413   1.090691   2.748258   4.946712
    17  H    2.218808   3.528544   1.085001   3.528433   3.448425
    18  H    2.243514   2.270159   2.914909   1.095858   5.622663
    19  H    2.210146   2.224594   3.483846   1.091054   5.002151
                   11         12         13         14         15
    11  H    0.000000
    12  H    2.573699   0.000000
    13  H    3.079860   1.783909   0.000000
    14  H    5.126310   4.480091   5.001958   0.000000
    15  H    6.176086   5.622541   5.622700   1.773198   0.000000
    16  H    5.707008   5.706969   4.946689   3.815976   2.733628
    17  H    4.573971   4.573937   3.448407   4.384042   3.920585
    18  H    5.622714   6.176175   6.150486   3.044037   2.537456
    19  H    4.480445   5.126892   5.561606   2.412575   3.043984
                   16         17         18         19
    16  H    0.000000
    17  H    1.821153   0.000000
    18  H    2.733142   3.920220   0.000000
    19  H    3.815843   4.384056   1.773178   0.000000
 Symmetry turned off by external request.
 Stoichiometry    C9H10
 Framework group  C1[X(C9H10)]
 Deg. of freedom    51
 Full point group                 C1      NOp   1
 Rotational constants (GHZ):      3.8751226      1.3839432      1.3500856
 Leave Link  202 at Sun Apr 26 08:25:03 2015, MaxMem=   524288000 cpu:         0.0
 (Enter /opt/g09/l301.exe)
 Standard basis: 6-311+G(d,p) (5D, 7F)
 Ernie: Thresh=  0.10000D-02 Tol=  0.10000D-05 Strict=F.
 AO basis set in the form of general basis input (Overlap normalization):
      1 0
 S   6 1.00       0.000000000000
      0.4563240000D+04  0.1966650249D-02
      0.6820240000D+03  0.1523060193D-01
      0.1549730000D+03  0.7612690966D-01
      0.4445530000D+02  0.2608010331D+00
      0.1302900000D+02  0.6164620782D+00
      0.1827730000D+01  0.2210060280D+00
 SP   3 1.00       0.000000000000
      0.2096420000D+02  0.1146600807D+00  0.4024869267D-01
      0.4803310000D+01  0.9199996477D+00  0.2375939567D+00
      0.1459330000D+01 -0.3030682134D-02  0.8158538515D+00
 SP   1 1.00       0.000000000000
      0.4834560000D+00  0.1000000000D+01  0.1000000000D+01
 SP   1 1.00       0.000000000000
      0.1455850000D+00  0.1000000000D+01  0.1000000000D+01
 SP   1 1.00       0.000000000000
      0.4380000000D-01  0.1000000000D+01  0.1000000000D+01
 D   1 1.00       0.000000000000
      0.6260000000D+00  0.1000000000D+01
 ****
      2 0
 S   6 1.00       0.000000000000
      0.4563240000D+04  0.1966650249D-02
      0.6820240000D+03  0.1523060193D-01
      0.1549730000D+03  0.7612690966D-01
      0.4445530000D+02  0.2608010331D+00
      0.1302900000D+02  0.6164620782D+00
      0.1827730000D+01  0.2210060280D+00
 SP   3 1.00       0.000000000000
      0.2096420000D+02  0.1146600807D+00  0.4024869267D-01
      0.4803310000D+01  0.9199996477D+00  0.2375939567D+00
      0.1459330000D+01 -0.3030682134D-02  0.8158538515D+00
 SP   1 1.00       0.000000000000
      0.4834560000D+00  0.1000000000D+01  0.1000000000D+01
 SP   1 1.00       0.000000000000
      0.1455850000D+00  0.1000000000D+01  0.1000000000D+01
 SP   1 1.00       0.000000000000
      0.4380000000D-01  0.1000000000D+01  0.1000000000D+01
 D   1 1.00       0.000000000000
      0.6260000000D+00  0.1000000000D+01
 ****
      3 0
 S   6 1.00       0.000000000000
      0.4563240000D+04  0.1966650249D-02
      0.6820240000D+03  0.1523060193D-01
      0.1549730000D+03  0.7612690966D-01
      0.4445530000D+02  0.2608010331D+00
      0.1302900000D+02  0.6164620782D+00
      0.1827730000D+01  0.2210060280D+00
 SP   3 1.00       0.000000000000
      0.2096420000D+02  0.1146600807D+00  0.4024869267D-01
      0.4803310000D+01  0.9199996477D+00  0.2375939567D+00
      0.1459330000D+01 -0.3030682134D-02  0.8158538515D+00
 SP   1 1.00       0.000000000000
      0.4834560000D+00  0.1000000000D+01  0.1000000000D+01
 SP   1 1.00       0.000000000000
      0.1455850000D+00  0.1000000000D+01  0.1000000000D+01
 SP   1 1.00       0.000000000000
      0.4380000000D-01  0.1000000000D+01  0.1000000000D+01
 D   1 1.00       0.000000000000
      0.6260000000D+00  0.1000000000D+01
 ****
      4 0
 S   6 1.00       0.000000000000
      0.4563240000D+04  0.1966650249D-02
      0.6820240000D+03  0.1523060193D-01
      0.1549730000D+03  0.7612690966D-01
      0.4445530000D+02  0.2608010331D+00
      0.1302900000D+02  0.6164620782D+00
      0.1827730000D+01  0.2210060280D+00
 SP   3 1.00       0.000000000000
      0.2096420000D+02  0.1146600807D+00  0.4024869267D-01
      0.4803310000D+01  0.9199996477D+00  0.2375939567D+00
      0.1459330000D+01 -0.3030682134D-02  0.8158538515D+00
 SP   1 1.00       0.000000000000
      0.4834560000D+00  0.1000000000D+01  0.1000000000D+01
 SP   1 1.00       0.000000000000
      0.1455850000D+00  0.1000000000D+01  0.1000000000D+01
 SP   1 1.00       0.000000000000
      0.4380000000D-01  0.1000000000D+01  0.1000000000D+01
 D   1 1.00       0.000000000000
      0.6260000000D+00  0.1000000000D+01
 ****
      5 0
 S   6 1.00       0.000000000000
      0.4563240000D+04  0.1966650249D-02
      0.6820240000D+03  0.1523060193D-01
      0.1549730000D+03  0.7612690966D-01
      0.4445530000D+02  0.2608010331D+00
      0.1302900000D+02  0.6164620782D+00
      0.1827730000D+01  0.2210060280D+00
 SP   3 1.00       0.000000000000
      0.2096420000D+02  0.1146600807D+00  0.4024869267D-01
      0.4803310000D+01  0.9199996477D+00  0.2375939567D+00
      0.1459330000D+01 -0.3030682134D-02  0.8158538515D+00
 SP   1 1.00       0.000000000000
      0.4834560000D+00  0.1000000000D+01  0.1000000000D+01
 SP   1 1.00       0.000000000000
      0.1455850000D+00  0.1000000000D+01  0.1000000000D+01
 SP   1 1.00       0.000000000000
      0.4380000000D-01  0.1000000000D+01  0.1000000000D+01
 D   1 1.00       0.000000000000
      0.6260000000D+00  0.1000000000D+01
 ****
      6 0
 S   6 1.00       0.000000000000
      0.4563240000D+04  0.1966650249D-02
      0.6820240000D+03  0.1523060193D-01
      0.1549730000D+03  0.7612690966D-01
      0.4445530000D+02  0.2608010331D+00
      0.1302900000D+02  0.6164620782D+00
      0.1827730000D+01  0.2210060280D+00
 SP   3 1.00       0.000000000000
      0.2096420000D+02  0.1146600807D+00  0.4024869267D-01
      0.4803310000D+01  0.9199996477D+00  0.2375939567D+00
      0.1459330000D+01 -0.3030682134D-02  0.8158538515D+00
 SP   1 1.00       0.000000000000
      0.4834560000D+00  0.1000000000D+01  0.1000000000D+01
 SP   1 1.00       0.000000000000
      0.1455850000D+00  0.1000000000D+01  0.1000000000D+01
 SP   1 1.00       0.000000000000
      0.4380000000D-01  0.1000000000D+01  0.1000000000D+01
 D   1 1.00       0.000000000000
      0.6260000000D+00  0.1000000000D+01
 ****
      7 0
 S   6 1.00       0.000000000000
      0.4563240000D+04  0.1966650249D-02
      0.6820240000D+03  0.1523060193D-01
      0.1549730000D+03  0.7612690966D-01
      0.4445530000D+02  0.2608010331D+00
      0.1302900000D+02  0.6164620782D+00
      0.1827730000D+01  0.2210060280D+00
 SP   3 1.00       0.000000000000
      0.2096420000D+02  0.1146600807D+00  0.4024869267D-01
      0.4803310000D+01  0.9199996477D+00  0.2375939567D+00
      0.1459330000D+01 -0.3030682134D-02  0.8158538515D+00
 SP   1 1.00       0.000000000000
      0.4834560000D+00  0.1000000000D+01  0.1000000000D+01
 SP   1 1.00       0.000000000000
      0.1455850000D+00  0.1000000000D+01  0.1000000000D+01
 SP   1 1.00       0.000000000000
      0.4380000000D-01  0.1000000000D+01  0.1000000000D+01
 D   1 1.00       0.000000000000
      0.6260000000D+00  0.1000000000D+01
 ****
      8 0
 S   6 1.00       0.000000000000
      0.4563240000D+04  0.1966650249D-02
      0.6820240000D+03  0.1523060193D-01
      0.1549730000D+03  0.7612690966D-01
      0.4445530000D+02  0.2608010331D+00
      0.1302900000D+02  0.6164620782D+00
      0.1827730000D+01  0.2210060280D+00
 SP   3 1.00       0.000000000000
      0.2096420000D+02  0.1146600807D+00  0.4024869267D-01
      0.4803310000D+01  0.9199996477D+00  0.2375939567D+00
      0.1459330000D+01 -0.3030682134D-02  0.8158538515D+00
 SP   1 1.00       0.000000000000
      0.4834560000D+00  0.1000000000D+01  0.1000000000D+01
 SP   1 1.00       0.000000000000
      0.1455850000D+00  0.1000000000D+01  0.1000000000D+01
 SP   1 1.00       0.000000000000
      0.4380000000D-01  0.1000000000D+01  0.1000000000D+01
 D   1 1.00       0.000000000000
      0.6260000000D+00  0.1000000000D+01
 ****
      9 0
 S   6 1.00       0.000000000000
      0.4563240000D+04  0.1966650249D-02
      0.6820240000D+03  0.1523060193D-01
      0.1549730000D+03  0.7612690966D-01
      0.4445530000D+02  0.2608010331D+00
      0.1302900000D+02  0.6164620782D+00
      0.1827730000D+01  0.2210060280D+00
 SP   3 1.00       0.000000000000
      0.2096420000D+02  0.1146600807D+00  0.4024869267D-01
      0.4803310000D+01  0.9199996477D+00  0.2375939567D+00
      0.1459330000D+01 -0.3030682134D-02  0.8158538515D+00
 SP   1 1.00       0.000000000000
      0.4834560000D+00  0.1000000000D+01  0.1000000000D+01
 SP   1 1.00       0.000000000000
      0.1455850000D+00  0.1000000000D+01  0.1000000000D+01
 SP   1 1.00       0.000000000000
      0.4380000000D-01  0.1000000000D+01  0.1000000000D+01
 D   1 1.00       0.000000000000
      0.6260000000D+00  0.1000000000D+01
 ****
     10 0
 S   3 1.00       0.000000000000
      0.3386500000D+02  0.2549381454D-01
      0.5094790000D+01  0.1903731086D+00
      0.1158790000D+01  0.8521614860D+00
 S   1 1.00       0.000000000000
      0.3258400000D+00  0.1000000000D+01
 S   1 1.00       0.000000000000
      0.1027410000D+00  0.1000000000D+01
 P   1 1.00       0.000000000000
      0.7500000000D+00  0.1000000000D+01
 ****
     11 0
 S   3 1.00       0.000000000000
      0.3386500000D+02  0.2549381454D-01
      0.5094790000D+01  0.1903731086D+00
      0.1158790000D+01  0.8521614860D+00
 S   1 1.00       0.000000000000
      0.3258400000D+00  0.1000000000D+01
 S   1 1.00       0.000000000000
      0.1027410000D+00  0.1000000000D+01
 P   1 1.00       0.000000000000
      0.7500000000D+00  0.1000000000D+01
 ****
     12 0
 S   3 1.00       0.000000000000
      0.3386500000D+02  0.2549381454D-01
      0.5094790000D+01  0.1903731086D+00
      0.1158790000D+01  0.8521614860D+00
 S   1 1.00       0.000000000000
      0.3258400000D+00  0.1000000000D+01
 S   1 1.00       0.000000000000
      0.1027410000D+00  0.1000000000D+01
 P   1 1.00       0.000000000000
      0.7500000000D+00  0.1000000000D+01
 ****
     13 0
 S   3 1.00       0.000000000000
      0.3386500000D+02  0.2549381454D-01
      0.5094790000D+01  0.1903731086D+00
      0.1158790000D+01  0.8521614860D+00
 S   1 1.00       0.000000000000
      0.3258400000D+00  0.1000000000D+01
 S   1 1.00       0.000000000000
      0.1027410000D+00  0.1000000000D+01
 P   1 1.00       0.000000000000
      0.7500000000D+00  0.1000000000D+01
 ****
     14 0
 S   3 1.00       0.000000000000
      0.3386500000D+02  0.2549381454D-01
      0.5094790000D+01  0.1903731086D+00
      0.1158790000D+01  0.8521614860D+00
 S   1 1.00       0.000000000000
      0.3258400000D+00  0.1000000000D+01
 S   1 1.00       0.000000000000
      0.1027410000D+00  0.1000000000D+01
 P   1 1.00       0.000000000000
      0.7500000000D+00  0.1000000000D+01
 ****
     15 0
 S   3 1.00       0.000000000000
      0.3386500000D+02  0.2549381454D-01
      0.5094790000D+01  0.1903731086D+00
      0.1158790000D+01  0.8521614860D+00
 S   1 1.00       0.000000000000
      0.3258400000D+00  0.1000000000D+01
 S   1 1.00       0.000000000000
      0.1027410000D+00  0.1000000000D+01
 P   1 1.00       0.000000000000
      0.7500000000D+00  0.1000000000D+01
 ****
     16 0
 S   3 1.00       0.000000000000
      0.3386500000D+02  0.2549381454D-01
      0.5094790000D+01  0.1903731086D+00
      0.1158790000D+01  0.8521614860D+00
 S   1 1.00       0.000000000000
      0.3258400000D+00  0.1000000000D+01
 S   1 1.00       0.000000000000
      0.1027410000D+00  0.1000000000D+01
 P   1 1.00       0.000000000000
      0.7500000000D+00  0.1000000000D+01
 ****
     17 0
 S   3 1.00       0.000000000000
      0.3386500000D+02  0.2549381454D-01
      0.5094790000D+01  0.1903731086D+00
      0.1158790000D+01  0.8521614860D+00
 S   1 1.00       0.000000000000
      0.3258400000D+00  0.1000000000D+01
 S   1 1.00       0.000000000000
      0.1027410000D+00  0.1000000000D+01
 P   1 1.00       0.000000000000
      0.7500000000D+00  0.1000000000D+01
 ****
     18 0
 S   3 1.00       0.000000000000
      0.3386500000D+02  0.2549381454D-01
      0.5094790000D+01  0.1903731086D+00
      0.1158790000D+01  0.8521614860D+00
 S   1 1.00       0.000000000000
      0.3258400000D+00  0.1000000000D+01
 S   1 1.00       0.000000000000
      0.1027410000D+00  0.1000000000D+01
 P   1 1.00       0.000000000000
      0.7500000000D+00  0.1000000000D+01
 ****
     19 0
 S   3 1.00       0.000000000000
      0.3386500000D+02  0.2549381454D-01
      0.5094790000D+01  0.1903731086D+00
      0.1158790000D+01  0.8521614860D+00
 S   1 1.00       0.000000000000
      0.3258400000D+00  0.1000000000D+01
 S   1 1.00       0.000000000000
      0.1027410000D+00  0.1000000000D+01
 P   1 1.00       0.000000000000
      0.7500000000D+00  0.1000000000D+01
 ****

   258 basis functions,   404 primitive gaussians,   267 cartesian basis functions
    32 alpha electrons       32 beta electrons
       nuclear repulsion energy       425.3578698466 Hartrees.
 IExCor= 1614 DFT=T Ex+Corr=B971 ExCW=0 ScaHFX=  0.210000
 ScaDFX=  1.000000  1.000000  1.000000  1.000000 ScalE2=  1.000000  1.000000
 IRadAn=      5 IRanWt=     -1 IRanGd=            0 ICorTp=0 IEmpDi=  4
 NAtoms=   19 NActive=   19 NUniq=   19 SFac= 1.00D+00 NAtFMM=   60 NAOKFM=F Big=F
 Integral buffers will be    131072 words long.
 Raffenetti 2 integral format.
 Two-electron integral symmetry is turned off.
 Leave Link  301 at Sun Apr 26 08:25:03 2015, MaxMem=   524288000 cpu:         0.4
 (Enter /opt/g09/l302.exe)
 NPDir=0 NMtPBC=     1 NCelOv=     1 NCel=       1 NClECP=     1 NCelD=      1
         NCelK=      1 NCelE2=     1 NClLst=     1 CellRange=     0.0.
 One-electron integrals computed using PRISM.
 NBasis=   258 RedAO= T EigKep=  2.75D-06  NBF=   258
 NBsUse=   258 1.00D-06 EigRej= -1.00D+00 NBFU=   258
 Precomputing XC quadrature grid using
 IXCGrd= 4 IRadAn=           5 IRanWt=          -1 IRanGd=           0 AccXCQ= 0.00D+00.
 Generated NRdTot=       0 NPtTot=           0 NUsed=           0 NTot=          32
 NSgBfM=   267   267   267   267   267 MxSgAt=    19 MxSgA2=    19.
 Leave Link  302 at Sun Apr 26 08:25:03 2015, MaxMem=   524288000 cpu:         3.0
 (Enter /opt/g09/l303.exe)
 DipDrv:  MaxL=1.
 Leave Link  303 at Sun Apr 26 08:25:03 2015, MaxMem=   524288000 cpu:         0.4
 (Enter /opt/g09/l401.exe)
 ExpMin= 4.38D-02 ExpMax= 4.56D+03 ExpMxC= 6.82D+02 IAcc=3 IRadAn=         5 AccDes= 0.00D+00
 Harris functional with IExCor= 1614 and IRadAn=       5 diagonalized for initial guess.
 HarFok:  IExCor= 1614 AccDes= 0.00D+00 IRadAn=         5 IDoV= 1 UseB2=F ITyADJ=14
 ICtDFT=  3500011 ScaDFX=  1.000000  1.000000  1.000000  1.000000
 FoFCou: FMM=F IPFlag=           0 FMFlag=      100000 FMFlg1=           0
         NFxFlg=           0 DoJE=T BraDBF=F KetDBF=T FulRan=T
         wScrn=  0.000000 ICntrl=     500 IOpCl=  0 I1Cent=   200000004 NGrid=           0
         NMat0=    1 NMatS0=      1 NMatT0=    0 NMatD0=    1 NMtDS0=    0 NMtDT0=    0
 Symmetry not used in FoFCou.
 Harris En= -338.385283233769    
 JPrj=0 DoOrth=F DoCkMO=T.
 Mixing orbitals, IMix= 1 IMixAn=  0 NRI=1 NE=   32 Coef=  7.07106781D-01  7.07106781D-01
 Leave Link  401 at Sun Apr 26 08:25:06 2015, MaxMem=   524288000 cpu:        20.8
 (Enter /opt/g09/l502.exe)
 Closed shell SCF:
 Using DIIS extrapolation, IDIIS=  1040.
 Two-electron integral symmetry not used.
 IVT=      236193 IEndB=      236193 NGot=   524288000 MDV=   524140004
 LenX=   524140004 LenY=   524068274
 Requested convergence on RMS density matrix=1.00D-08 within 128 cycles.
 Requested convergence on MAX density matrix=1.00D-06.
 Requested convergence on             energy=1.00D-06.
 No special actions if energy rises.
 Fock matrices will be formed incrementally for  20 cycles.

 Cycle   1  Pass 1  IDiag  1:
 FoFJK:  IHMeth= 1 ICntrl=       0 DoSepK=F KAlg= 0 I1Cent=   0 FoldK=F
 IRaf= 950000000 NMat=   1 IRICut=       1 DoRegI=T DoRafI=F ISym2E= 0.
 FoFCou: FMM=F IPFlag=           0 FMFlag=      100000 FMFlg1=           0
         NFxFlg=           0 DoJE=F BraDBF=F KetDBF=F FulRan=T
         wScrn=  0.000000 ICntrl=       0 IOpCl=  0 I1Cent=           0 NGrid=           0
         NMat0=    1 NMatS0=      1 NMatT0=    0 NMatD0=    1 NMtDS0=    0 NMtDT0=    0
 Symmetry not used in FoFCou.
 E= -348.416837696003    
 DIIS: error= 6.53D-02 at cycle   1 NSaved=   1.
 NSaved= 1 IEnMin= 1 EnMin= -348.416837696003     IErMin= 1 ErrMin= 6.53D-02
 ErrMax= 6.53D-02  0.00D+00 EMaxC= 1.00D-01 BMatC= 7.17D-01 BMatP= 7.17D-01
 IDIUse=3 WtCom= 3.47D-01 WtEn= 6.53D-01
 Coeff-Com:  0.100D+01
 Coeff-En:   0.100D+01
 Coeff:      0.100D+01
 Gap=     0.027 Goal=   None    Shift=    0.000
 GapD=    0.027 DampG=0.250 DampE=0.500 DampFc=0.2500 IDamp=-1.
 Damping current iteration by 2.50D-01
 RMSDP=2.65D-02 MaxDP=2.23D+00              OVMax= 4.77D-01

 Cycle   2  Pass 1  IDiag  1:
 RMSU=  3.25D-03    CP:  8.73D-01
 E= -348.503748296856     Delta-E=       -0.086910600853 Rises=F Damp=T
 DIIS: error= 4.92D-02 at cycle   2 NSaved=   2.
 NSaved= 2 IEnMin= 2 EnMin= -348.503748296856     IErMin= 2 ErrMin= 4.92D-02
 ErrMax= 4.92D-02  0.00D+00 EMaxC= 1.00D-01 BMatC= 3.54D-01 BMatP= 7.17D-01
 IDIUse=3 WtCom= 5.08D-01 WtEn= 4.92D-01
 Coeff-Com: -0.157D+01 0.257D+01
 Coeff-En:   0.000D+00 0.100D+01
 Coeff:     -0.797D+00 0.180D+01
 Gap=     0.263 Goal=   None    Shift=    0.000
 RMSDP=1.38D-02 MaxDP=1.19D+00 DE=-8.69D-02 OVMax= 1.97D-01

 Cycle   3  Pass 1  IDiag  1:
 RMSU=  6.20D-03    CP:  6.08D-01  1.73D+00
 E= -348.699292168462     Delta-E=       -0.195543871606 Rises=F Damp=F
 DIIS: error= 7.30D-03 at cycle   3 NSaved=   3.
 NSaved= 3 IEnMin= 3 EnMin= -348.699292168462     IErMin= 3 ErrMin= 7.30D-03
 ErrMax= 7.30D-03  0.00D+00 EMaxC= 1.00D-01 BMatC= 1.84D-02 BMatP= 3.54D-01
 IDIUse=3 WtCom= 9.27D-01 WtEn= 7.30D-02
 Coeff-Com: -0.461D+00 0.682D+00 0.779D+00
 Coeff-En:   0.000D+00 0.000D+00 0.100D+01
 Coeff:     -0.427D+00 0.632D+00 0.795D+00
 Gap=     0.184 Goal=   None    Shift=    0.000
 RMSDP=3.45D-03 MaxDP=2.43D-01 DE=-1.96D-01 OVMax= 1.33D-01

 Cycle   4  Pass 1  IDiag  1:
 RMSU=  3.28D-03    CP:  6.12D-01  2.00D+00  9.09D-01
 E= -348.700553490604     Delta-E=       -0.001261322142 Rises=F Damp=F
 DIIS: error= 9.93D-03 at cycle   4 NSaved=   4.
 NSaved= 4 IEnMin= 4 EnMin= -348.700553490604     IErMin= 3 ErrMin= 7.30D-03
 ErrMax= 9.93D-03  0.00D+00 EMaxC= 1.00D-01 BMatC= 1.87D-02 BMatP= 1.84D-02
 IDIUse=3 WtCom= 9.01D-01 WtEn= 9.93D-02
 Coeff-Com: -0.224D+00 0.329D+00 0.530D+00 0.365D+00
 Coeff-En:   0.000D+00 0.000D+00 0.486D+00 0.514D+00
 Coeff:     -0.202D+00 0.296D+00 0.525D+00 0.380D+00
 Gap=     0.194 Goal=   None    Shift=    0.000
 RMSDP=1.76D-03 MaxDP=1.22D-01 DE=-1.26D-03 OVMax= 6.46D-02

 Cycle   5  Pass 1  IDiag  1:
 RMSU=  1.13D-03    CP:  6.02D-01  1.95D+00  9.49D-01  6.22D-01
 E= -348.718528388473     Delta-E=       -0.017974897869 Rises=F Damp=F
 DIIS: error= 2.39D-03 at cycle   5 NSaved=   5.
 NSaved= 5 IEnMin= 5 EnMin= -348.718528388473     IErMin= 5 ErrMin= 2.39D-03
 ErrMax= 2.39D-03  0.00D+00 EMaxC= 1.00D-01 BMatC= 1.06D-03 BMatP= 1.84D-02
 IDIUse=3 WtCom= 9.76D-01 WtEn= 2.39D-02
 Coeff-Com: -0.665D-01 0.996D-01 0.233D+00 0.231D+00 0.504D+00
 Coeff-En:   0.000D+00 0.000D+00 0.000D+00 0.000D+00 0.100D+01
 Coeff:     -0.649D-01 0.972D-01 0.227D+00 0.225D+00 0.516D+00
 Gap=     0.194 Goal=   None    Shift=    0.000
 RMSDP=6.91D-04 MaxDP=5.57D-02 DE=-1.80D-02 OVMax= 1.67D-02

 Cycle   6  Pass 1  IDiag  1:
 RMSU=  5.40D-04    CP:  6.02D-01  1.92D+00  9.78D-01  6.81D-01  7.12D-01
 E= -348.719563884898     Delta-E=       -0.001035496425 Rises=F Damp=F
 DIIS: error= 6.60D-04 at cycle   6 NSaved=   6.
 NSaved= 6 IEnMin= 6 EnMin= -348.719563884898     IErMin= 6 ErrMin= 6.60D-04
 ErrMax= 6.60D-04  0.00D+00 EMaxC= 1.00D-01 BMatC= 1.02D-04 BMatP= 1.06D-03
 IDIUse=3 WtCom= 9.93D-01 WtEn= 6.60D-03
 Coeff-Com:  0.111D-01-0.153D-01 0.152D-01 0.409D-01 0.274D+00 0.674D+00
 Coeff-En:   0.000D+00 0.000D+00 0.000D+00 0.000D+00 0.272D-01 0.973D+00
 Coeff:      0.110D-01-0.152D-01 0.151D-01 0.406D-01 0.273D+00 0.676D+00
 Gap=     0.195 Goal=   None    Shift=    0.000
 RMSDP=2.09D-04 MaxDP=1.42D-02 DE=-1.04D-03 OVMax= 8.69D-03

 Cycle   7  Pass 1  IDiag  1:
 RMSU=  1.52D-04    CP:  6.04D-01  1.92D+00  9.80D-01  7.11D-01  7.82D-01
                    CP:  9.54D-01
 E= -348.719696770160     Delta-E=       -0.000132885262 Rises=F Damp=F
 DIIS: error= 1.70D-04 at cycle   7 NSaved=   7.
 NSaved= 7 IEnMin= 7 EnMin= -348.719696770160     IErMin= 7 ErrMin= 1.70D-04
 ErrMax= 1.70D-04  0.00D+00 EMaxC= 1.00D-01 BMatC= 9.17D-06 BMatP= 1.02D-04
 IDIUse=3 WtCom= 9.98D-01 WtEn= 1.70D-03
 Coeff-Com:  0.102D-01-0.149D-01-0.189D-01-0.138D-01 0.412D-01 0.279D+00
 Coeff-Com:  0.717D+00
 Coeff-En:   0.000D+00 0.000D+00 0.000D+00 0.000D+00 0.000D+00 0.000D+00
 Coeff-En:   0.100D+01
 Coeff:      0.102D-01-0.149D-01-0.189D-01-0.138D-01 0.412D-01 0.279D+00
 Coeff:      0.717D+00
 Gap=     0.196 Goal=   None    Shift=    0.000
 RMSDP=1.08D-04 MaxDP=1.09D-02 DE=-1.33D-04 OVMax= 2.79D-03

 Cycle   8  Pass 1  IDiag  1:
 RMSU=  5.78D-05    CP:  6.03D-01  1.93D+00  9.82D-01  7.25D-01  8.07D-01
                    CP:  1.05D+00  9.74D-01
 E= -348.719708130747     Delta-E=       -0.000011360587 Rises=F Damp=F
 DIIS: error= 8.50D-05 at cycle   8 NSaved=   8.
 NSaved= 8 IEnMin= 8 EnMin= -348.719708130747     IErMin= 8 ErrMin= 8.50D-05
 ErrMax= 8.50D-05  0.00D+00 EMaxC= 1.00D-01 BMatC= 2.53D-06 BMatP= 9.17D-06
 IDIUse=1 WtCom= 1.00D+00 WtEn= 0.00D+00
 Coeff-Com:  0.202D-02-0.320D-02-0.101D-01-0.136D-01-0.207D-01 0.477D-01
 Coeff-Com:  0.410D+00 0.588D+00
 Coeff:      0.202D-02-0.320D-02-0.101D-01-0.136D-01-0.207D-01 0.477D-01
 Coeff:      0.410D+00 0.588D+00
 Gap=     0.195 Goal=   None    Shift=    0.000
 RMSDP=3.09D-05 MaxDP=2.17D-03 DE=-1.14D-05 OVMax= 1.14D-03

 Cycle   9  Pass 1  IDiag  1:
 RMSU=  2.16D-05    CP:  6.03D-01  1.93D+00  9.82D-01  7.25D-01  8.06D-01
                    CP:  1.08D+00  1.03D+00  7.84D-01
 E= -348.719710993451     Delta-E=       -0.000002862704 Rises=F Damp=F
 DIIS: error= 1.87D-05 at cycle   9 NSaved=   9.
 NSaved= 9 IEnMin= 9 EnMin= -348.719710993451     IErMin= 9 ErrMin= 1.87D-05
 ErrMax= 1.87D-05  0.00D+00 EMaxC= 1.00D-01 BMatC= 1.50D-07 BMatP= 2.53D-06
 IDIUse=1 WtCom= 1.00D+00 WtEn= 0.00D+00
 Coeff-Com: -0.500D-03 0.609D-03-0.202D-02-0.401D-02-0.109D-01-0.913D-02
 Coeff-Com:  0.847D-01 0.248D+00 0.693D+00
 Coeff:     -0.500D-03 0.609D-03-0.202D-02-0.401D-02-0.109D-01-0.913D-02
 Coeff:      0.847D-01 0.248D+00 0.693D+00
 Gap=     0.195 Goal=   None    Shift=    0.000
 RMSDP=9.54D-06 MaxDP=7.72D-04 DE=-2.86D-06 OVMax= 2.37D-04

 Cycle  10  Pass 1  IDiag  1:
 RMSU=  5.50D-06    CP:  6.03D-01  1.93D+00  9.83D-01  7.25D-01  8.05D-01
                    CP:  1.08D+00  1.07D+00  8.34D-01  9.46D-01
 E= -348.719711170970     Delta-E=       -0.000000177519 Rises=F Damp=F
 DIIS: error= 5.99D-06 at cycle  10 NSaved=  10.
 NSaved=10 IEnMin=10 EnMin= -348.719711170970     IErMin=10 ErrMin= 5.99D-06
 ErrMax= 5.99D-06  0.00D+00 EMaxC= 1.00D-01 BMatC= 1.36D-08 BMatP= 1.50D-07
 IDIUse=1 WtCom= 1.00D+00 WtEn= 0.00D+00
 Coeff-Com: -0.303D-03 0.408D-03-0.297D-03-0.842D-03-0.301D-02-0.719D-02
 Coeff-Com:  0.763D-02 0.675D-01 0.300D+00 0.636D+00
 Coeff:     -0.303D-03 0.408D-03-0.297D-03-0.842D-03-0.301D-02-0.719D-02
 Coeff:      0.763D-02 0.675D-01 0.300D+00 0.636D+00
 Gap=     0.195 Goal=   None    Shift=    0.000
 RMSDP=3.76D-06 MaxDP=3.80D-04 DE=-1.78D-07 OVMax= 6.90D-05

 Cycle  11  Pass 1  IDiag  1:
 RMSU=  1.85D-06    CP:  6.03D-01  1.93D+00  9.82D-01  7.25D-01  8.05D-01
                    CP:  1.08D+00  1.07D+00  8.50D-01  9.88D-01  7.52D-01
 E= -348.719711184856     Delta-E=       -0.000000013886 Rises=F Damp=F
 DIIS: error= 3.70D-06 at cycle  11 NSaved=  11.
 NSaved=11 IEnMin=11 EnMin= -348.719711184856     IErMin=11 ErrMin= 3.70D-06
 ErrMax= 3.70D-06  0.00D+00 EMaxC= 1.00D-01 BMatC= 2.62D-09 BMatP= 1.36D-08
 IDIUse=1 WtCom= 1.00D+00 WtEn= 0.00D+00
 Coeff-Com: -0.904D-04 0.130D-03 0.160D-03 0.160D-03-0.115D-04-0.276D-02
 Coeff-Com: -0.878D-02-0.195D-02 0.537D-01 0.330D+00 0.629D+00
 Coeff:     -0.904D-04 0.130D-03 0.160D-03 0.160D-03-0.115D-04-0.276D-02
 Coeff:     -0.878D-02-0.195D-02 0.537D-01 0.330D+00 0.629D+00
 Gap=     0.195 Goal=   None    Shift=    0.000
 RMSDP=1.30D-06 MaxDP=1.25D-04 DE=-1.39D-08 OVMax= 2.10D-05

 Cycle  12  Pass 1  IDiag  1:
 RMSU=  4.79D-07    CP:  6.03D-01  1.93D+00  9.82D-01  7.25D-01  8.05D-01
                    CP:  1.08D+00  1.07D+00  8.59D-01  9.98D-01  8.02D-01
                    CP:  8.16D-01
 E= -348.719711187598     Delta-E=       -0.000000002742 Rises=F Damp=F
 DIIS: error= 8.45D-07 at cycle  12 NSaved=  12.
 NSaved=12 IEnMin=12 EnMin= -348.719711187598     IErMin=12 ErrMin= 8.45D-07
 ErrMax= 8.45D-07  0.00D+00 EMaxC= 1.00D-01 BMatC= 1.48D-10 BMatP= 2.62D-09
 IDIUse=1 WtCom= 1.00D+00 WtEn= 0.00D+00
 Coeff-Com: -0.213D-05 0.554D-05 0.777D-04 0.132D-03 0.248D-03-0.525D-03
 Coeff-Com: -0.420D-02-0.717D-02-0.222D-02 0.824D-01 0.264D+00 0.667D+00
 Coeff:     -0.213D-05 0.554D-05 0.777D-04 0.132D-03 0.248D-03-0.525D-03
 Coeff:     -0.420D-02-0.717D-02-0.222D-02 0.824D-01 0.264D+00 0.667D+00
 Gap=     0.195 Goal=   None    Shift=    0.000
 RMSDP=3.24D-07 MaxDP=1.83D-05 DE=-2.74D-09 OVMax= 4.73D-06

 Cycle  13  Pass 1  IDiag  1:
 RMSU=  1.41D-07    CP:  6.03D-01  1.93D+00  9.82D-01  7.25D-01  8.05D-01
                    CP:  1.08D+00  1.07D+00  8.57D-01  1.00D+00  8.17D-01
                    CP:  8.34D-01  8.55D-01
 E= -348.719711187741     Delta-E=       -0.000000000143 Rises=F Damp=F
 DIIS: error= 1.51D-07 at cycle  13 NSaved=  13.
 NSaved=13 IEnMin=13 EnMin= -348.719711187741     IErMin=13 ErrMin= 1.51D-07
 ErrMax= 1.51D-07  0.00D+00 EMaxC= 1.00D-01 BMatC= 5.76D-12 BMatP= 1.48D-10
 IDIUse=1 WtCom= 1.00D+00 WtEn= 0.00D+00
 Coeff-Com:  0.386D-05-0.476D-05 0.149D-04 0.326D-04 0.762D-04-0.347D-04
 Coeff-Com: -0.811D-03-0.227D-02-0.222D-02 0.867D-02 0.500D-01 0.210D+00
 Coeff-Com:  0.737D+00
 Coeff:      0.386D-05-0.476D-05 0.149D-04 0.326D-04 0.762D-04-0.347D-04
 Coeff:     -0.811D-03-0.227D-02-0.222D-02 0.867D-02 0.500D-01 0.210D+00
 Coeff:      0.737D+00
 Gap=     0.195 Goal=   None    Shift=    0.000
 RMSDP=6.47D-08 MaxDP=3.95D-06 DE=-1.43D-10 OVMax= 7.12D-07

 Cycle  14  Pass 1  IDiag  1:
 RMSU=  3.99D-08    CP:  6.03D-01  1.93D+00  9.82D-01  7.25D-01  8.05D-01
                    CP:  1.08D+00  1.07D+00  8.57D-01  1.01D+00  8.15D-01
                    CP:  8.45D-01  8.95D-01  9.09D-01
 E= -348.719711187753     Delta-E=       -0.000000000012 Rises=F Damp=F
 DIIS: error= 7.54D-08 at cycle  14 NSaved=  14.
 NSaved=14 IEnMin=14 EnMin= -348.719711187753     IErMin=14 ErrMin= 7.54D-08
 ErrMax= 7.54D-08  0.00D+00 EMaxC= 1.00D-01 BMatC= 1.01D-12 BMatP= 5.76D-12
 IDIUse=1 WtCom= 1.00D+00 WtEn= 0.00D+00
 Coeff-Com:  0.104D-05-0.136D-05 0.102D-05 0.368D-05 0.123D-04 0.268D-04
 Coeff-Com:  0.449D-04-0.385D-03-0.615D-03-0.452D-02-0.373D-02 0.289D-01
 Coeff-Com:  0.336D+00 0.645D+00
 Coeff:      0.104D-05-0.136D-05 0.102D-05 0.368D-05 0.123D-04 0.268D-04
 Coeff:      0.449D-04-0.385D-03-0.615D-03-0.452D-02-0.373D-02 0.289D-01
 Coeff:      0.336D+00 0.645D+00
 Gap=     0.195 Goal=   None    Shift=    0.000
 RMSDP=2.44D-08 MaxDP=1.86D-06 DE=-1.22D-11 OVMax= 2.59D-07

 Cycle  15  Pass 1  IDiag  1:
 RMSU=  1.24D-08    CP:  6.03D-01  1.93D+00  9.82D-01  7.25D-01  8.05D-01
                    CP:  1.08D+00  1.07D+00  8.57D-01  1.01D+00  8.15D-01
                    CP:  8.45D-01  9.05D-01  9.56D-01  8.52D-01
 E= -348.719711187740     Delta-E=        0.000000000013 Rises=F Damp=F
 DIIS: error= 1.28D-08 at cycle  15 NSaved=  15.
 NSaved=15 IEnMin=14 EnMin= -348.719711187753     IErMin=15 ErrMin= 1.28D-08
 ErrMax= 1.28D-08  0.00D+00 EMaxC= 1.00D-01 BMatC= 5.44D-14 BMatP= 1.01D-12
 IDIUse=1 WtCom= 1.00D+00 WtEn= 0.00D+00
 Coeff-Com:  0.184D-06-0.269D-06-0.901D-06-0.104D-05-0.808D-07 0.124D-04
 Coeff-Com:  0.888D-04 0.162D-04-0.481D-04-0.247D-02-0.511D-02-0.447D-02
 Coeff-Com:  0.770D-01 0.248D+00 0.687D+00
 Coeff:      0.184D-06-0.269D-06-0.901D-06-0.104D-05-0.808D-07 0.124D-04
 Coeff:      0.888D-04 0.162D-04-0.481D-04-0.247D-02-0.511D-02-0.447D-02
 Coeff:      0.770D-01 0.248D+00 0.687D+00
 Gap=     0.195 Goal=   None    Shift=    0.000
 RMSDP=5.47D-09 MaxDP=3.31D-07 DE= 1.33D-11 OVMax= 6.69D-08

 SCF Done:  E(RB971) =  -348.719711188     A.U. after   15 cycles
            NFock= 15  Conv=0.55D-08     -V/T= 2.0042
 KE= 3.472532547720D+02 PE=-1.659254796893D+03 EE= 5.379239610865D+02
 Leave Link  502 at Sun Apr 26 08:26:30 2015, MaxMem=   524288000 cpu:       669.0
 (Enter /opt/g09/l801.exe)
 DoSCS=F DFT=T ScalE2(SS,OS)=  1.000000  1.000000
 Range of M.O.s used for correlation:     1   258
 NBasis=   258 NAE=    32 NBE=    32 NFC=     0 NFV=     0
 NROrb=    258 NOA=    32 NOB=    32 NVA=   226 NVB=   226

 **** Warning!!: The largest alpha MO coefficient is  0.11589922D+03

 Leave Link  801 at Sun Apr 26 08:26:31 2015, MaxMem=   524288000 cpu:         0.3
 (Enter /opt/g09/l1101.exe)
 Using compressed storage, NAtomX=    19.
 Will process     20 centers per pass.
 Leave Link 1101 at Sun Apr 26 08:26:31 2015, MaxMem=   524288000 cpu:         3.3
 (Enter /opt/g09/l1102.exe)
 Symmetrizing basis deriv contribution to polar:
 IMax=3 JMax=2 DiffMx= 0.00D+00
 Leave Link 1102 at Sun Apr 26 08:26:31 2015, MaxMem=   524288000 cpu:         0.4
 (Enter /opt/g09/l1110.exe)
 Forming Gx(P) for the SCF density, NAtomX=    19.
 Integral derivatives from FoFJK, PRISM(SPDF).
 Do as many integral derivatives as possible in FoFJK.
 G2DrvN: MDV=     524287744.
 G2DrvN: will do    20 centers at a time, making    1 passes.
 Calling FoFCou, ICntrl=  3107 FMM=F I1Cent=   0 AccDes= 0.00D+00.
 FoFJK:  IHMeth= 1 ICntrl=    3107 DoSepK=F KAlg= 0 I1Cent=   0 FoldK=F
 IRaf=         0 NMat=   1 IRICut=       1 DoRegI=T DoRafI=F ISym2E= 0.
 FoFCou: FMM=F IPFlag=           0 FMFlag=      100000 FMFlg1=           0
         NFxFlg=           0 DoJE=F BraDBF=F KetDBF=F FulRan=T
         wScrn=  0.000000 ICntrl=    3107 IOpCl=  0 I1Cent=           0 NGrid=           0
         NMat0=    1 NMatS0=      1 NMatT0=    0 NMatD0=    1 NMtDS0=    0 NMtDT0=    0
 Symmetry not used in FoFCou.
 End of G2Drv F.D. properties file   721 does not exist.
 End of G2Drv F.D. properties file   722 does not exist.
 End of G2Drv F.D. properties file   788 does not exist.
 Leave Link 1110 at Sun Apr 26 08:29:22 2015, MaxMem=   524288000 cpu:      1355.7
 (Enter /opt/g09/l1002.exe)
 Minotr:  Closed shell wavefunction.
          IDoAtm=1111111111111111111
          Direct CPHF calculation.
          Differentiating once with respect to electric field.
                with respect to dipole field.
          Differentiating once with respect to nuclear coordinates.
          Requested convergence is 1.0D-08 RMS, and 1.0D-07 maximum.
          Secondary convergence is 1.0D-12 RMS, and 1.0D-12 maximum.
          NewPWx=T KeepS1=F KeepF1=F KeepIn=T MapXYZ=F SortEE=F KeepMc=T.
          MDV=     524287548 using IRadAn=       1.
 Generate precomputed XC quadrature information.
          Solving linear equations simultaneously, MaxMat=       0.
 FoFJK:  IHMeth= 1 ICntrl=       0 DoSepK=F KAlg= 0 I1Cent=   0 FoldK=F
 IRaf= 950000000 NMat=  60 IRICut=     150 DoRegI=T DoRafI=T ISym2E= 0.
 FoFCou: FMM=F IPFlag=           0 FMFlag=      100000 FMFlg1=           0
         NFxFlg=           0 DoJE=F BraDBF=F KetDBF=F FulRan=T
         wScrn=  0.000000 ICntrl=       0 IOpCl=  0 I1Cent=           0 NGrid=           0
         NMat0=   60 NMatS0=     60 NMatT0=    0 NMatD0=   60 NMtDS0=    0 NMtDT0=    0
 Symmetry not used in FoFCou.
          There are    60 degrees of freedom in the 1st order CPHF.  IDoFFX=6 NUNeed=     3.
     57 vectors produced by pass  0 Test12= 1.21D-14 1.67D-09 XBig12= 9.94D+01 3.88D+00.
 AX will form    57 AO Fock derivatives at one time.
     57 vectors produced by pass  1 Test12= 1.21D-14 1.67D-09 XBig12= 2.72D+01 7.09D-01.
     57 vectors produced by pass  2 Test12= 1.21D-14 1.67D-09 XBig12= 4.28D-01 8.18D-02.
     57 vectors produced by pass  3 Test12= 1.21D-14 1.67D-09 XBig12= 1.25D-03 5.13D-03.
     57 vectors produced by pass  4 Test12= 1.21D-14 1.67D-09 XBig12= 3.24D-06 2.91D-04.
     52 vectors produced by pass  5 Test12= 1.21D-14 1.67D-09 XBig12= 5.88D-09 8.30D-06.
     15 vectors produced by pass  6 Test12= 1.21D-14 1.67D-09 XBig12= 7.63D-12 2.79D-07.
      3 vectors produced by pass  7 Test12= 1.21D-14 1.67D-09 XBig12= 8.49D-15 9.82D-09.
      3 vectors produced by pass  8 Test12= 1.21D-14 1.67D-09 XBig12= 1.43D-15 6.52D-09.
 InvSVY:  IOpt=1 It=  1 EMax= 1.42D-14
 Solved reduced A of dimension   358 with    60 vectors.
 FullF1:  Do perturbations    1 to     3.
 Isotropic polarizability for W=    0.000000       97.18 Bohr**3.
 End of Minotr F.D. properties file   721 does not exist.
 End of Minotr F.D. properties file   722 does not exist.
 End of Minotr F.D. properties file   788 does not exist.
 Leave Link 1002 at Sun Apr 26 08:33:59 2015, MaxMem=   524288000 cpu:      2206.0
 (Enter /opt/g09/l701.exe)
 Compute integral second derivatives.
 ... and contract with generalized density number  0.
 Leave Link  701 at Sun Apr 26 08:34:00 2015, MaxMem=   524288000 cpu:         2.7
 (Enter /opt/g09/l702.exe)
 L702 exits ... SP integral derivatives will be done elsewhere.
 Leave Link  702 at Sun Apr 26 08:34:00 2015, MaxMem=   524288000 cpu:         0.2
 (Enter /opt/g09/l703.exe)
 Compute integral second derivatives, UseDBF=F ICtDFT=           0.
 Integral derivatives from FoFJK, PRISM(SPDF).
 Calling FoFJK, ICntrl=    100127 FMM=F ISym2X=0 I1Cent= 0 IOpClX= 0 NMat=1 NMatS=1 NMatT=0.
 FoFJK:  IHMeth= 1 ICntrl=  100127 DoSepK=F KAlg= 0 I1Cent=   0 FoldK=F
 IRaf=         0 NMat=   1 IRICut=       1 DoRegI=T DoRafI=F ISym2E= 0.
 FoFCou: FMM=F IPFlag=           0 FMFlag=      100000 FMFlg1=         800
         NFxFlg=           0 DoJE=F BraDBF=F KetDBF=F FulRan=T
         wScrn=  0.000000 ICntrl=  100127 IOpCl=  0 I1Cent=           0 NGrid=           0
         NMat0=    1 NMatS0=      1 NMatT0=    0 NMatD0=    1 NMtDS0=    0 NMtDT0=    0
 Symmetry not used in FoFCou.
 Leave Link  703 at Sun Apr 26 08:38:58 2015, MaxMem=   524288000 cpu:      2364.7
 (Enter /opt/g09/l716.exe)
 Dipole        =-3.01801722D-02-9.70098321D-02 3.85093165D-02
 Polarizability= 1.17802155D+02-8.96180119D+00 8.47934285D+01
                 5.94030805D+00 1.07914618D+00 8.89562376D+01
 -------------------------------------------------------------------
 Center     Atomic                   Forces (Hartrees/Bohr)
 Number     Number              X              Y              Z
 -------------------------------------------------------------------
      1        6          -0.000002474   -0.000001032   -0.000001354
      2        6          -0.000005298   -0.000005315    0.000001267
      3        6           0.000004837   -0.000002029   -0.000000405
      4        6           0.000000153    0.000000191   -0.000000908
      5        6           0.000000290   -0.000000551    0.000000635
      6        6          -0.000006645   -0.000001278    0.000000425
      7        6          -0.000002180    0.000006462   -0.000003935
      8        6           0.000004914    0.000002055   -0.000000163
      9        6           0.000007086    0.000000481    0.000002636
     10        1           0.000002338    0.000002402    0.000000530
     11        1           0.000000268   -0.000000857    0.000000722
     12        1          -0.000000103    0.000003579   -0.000000181
     13        1           0.000001429    0.000001121   -0.000001428
     14        1          -0.000000250   -0.000001983    0.000000515
     15        1           0.000001060   -0.000002503    0.000002017
     16        1          -0.000001462   -0.000000406   -0.000000565
     17        1          -0.000001633   -0.000001468   -0.000000712
     18        1          -0.000001864    0.000001282    0.000000068
     19        1          -0.000000465   -0.000000152    0.000000836
 -------------------------------------------------------------------
 Cartesian Forces:  Max     0.000007086 RMS     0.000002481
 FormGI is forming the generalized inverse of G from B-inverse, IUseBI=4.
 Leave Link  716 at Sun Apr 26 08:38:58 2015, MaxMem=   524288000 cpu:         0.3
 (Enter /opt/g09/l103.exe)

 GradGradGradGradGradGradGradGradGradGradGradGradGradGradGradGradGradGrad
 Berny optimization.
 Red2BG is reusing G-inverse.
 Internal  Forces:  Max     0.000003685 RMS     0.000000851
 Search for a local minimum.
 Step number   1 out of a maximum of  114
 All quantities printed in internal units (Hartrees-Bohrs-Radians)
 RMS Force = .85077D-06 SwitMx=.10000D-02 MixMth= 2
 Mixed Optimization -- En-DIIS/RFO-DIIS
 Second derivative matrix not updated -- analytic derivatives used.
 ITU=  0
     Eigenvalues ---    0.00174   0.00268   0.00430   0.00532   0.01315
     Eigenvalues ---    0.01856   0.02053   0.02520   0.02611   0.02672
     Eigenvalues ---    0.03362   0.03857   0.03957   0.04006   0.04396
     Eigenvalues ---    0.04462   0.04476   0.04501   0.04972   0.05045
     Eigenvalues ---    0.05229   0.05425   0.05841   0.06433   0.06713
     Eigenvalues ---    0.06868   0.07935   0.08040   0.13366   0.13772
     Eigenvalues ---    0.14429   0.14620   0.15850   0.20976   0.21447
     Eigenvalues ---    0.23391   0.24819   0.25605   0.25961   0.27920
     Eigenvalues ---    0.32659   0.32759   0.32846   0.32901   0.33582
     Eigenvalues ---    0.33660   0.34081   0.34165   0.34259   0.35543
     Eigenvalues ---    0.39150
 RFO step:  Lambda= 0.00000000D+00 EMin= 1.74200814D-03
 Linear search not attempted -- first point.
 Iteration  1 RMS(Cart)=  0.00002222 RMS(Int)=  0.00000000
 Iteration  2 RMS(Cart)=  0.00000000 RMS(Int)=  0.00000000
 ITry= 1 IFail=0 DXMaxC= 9.11D-05 DCOld= 1.00D+10 DXMaxT= 3.00D-01 DXLimC= 3.00D+00 Rises=F
 Variable       Old X    -DE/DX   Delta X   Delta X   Delta X     New X
                                 (Linear)    (Quad)   (Total)
    R1        3.03187   0.00000   0.00000   0.00000   0.00000   3.03187
    R2        2.91918   0.00000   0.00000   0.00001   0.00001   2.91919
    R3        2.07122   0.00000   0.00000  -0.00001  -0.00001   2.07121
    R4        2.06860   0.00000   0.00000   0.00000   0.00000   2.06859
    R5        2.91924   0.00000   0.00000   0.00001   0.00001   2.91925
    R6        2.06858   0.00000   0.00000   0.00001   0.00001   2.06859
    R7        2.07122   0.00000   0.00000  -0.00001  -0.00001   2.07121
    R8        2.50404   0.00000   0.00000   0.00000   0.00000   2.50404
    R9        2.89673   0.00000   0.00000  -0.00001  -0.00001   2.89672
   R10        2.89655   0.00000   0.00000   0.00000   0.00000   2.89655
   R11        3.15358   0.00000   0.00000   0.00001   0.00001   3.15358
   R12        2.94399   0.00000   0.00000   0.00000   0.00000   2.94400
   R13        2.85425   0.00000   0.00000   0.00000   0.00000   2.85426
   R14        2.85430   0.00000   0.00000  -0.00001  -0.00001   2.85429
   R15        2.94373   0.00000   0.00000   0.00002   0.00002   2.94375
   R16        2.94380   0.00000   0.00000  -0.00001  -0.00001   2.94379
   R17        2.06179   0.00000   0.00000  -0.00001  -0.00001   2.06178
   R18        2.07085   0.00000   0.00000   0.00001   0.00001   2.07086
   R19        2.06111   0.00000   0.00000   0.00000   0.00000   2.06110
   R20        2.05035   0.00000   0.00000   0.00001   0.00001   2.05036
   R21        2.07087   0.00000   0.00000  -0.00001  -0.00001   2.07086
   R22        2.06179   0.00000   0.00000   0.00000   0.00000   2.06179
    A1        1.48027   0.00000   0.00000   0.00001   0.00001   1.48028
    A2        1.96635   0.00000   0.00000  -0.00001  -0.00001   1.96634
    A3        2.02945   0.00000   0.00000   0.00001   0.00001   2.02946
    A4        2.01395   0.00000   0.00000  -0.00001  -0.00001   2.01394
    A5        2.04349   0.00000   0.00000   0.00001   0.00001   2.04350
    A6        1.90311   0.00000   0.00000   0.00000   0.00000   1.90312
    A7        1.48026   0.00000   0.00000   0.00000   0.00000   1.48025
    A8        2.02946   0.00000   0.00000  -0.00001  -0.00001   2.02945
    A9        1.96636   0.00000   0.00000   0.00002   0.00002   1.96638
   A10        2.04351   0.00000   0.00000  -0.00002  -0.00002   2.04348
   A11        2.01397   0.00000   0.00000   0.00001   0.00001   2.01398
   A12        1.90310   0.00000   0.00000   0.00001   0.00001   1.90310
   A13        1.66134   0.00000   0.00000  -0.00001  -0.00001   1.66133
   A14        2.74802   0.00000   0.00000  -0.00001  -0.00001   2.74801
   A15        1.68313   0.00000   0.00000   0.00000   0.00000   1.68313
   A16        1.66131   0.00000   0.00000   0.00001   0.00001   1.66132
   A17        2.74800   0.00000   0.00000   0.00000   0.00000   2.74800
   A18        1.68318   0.00000   0.00000   0.00000   0.00000   1.68317
   A19        1.45848   0.00000   0.00000   0.00000   0.00000   1.45848
   A20        2.13849   0.00000   0.00000   0.00000   0.00000   2.13849
   A21        1.91978   0.00000   0.00000   0.00000   0.00000   1.91978
   A22        1.53510   0.00000   0.00000   0.00000   0.00000   1.53510
   A23        1.94800   0.00000   0.00000   0.00000   0.00000   1.94799
   A24        1.45840   0.00000   0.00000   0.00000   0.00000   1.45840
   A25        1.91971   0.00000   0.00000   0.00000   0.00000   1.91972
   A26        2.13863   0.00000   0.00000   0.00000   0.00000   2.13863
   A27        1.53522   0.00000   0.00000  -0.00001  -0.00001   1.53521
   A28        1.94797   0.00000   0.00000  -0.00001  -0.00001   1.94796
   A29        1.60641   0.00000   0.00000   0.00000   0.00000   1.60641
   A30        1.95289   0.00000   0.00000   0.00001   0.00001   1.95290
   A31        1.99528   0.00000   0.00000  -0.00002  -0.00002   1.99526
   A32        1.97326   0.00000   0.00000   0.00002   0.00002   1.97327
   A33        2.03423   0.00000   0.00000  -0.00002  -0.00002   2.03421
   A34        1.89113   0.00000   0.00000   0.00001   0.00001   1.89114
   A35        2.05474   0.00000   0.00000   0.00001   0.00001   2.05475
   A36        2.03394   0.00000   0.00000   0.00000   0.00000   2.03394
   A37        2.05473   0.00000   0.00000   0.00001   0.00001   2.05474
   A38        2.03400   0.00000   0.00000  -0.00001  -0.00001   2.03398
   A39        1.98372   0.00000   0.00000  -0.00001  -0.00001   1.98371
   A40        1.60646   0.00000   0.00000   0.00000   0.00000   1.60646
   A41        1.99519   0.00000   0.00000  -0.00001  -0.00001   1.99519
   A42        1.95299   0.00000   0.00000  -0.00001  -0.00001   1.95298
   A43        2.03416   0.00000   0.00000   0.00001   0.00001   2.03417
   A44        1.97335   0.00000   0.00000   0.00000   0.00000   1.97334
   A45        1.89108   0.00000   0.00000   0.00000   0.00000   1.89108
    D1        0.00000   0.00000   0.00000  -0.00002  -0.00002  -0.00002
    D2        2.05447   0.00000   0.00000  -0.00004  -0.00004   2.05443
    D3       -2.01384   0.00000   0.00000  -0.00003  -0.00003  -2.01387
    D4        2.01383   0.00000   0.00000  -0.00003  -0.00003   2.01380
    D5       -2.21488   0.00000   0.00000  -0.00006  -0.00006  -2.21494
    D6       -0.00001   0.00000   0.00000  -0.00004  -0.00004  -0.00005
    D7       -2.05448   0.00000   0.00000  -0.00003  -0.00003  -2.05451
    D8        0.00000   0.00000   0.00000  -0.00006  -0.00006  -0.00006
    D9        2.21487   0.00000   0.00000  -0.00004  -0.00004   2.21483
   D10        0.00000   0.00000   0.00000   0.00002   0.00002   0.00002
   D11        2.10849   0.00000   0.00000  -0.00001  -0.00001   2.10848
   D12       -1.96621   0.00000   0.00000   0.00003   0.00003  -1.96618
   D13        0.14227   0.00000   0.00000   0.00000   0.00000   0.14228
   D14        2.04082   0.00000   0.00000   0.00003   0.00003   2.04084
   D15       -2.13388   0.00000   0.00000   0.00000   0.00000  -2.13388
   D16        0.00000   0.00000   0.00000   0.00002   0.00002   0.00002
   D17       -2.10853   0.00000   0.00000   0.00001   0.00001  -2.10852
   D18       -2.04081   0.00000   0.00000   0.00003   0.00003  -2.04077
   D19        2.13385   0.00000   0.00000   0.00002   0.00002   2.13387
   D20        1.96622   0.00000   0.00000   0.00004   0.00004   1.96626
   D21       -0.14231   0.00000   0.00000   0.00003   0.00003  -0.14228
   D22        0.00000   0.00000   0.00000  -0.00002  -0.00002  -0.00002
   D23        2.80372   0.00000   0.00000  -0.00002  -0.00002   2.80370
   D24       -2.80374   0.00000   0.00000   0.00000   0.00000  -2.80374
   D25       -0.00001   0.00000   0.00000   0.00000   0.00000  -0.00002
   D26       -2.10474   0.00000   0.00000   0.00003   0.00003  -2.10471
   D27       -1.21892   0.00000   0.00000   0.00003   0.00003  -1.21889
   D28        2.72236   0.00000   0.00000   0.00004   0.00004   2.72240
   D29        0.00001   0.00000   0.00000   0.00000   0.00000   0.00001
   D30        0.88583   0.00000   0.00000   0.00000   0.00000   0.88583
   D31       -1.45607   0.00000   0.00000   0.00001   0.00001  -1.45606
   D32        2.10479   0.00000   0.00000   0.00001   0.00001   2.10481
   D33       -2.72238   0.00000   0.00000   0.00002   0.00002  -2.72236
   D34        1.21894   0.00000   0.00000   0.00002   0.00002   1.21896
   D35        0.00001   0.00000   0.00000   0.00000   0.00000   0.00001
   D36        1.45603   0.00000   0.00000   0.00000   0.00000   1.45603
   D37       -0.88585   0.00000   0.00000   0.00001   0.00001  -0.88584
   D38       -0.00001   0.00000   0.00000   0.00000   0.00000  -0.00001
   D39        2.14787   0.00000   0.00000   0.00000   0.00000   2.14786
   D40       -2.14775   0.00000   0.00000   0.00000   0.00000  -2.14776
   D41        0.00012   0.00000   0.00000  -0.00001  -0.00001   0.00012
   D42       -1.41449   0.00000   0.00000   0.00001   0.00001  -1.41448
   D43        0.60825   0.00000   0.00000   0.00003   0.00003   0.60828
   D44        2.76623   0.00000   0.00000   0.00004   0.00004   2.76627
   D45       -0.00012   0.00000   0.00000   0.00001   0.00001  -0.00012
   D46        2.02261   0.00000   0.00000   0.00003   0.00003   2.02264
   D47       -2.10259   0.00000   0.00000   0.00003   0.00003  -2.10256
   D48        0.91622   0.00000   0.00000   0.00000   0.00000   0.91623
   D49        2.93896   0.00000   0.00000   0.00003   0.00003   2.93899
   D50       -1.18624   0.00000   0.00000   0.00003   0.00003  -1.18621
   D51        3.10303   0.00000   0.00000   0.00000   0.00000   3.10303
   D52       -0.73175   0.00000   0.00000   0.00000   0.00000  -0.73175
   D53        0.66954   0.00000   0.00000   0.00000   0.00000   0.66954
   D54        3.11795   0.00000   0.00000   0.00001   0.00001   3.11795
   D55       -3.10297   0.00000   0.00000  -0.00002  -0.00002  -3.10299
   D56        0.73174   0.00000   0.00000   0.00000   0.00000   0.73174
   D57       -0.66937   0.00000   0.00000  -0.00002  -0.00002  -0.66939
   D58       -3.11784   0.00000   0.00000   0.00000   0.00000  -3.11784
   D59        1.41421   0.00000   0.00000   0.00000   0.00000   1.41421
   D60       -2.76659   0.00000   0.00000   0.00002   0.00002  -2.76658
   D61       -0.60867   0.00000   0.00000   0.00001   0.00001  -0.60866
   D62       -0.00012   0.00000   0.00000   0.00001   0.00001  -0.00012
   D63        2.10226   0.00000   0.00000   0.00002   0.00002   2.10227
   D64       -2.02300   0.00000   0.00000   0.00001   0.00001  -2.02299
   D65       -0.91652   0.00000   0.00000   0.00001   0.00001  -0.91652
   D66        1.18586   0.00000   0.00000   0.00002   0.00002   1.18588
   D67       -2.93940   0.00000   0.00000   0.00001   0.00001  -2.93939
   D68        0.00013   0.00000   0.00000  -0.00001  -0.00001   0.00013
   D69       -2.06952   0.00000   0.00000   0.00000   0.00000  -2.06953
   D70        2.00526   0.00000   0.00000  -0.00002  -0.00002   2.00524
   D71       -2.00485   0.00000   0.00000  -0.00003  -0.00003  -2.00487
   D72        2.20868   0.00000   0.00000  -0.00002  -0.00002   2.20866
   D73        0.00029   0.00000   0.00000  -0.00004  -0.00004   0.00025
   D74        2.06989   0.00000   0.00000  -0.00004  -0.00004   2.06985
   D75        0.00023   0.00000   0.00000  -0.00004  -0.00004   0.00019
   D76       -2.20817   0.00000   0.00000  -0.00005  -0.00005  -2.20822
         Item               Value     Threshold  Converged?
 Maximum Force            0.000004     0.000015     YES
 RMS     Force            0.000001     0.000010     YES
 Maximum Displacement     0.000091     0.000060     NO 
 RMS     Displacement     0.000022     0.000040     YES
 Predicted change in Energy=-3.860154D-10
 Lowest energy point so far.  Saving SCF results.
 GradGradGradGradGradGradGradGradGradGradGradGradGradGradGradGradGradGrad

 Leave Link  103 at Sun Apr 26 08:38:58 2015, MaxMem=   524288000 cpu:         0.2
 (Enter /opt/g09/l202.exe)
                          Input orientation:                          
 ---------------------------------------------------------------------
 Center     Atomic      Atomic             Coordinates (Angstroms)
 Number     Number       Type             X           Y           Z
 ---------------------------------------------------------------------
      1          6           0        0.823722    2.542921    0.824716
      2          6           0        0.712546    3.163420    2.300082
      3          6           0        2.306104    2.304950    1.188353
      4          6           0        2.214300    2.817393    2.406882
      5          6           0        3.478089    2.155482    2.967378
      6          6           0        3.593799    1.510085    1.432784
      7          6           0        4.900402    2.756800    2.761268
      8          6           0        3.454363    0.672483    2.681929
      9          6           0        5.008377    2.154137    1.328846
     10          1           0        0.218992    1.637249    0.700796
     11          1           0        0.617647    3.226262   -0.005249
     12          1           0        0.439355    4.221655    2.361462
     13          1           0        0.049252    2.584465    2.952883
     14          1           0        4.885463    3.847737    2.765918
     15          1           0        5.643570    2.418754    3.492235
     16          1           0        4.315795    0.081501    2.995425
     17          1           0        2.504830    0.166809    2.823046
     18          1           0        5.819353    1.436932    1.159050
     19          1           0        5.052932    2.914355    0.547515
 ---------------------------------------------------------------------
                    Distance matrix (angstroms):
                    1          2          3          4          5
     1  C    0.000000
     2  C    1.604395   0.000000
     3  C    1.544771   2.124227   0.000000
     4  C    2.124215   1.544799   1.325081   0.000000
     5  C    3.433187   3.018186   2.135607   1.532790   0.000000
     6  C    3.018248   3.433270   1.532879   2.135636   1.668804
     7  C    4.518328   4.232749   3.067346   2.710056   1.557896
     8  C    3.723983   3.723995   2.492833   2.492799   1.510408
     9  C    4.232805   4.518420   2.710122   3.067399   2.242002
    10  H    1.096037   2.265063   2.244899   2.878320   4.003457
    11  H    1.094652   2.308139   2.263711   2.921446   4.262066
    12  H    2.308132   1.094652   2.921420   2.263723   3.724259
    13  H    2.265088   1.096036   2.878380   2.244950   3.455598
    14  H    4.687061   4.254236   3.394406   2.885416   2.210206
    15  H    5.510173   5.127451   4.057031   3.618950   2.243679
    16  H    4.792195   4.792194   3.499727   3.499681   2.236948
    17  H    3.530631   3.530644   2.698770   2.698740   2.218758
    18  H    5.127506   5.510190   3.619010   4.056990   3.044320
    19  H    4.254529   4.687481   2.885674   3.394773   2.985257
                    6          7          8          9         10
     6  C    0.000000
     7  C    2.241959   0.000000
     8  C    1.510424   2.538051   0.000000
     9  C    1.557767   1.557785   2.537930   0.000000
    10  H    3.455619   5.235889   3.914497   4.857965   0.000000
    11  H    3.724337   5.120156   4.667941   4.712512   1.783925
    12  H    4.262109   4.712386   4.667933   5.120243   3.079859
    13  H    4.003599   4.857990   3.914572   5.235990   2.449066
    14  H    2.985005   1.091048   3.483868   2.224536   5.561199
    15  H    3.044434   1.095850   2.915250   2.270186   6.150523
    16  H    2.236956   2.748422   1.090689   2.748267   4.946662
    17  H    2.218800   3.528546   1.085004   3.528435   3.448361
    18  H    2.243517   2.270160   2.914913   1.095854   5.622647
    19  H    2.210146   2.224588   3.483839   1.091053   5.002147
                   11         12         13         14         15
    11  H    0.000000
    12  H    2.573697   0.000000
    13  H    3.079856   1.783914   0.000000
    14  H    5.126387   4.480097   5.001974   0.000000
    15  H    6.176113   5.622539   5.622699   1.773205   0.000000
    16  H    5.707001   5.706975   4.946718   3.815983   2.733598
    17  H    4.573944   4.573950   3.448446   4.384051   3.920556
    18  H    5.622725   6.176152   6.150506   3.044035   2.537445
    19  H    4.480467   5.126844   5.561603   2.412583   3.043987
                   16         17         18         19
    16  H    0.000000
    17  H    1.821150   0.000000
    18  H    2.733158   3.920224   0.000000
    19  H    3.815848   4.384048   1.773177   0.000000
 Symmetry turned off by external request.
 Stoichiometry    C9H10
 Framework group  C1[X(C9H10)]
 Deg. of freedom    51
 Full point group                 C1      NOp   1
 Rotational constants (GHZ):      3.8751286      1.3839407      1.3500830
 Leave Link  202 at Sun Apr 26 08:38:58 2015, MaxMem=   524288000 cpu:         0.0
 (Enter /opt/g09/l301.exe)
 Standard basis: 6-311+G(d,p) (5D, 7F)
 Ernie: Thresh=  0.10000D-02 Tol=  0.10000D-05 Strict=F.
   258 basis functions,   404 primitive gaussians,   267 cartesian basis functions
    32 alpha electrons       32 beta electrons
       nuclear repulsion energy       425.3577027136 Hartrees.
 IExCor= 1614 DFT=T Ex+Corr=B971 ExCW=0 ScaHFX=  0.210000
 ScaDFX=  1.000000  1.000000  1.000000  1.000000 ScalE2=  1.000000  1.000000
 IRadAn=      5 IRanWt=     -1 IRanGd=            0 ICorTp=0 IEmpDi=  4
 NAtoms=   19 NActive=   19 NUniq=   19 SFac= 1.00D+00 NAtFMM=   60 NAOKFM=F Big=F
 Integral buffers will be    131072 words long.
 Raffenetti 2 integral format.
 Two-electron integral symmetry is turned off.
 Leave Link  301 at Sun Apr 26 08:38:58 2015, MaxMem=   524288000 cpu:         0.4
 (Enter /opt/g09/l302.exe)
 NPDir=0 NMtPBC=     1 NCelOv=     1 NCel=       1 NClECP=     1 NCelD=      1
         NCelK=      1 NCelE2=     1 NClLst=     1 CellRange=     0.0.
[...]
 7,0.01712495,0.04888929,0.43449016,0.00353856,0.01376702,-0.01271384,0
 .03146940,-0.05995136,0.02373074,0.00435054,-0.13266363,-0.17531417,-0
 .13115702,0.26997455,-0.03434788,-0.01385834,-0.04881103,0.01784956,0.
 01835384,-0.04397592,0.02412877,-0.20632546,-0.50530961,0.03114162,0.1
 5753679,0.66223252,-0.00883757,0.00531616,-0.00639443,0.00116294,-0.00
 301350,-0.00522916,-0.02260664,0.01212671,-0.02788295,-0.12627795,0.02
 880179,-0.05491621,0.43272365,0.00605180,0.01328248,-0.00304073,-0.004
 50225,-0.00759088,-0.00016881,0.02370577,0.00290300,-0.00038791,0.0321
 4067,-0.07379294,0.05788002,0.00876223,0.40815884,-0.00687916,-0.00351
 689,-0.00423982,-0.00112839,-0.00329494,-0.00083996,-0.04075268,-0.004
 95320,-0.04230768,-0.03592929,0.03103883,-0.03090746,0.05911427,0.0000
 9395,0.15438552,-0.00009919,0.00112601,0.00647219,-0.00982294,0.008385
 51,-0.00025164,-0.13193415,0.05239522,0.00173245,-0.02958299,0.0301372
 9,0.01122615,-0.00515091,0.00099315,0.00847652,0.44405858,-0.00240615,
 -0.00246935,0.00180793,0.00929097,0.00856718,-0.00787024,0.04462736,-0
 .09081914,0.01546891,0.04781874,-0.01337408,-0.01828489,-0.00892429,-0
 .02377124,0.03621143,-0.01064211,0.27635694,0.00447902,0.00530712,-0.0
 0467294,-0.00045076,-0.00752624,0.00146147,-0.01536609,0.04264677,-0.0
 0783098,0.01175030,-0.01595284,-0.01893894,0.00342809,-0.06687958,-0.0
 5237579,-0.02069434,-0.13176397,0.27527516,-0.00161973,0.00222660,-0.0
 0083939,0.00050389,-0.00268928,-0.00163216,-0.00445110,0.00205987,-0.0
 0279033,-0.01478371,-0.00551375,-0.00381501,-0.14470660,-0.03687533,0.
 00483787,-0.02841881,-0.02353572,-0.01123789,0.43739075,0.00023978,-0.
 00032604,0.00036074,-0.00014596,0.00036162,0.00166146,-0.00168305,-0.0
 0194058,0.00017060,0.00973103,0.00801737,-0.00154775,-0.02467398,-0.08
 682163,0.00810733,-0.01845993,-0.00748726,-0.01251700,-0.02398362,0.58
 767513,0.00085230,0.00177692,-0.00352227,0.00305830,-0.00070287,0.0005
 7702,-0.00023175,-0.00014347,-0.00219522,-0.00290379,-0.00887048,-0.00
 334103,0.01641230,0.02767955,-0.01183954,-0.01849801,-0.02435719,-0.02
 949310,0.11275251,-0.01574445,0.43615185,0.00241397,-0.00013555,0.0006
 6843,0.00190987,-0.00094377,0.00053709,-0.00376338,0.02438308,-0.00985
 962,-0.00646084,0.02499120,-0.01045840,-0.07188333,-0.00340240,-0.0063
 3056,-0.07428112,-0.00816664,0.00595283,0.00118807,-0.02646331,0.00730
 418,0.66415976,-0.00357778,-0.00108540,-0.00122739,-0.00064379,0.00272
 591,-0.00216382,-0.00307147,-0.01623635,-0.00171806,0.01141207,-0.0163
 0563,0.00927405,-0.00653716,-0.20001159,-0.05249491,-0.01268567,-0.067
 77043,0.13148743,-0.00194294,-0.01458803,0.00432539,0.01876532,0.54544
 867,-0.00226214,-0.00588494,-0.00041057,0.00478830,0.00273469,-0.00372
 802,-0.01960243,0.01030055,-0.01174747,0.01653252,0.00035841,-0.009006
 03,-0.01264024,0.00171908,0.01010952,0.01549196,0.07783032,-0.11994831
 ,-0.00318702,-0.00325180,-0.00194593,0.02866898,-0.15274664,0.24531928
 ,0.00054038,-0.00083607,0.00305788,-0.00149918,0.00250585,-0.00103452,
 -0.01523135,-0.00204359,0.00549829,-0.00476945,0.00325768,0.00014994,-
 0.03462333,-0.00942334,0.02592100,-0.14298428,-0.03689170,0.00600575,-
 0.04378873,0.01777144,0.00025191,0.00012270,0.00109039,0.00408372,0.46
 373375,-0.00212202,-0.00016408,-0.00118076,-0.00024680,-0.00292225,-0.
 00096662,0.00877936,0.00780752,-0.00800018,-0.00109121,-0.00196190,-0.
 00040170,0.00081769,-0.00070844,-0.01586198,-0.03921102,-0.07029859,0.
 04403239,0.01898954,-0.09046303,-0.03270646,-0.02428003,-0.00988074,0.
 00723779,-0.09013823,0.51623760,-0.00215958,0.00108826,0.00107037,-0.0
 0073369,-0.00202234,-0.00104565,-0.00638784,-0.00264537,-0.00269536,0.
 00101602,0.00052865,-0.00186002,0.02667461,-0.00520407,-0.03011197,-0.
 00966221,0.02373830,-0.03082064,0.00326772,-0.03277101,-0.15744062,0.0
 1457672,0.00341251,-0.00555784,-0.06205941,-0.09131198,0.48203640,-0.1
 1929007,-0.12230603,-0.01365983,0.00293316,0.00731932,0.00106229,-0.01
 363245,-0.02637670,-0.00547262,-0.00410746,0.00253773,0.00111734,0.000
 53488,0.00333369,-0.00180556,0.00046666,-0.00046791,0.00065447,0.00031
 877,0.00016398,0.00056717,-0.00090755,-0.00050001,-0.00234152,-0.00019
 753,-0.00005242,-0.00009187,0.12878045,-0.11721442,-0.22655831,-0.0205
 0189,-0.00370973,-0.00822842,0.00122643,0.00295611,0.00813735,-0.00017
 601,-0.00018209,0.00073370,0.00096270,0.00013711,-0.00055767,0.0005208
 4,-0.00026860,0.00007529,-0.00076947,-0.00006544,0.00003807,-0.0000928
 5,-0.00042888,0.00056036,0.00031412,0.00007508,0.00002730,-0.00008430,
 0.13053584,0.24113882,-0.01531928,-0.02125249,-0.04638405,-0.01287904,
 -0.02030044,-0.00212689,-0.00245706,-0.00328586,-0.00082398,-0.0004859
 1,-0.00001058,-0.00123691,-0.00015695,0.00180319,-0.00048976,-0.000205
 77,-0.00006374,-0.00003956,0.00023619,0.00003496,0.00001461,-0.0006155
 8,-0.00013207,-0.00018373,0.00008487,0.00019504,-0.00001127,0.01821210
 ,0.02298385,0.04968233,-0.05066321,0.03099287,-0.03430752,-0.00044748,
 -0.00423695,0.00377438,-0.00246332,0.01790693,-0.01890693,-0.00517176,
 -0.00180641,-0.00073356,-0.00103607,-0.00169145,-0.00088099,0.00054983
 ,0.00021456,-0.00212990,-0.00022113,0.00017753,-0.00100263,-0.00055599
 ,-0.00007509,0.00074717,0.00044984,0.00022090,-0.00017732,0.00421538,-
 0.01134590,0.01368841,0.05489515,0.02806263,-0.15350039,0.12549271,-0.
 00276197,0.00887499,-0.00928820,0.00006175,-0.00122972,0.00105558,0.00
 135788,0.00157136,-0.00159615,-0.00068046,-0.00084090,0.00034470,-0.00
 004120,-0.00005542,0.00093649,-0.00026596,0.00017940,0.00025245,0.0002
 6993,0.00004035,-0.00016532,-0.00021211,-0.00009361,0.00002075,0.00478
 347,-0.01594622,0.02029592,-0.03068391,0.16078123,-0.03014169,0.125995
 53,-0.19555261,-0.00171453,0.01575693,-0.01168160,-0.00382229,-0.00133
 029,-0.00196309,-0.00234282,0.00170766,-0.00023786,-0.00152563,-0.0017
 3883,-0.00011256,0.00099069,0.00003206,0.00031488,-0.00035546,0.000475
 45,-0.00020447,0.00006024,-0.00019516,-0.00015848,-0.00014424,-0.00001
 709,-0.00009984,0.00065473,-0.00268840,0.00323023,0.03947003,-0.136733
 24,0.20782665,-0.00066023,-0.00249206,-0.00010052,-0.05657988,0.061292
 44,0.00197383,-0.00548645,-0.00073157,0.00095168,-0.00436780,0.0255693
 0,0.00025848,0.00041268,0.00162290,0.00133166,-0.00145899,-0.00081282,
 0.00182077,0.00039969,0.00030399,0.00003169,-0.00043855,-0.00060043,-0
 .00049041,-0.00039041,0.00087306,0.00048406,0.00041609,-0.00044232,-0.
 00072957,0.00049580,0.00039385,0.00032253,0.06250378,-0.00075939,-0.00
 511965,0.00223018,0.05623816,-0.29518375,-0.01169423,0.00218170,0.0006
 8161,0.00113132,0.00280163,0.00007075,-0.00118127,-0.00065891,-0.00029
 919,-0.00027430,0.00061296,0.00022356,-0.00051546,-0.00001427,-0.00008
 466,-0.00002577,0.00012888,0.00009401,-0.00012679,0.00007720,-0.000330
 50,-0.00003418,0.00070401,-0.00004195,-0.00070162,0.00010187,0.0003792
 9,-0.00035468,-0.06580201,0.31530516,0.00403165,-0.02304933,0.00253837
 ,0.00116777,-0.01159676,-0.04794300,0.00001478,-0.00263338,0.00096360,
 0.00225122,0.00426033,-0.00136192,-0.00072523,0.00082186,0.00069315,0.
 00144293,0.00138452,-0.00075493,0.00031463,0.00006854,-0.00005868,-0.0
 0025523,-0.00017760,-0.00033031,0.00035853,-0.00016423,0.00047530,0.00
 146296,-0.00131940,-0.00219066,-0.00058950,0.00081809,0.00077561,-0.00
 501866,0.01285599,0.04568517,0.00138632,0.00241223,-0.00345728,-0.1350
 9103,-0.08745971,0.09483868,-0.00383682,0.00085944,-0.00303584,-0.0156
 1375,-0.01509748,0.02064904,0.00046902,-0.00073425,-0.00002863,0.00046
 693,0.00377954,-0.00116539,-0.00019256,0.00004121,0.00006227,-0.001313
 68,0.00126322,0.00182299,0.00041886,-0.00026065,-0.00046276,0.00066027
 ,0.00012877,0.00055805,0.00046564,-0.00034122,-0.00115292,0.00572312,0
 .00416711,-0.00455771,0.14660298,0.00744986,0.00498916,-0.00726981,-0.
 08265861,-0.12216451,0.08457696,0.00024193,-0.00068905,-0.00158789,0.0
 0341727,0.00467931,-0.00443339,-0.00007401,0.00038922,0.00027497,0.000
 23282,-0.00147423,0.00066685,-0.00003185,-0.00004703,0.00012336,0.0001
 4192,0.00016677,-0.00047193,-0.00020002,0.00002889,-0.00000136,-0.0003
 2321,0.00064727,0.00015005,0.00034666,-0.00013864,-0.00082342,-0.01918
 270,-0.01575866,0.01867840,0.09083458,0.12946126,0.01300850,0.01470870
 ,-0.01379511,0.09233974,0.08458575,-0.13499925,-0.00002381,-0.00035906
 ,-0.00009427,-0.00249906,-0.00493901,0.00462370,0.00046788,-0.00049461
 ,-0.00035507,0.00002291,-0.00010794,0.00049382,-0.00013761,-0.00016000
 ,0.00005814,0.00053852,0.00005414,0.00061505,-0.00006028,-0.00011684,-
 0.00007679,-0.00046255,-0.00020013,0.00061524,0.00123221,-0.00140613,-
 0.00214334,-0.00098711,-0.00133281,0.00153234,-0.10350763,-0.09004434,
 0.14357449,-0.00006279,0.00001714,0.00001016,-0.00024097,0.00005146,0.
 00020066,0.00039791,-0.00038468,-0.00030127,0.00162562,0.00067752,0.00
 083552,0.00052113,-0.03042067,0.00118386,-0.00000673,0.00013333,-0.000
 60935,-0.04527793,0.00924873,-0.00160931,-0.00569374,-0.00112128,0.000
 32852,-0.00190889,0.00639482,-0.00109746,0.00005692,-0.00000257,0.0000
 0124,0.00001483,0.00000413,0.00003886,-0.00004386,-0.00000785,-0.00001
 306,0.00002023,0.00000621,-0.00001446,0.04815509,-0.00012847,0.0000306
 0,-0.00000100,-0.00006836,0.00005161,-0.00007454,0.00034966,-0.0007245
 0,-0.00041801,0.00067621,0.00126473,0.00048530,0.00104344,-0.00912756,
 0.00115492,-0.00026466,-0.00004329,-0.00078232,0.00556628,-0.31851216,
 0.00237678,-0.00192165,0.00079200,0.00024999,0.00117227,-0.00662228,0.
 00027764,0.00004471,-0.00000536,-0.00004877,-0.00003126,0.00002908,0.0
 0001080,-0.00006283,0.00001247,-0.00002298,0.00000508,-0.00000747,0.00
 000598,-0.00555096,0.34027197,-0.00020290,0.00015879,0.00023932,-0.000
 29664,-0.00011177,-0.00026226,-0.00054717,-0.00032519,-0.00047202,-0.0
 0121209,-0.00002965,0.00115052,-0.00153444,0.00872401,-0.00066020,0.00
 013059,-0.00017308,-0.00154042,-0.00167770,0.00186179,-0.04344814,0.00
 210109,0.00135981,-0.00142065,0.00203760,-0.02966143,-0.00143580,0.000
 02214,-0.00000038,0.00001462,0.00001816,-0.00004817,-0.00003822,0.0000
 2000,-0.00000814,0.00006657,-0.00000504,-0.00000055,-0.00001488,0.0008
 0967,-0.00207163,0.04859509,-0.00015398,0.00056908,-0.00097411,0.00054
 290,-0.00043506,-0.00047441,-0.00011980,0.00115388,-0.00030562,-0.0013
 3990,-0.00409262,-0.00106754,-0.01935627,0.00953367,-0.01116812,-0.002
 19903,-0.00316214,-0.00251807,-0.15828222,0.05848371,-0.11536449,0.001
 44738,0.00234045,0.00068354,0.00439398,-0.00337722,0.00516935,-0.00002
 951,-0.00006287,-0.00000410,-0.00037139,0.00002525,-0.00020928,-0.0000
 9760,0.00009306,0.00001132,-0.00010406,0.00000432,0.00005876,0.0007886
 3,0.00000660,0.00033930,0.17402788,-0.00030606,0.00016837,-0.00029894,
 0.00010056,-0.00007307,-0.00008932,-0.00011781,-0.00030355,-0.00081247
 ,0.00010851,-0.00055878,-0.00033760,-0.01004337,0.00295767,-0.00487932
 ,-0.00193481,-0.00231644,-0.00237624,0.05824684,-0.07534583,0.05448583
 ,-0.00029855,0.00203408,-0.00020651,-0.00768377,0.00427358,-0.00699613
 ,0.00001972,-0.00000393,-0.00001899,-0.00008461,-0.00000646,-0.0000365
 2,-0.00001579,-0.00001723,0.00001476,0.00000519,0.00001536,0.00000383,
 0.02220243,-0.00897242,0.02187952,-0.06042947,0.07735631,-0.00015100,0
 .00006400,-0.00000442,-0.00015931,0.00016927,0.00029292,-0.00015243,-0
 .00110598,-0.00023302,0.00332003,0.00024550,-0.00054106,0.00324492,-0.
 00619700,0.00726201,-0.00218631,-0.00044781,0.00091657,-0.11304662,0.0
 5758407,-0.16427880,-0.00140506,-0.00087578,0.00014056,-0.01431722,0.0
 1385119,-0.01414816,-0.00001825,-0.00002252,-0.00001805,-0.00000505,0.
 00003544,0.00007153,-0.00001945,0.00001715,-0.00000427,-0.00004087,-0.
 00001385,-0.00000422,0.00012294,0.00012155,0.00023624,0.12506110,-0.06
 021726,0.17181800,0.00013233,-0.00037770,0.00005593,0.00026594,-0.0001
 5919,0.00005320,0.00062526,0.00118399,0.00059760,0.00106620,0.00082624
 ,-0.00142006,0.00024628,-0.00302595,-0.00051548,0.00270355,-0.00300892
 ,0.00346716,0.00076921,-0.00054893,0.00054544,-0.22603967,0.11337271,-
 0.06164658,0.00091164,-0.00058343,-0.00001863,-0.00006493,-0.00007636,
 0.00011764,-0.00001299,0.00003576,-0.00003019,-0.00003524,0.00004856,-
 0.00000012,0.00000697,-0.00015484,-0.00002918,0.00007835,-0.00002348,0
 .00001872,0.00018573,0.00056428,-0.00019196,0.23402940,0.00005332,0.00
 085535,-0.00001771,-0.00072355,-0.00015784,0.00049220,0.00112876,-0.00
 293412,-0.00187161,-0.00098595,-0.00282681,0.00488920,0.01921950,-0.01
 123783,0.00369743,0.00388048,-0.00244357,0.00275117,0.00086227,0.00074
 812,0.00009967,0.11161726,-0.12347535,0.04323128,0.00028901,-0.0003024
 5,0.00022447,0.00046788,0.00006377,0.00023669,0.00004542,-0.00008884,-
 0.00005712,0.00014665,-0.00003443,0.00007440,0.00016027,-0.00001977,-0
 .00018348,0.00001942,0.00032440,-0.00037720,-0.00093160,-0.00018870,-0
 .00040908,-0.12332089,0.13170965,0.00099527,0.00151522,0.00043725,-0.0
 0082948,-0.00103000,0.00131768,0.00187161,0.00494455,0.00030495,-0.001
 91001,-0.00178609,-0.00024446,0.01322568,-0.00647450,0.00313656,-0.022
 52486,0.01071547,-0.00814463,0.00048761,0.00120852,0.00000148,-0.06090
 824,0.04336933,-0.06352375,-0.00092377,-0.00105311,0.00091838,0.000267
 54,-0.00011908,0.00001526,-0.00017079,0.00001242,-0.00004688,0.0000950
 6,-0.00000319,-0.00007922,-0.00054041,0.00010752,0.00002692,0.00019843
 ,0.00006379,-0.00010547,-0.00028148,0.00018855,-0.00011756,0.06651751,
 -0.04806827,0.06477387,0.00021869,-0.00018019,-0.00012501,0.00023410,-
 0.00000799,0.00021646,0.00099878,0.00109773,0.00028485,0.00130763,0.00
 060205,-0.00075922,0.00153833,0.00393283,0.00028218,-0.00127445,0.0010
 9174,-0.00208583,0.00037610,0.00038078,-0.00052222,-0.27589529,-0.1176
 6220,0.03115488,0.00046277,0.00011303,0.00060124,-0.00007146,-0.000005
 42,0.00000146,-0.00000591,-0.00005577,-0.00001523,-0.00001791,-0.00003
 170,0.00005484,-0.00009460,-0.00000914,-0.00000416,0.00016980,-0.00000
 019,0.00015843,0.00026367,-0.00003677,0.00019185,-0.01507004,-0.011315
 29,0.00362123,0.28654155,0.00047871,-0.00017055,0.00030294,0.00026308,
 -0.00039801,0.00011830,-0.00009989,0.00124590,0.00020214,-0.00120651,0
 .00080082,-0.00154111,-0.02110566,-0.01333247,0.00154620,-0.00440637,-
 0.00294690,0.00177369,0.00133637,-0.00377657,0.00248163,-0.11221889,-0
 .10287171,0.02106431,0.00067066,-0.00129367,-0.00144930,0.00007697,-0.
 00007715,0.00013774,0.00001785,0.00001599,-0.00003403,0.00005373,0.000
 05444,-0.00001547,0.00019860,-0.00011674,-0.00004642,-0.00124428,-0.00
 018682,0.00062262,0.00021561,0.00018988,-0.00043985,0.01466121,0.00979
 245,-0.00299871,0.12244424,0.11266437,0.00013052,0.00030971,-0.0000427
 7,-0.00043115,0.00004134,0.00017086,0.00186476,-0.00092764,-0.00025742
 ,-0.00107591,-0.00017534,-0.00011245,-0.01461973,-0.00786270,0.0011183
 2,0.02565839,0.01347694,-0.00647633,0.00076902,-0.00391562,-0.00041755
 ,0.02886541,0.02065285,-0.03917424,-0.00132361,0.00483437,-0.00298425,
 -0.00018414,-0.00002978,-0.00005692,-0.00005916,-0.00006157,-0.0000049
 2,0.00003176,0.00000009,-0.00003142,0.00006087,0.00009666,-0.00000628,
 -0.00106186,-0.00051111,0.00048048,0.00023689,0.00013155,0.00016669,-0
 .00730444,-0.00495537,0.00156937,-0.03284675,-0.02173515,0.04569964,0.
 00044229,0.00004840,0.00066234,-0.00028147,0.00109523,0.00024139,-0.00
 125129,-0.00207329,0.00355939,-0.00013875,0.00095124,-0.00045967,-0.00
 303048,-0.00067700,0.00376489,-0.01998224,0.01253911,-0.00154702,0.002
 39683,-0.00292267,-0.00080498,0.00143927,0.00120364,-0.00196304,-0.179
 98146,0.12799980,0.02642307,-0.00009937,-0.00004464,-0.00005618,-0.000
 09246,0.00005190,-0.00008707,-0.00039337,0.00014281,0.00007017,-0.0000
 3476,-0.00004210,0.00004780,0.00004068,-0.00084928,-0.00076394,0.00037
 143,0.00032238,0.00054892,0.00010086,-0.00047600,0.00091956,0.00032368
 ,-0.00005463,-0.00026491,0.19802470,0.00016346,0.00008526,0.00037006,-
 0.00014213,0.00025018,0.00009104,-0.00236341,-0.00074097,0.00019455,-0
 .00000162,0.00074532,-0.00015919,-0.00031177,0.00071184,0.00275189,-0.
 01108055,0.01087434,0.00004823,0.00530674,-0.00854114,0.00188744,0.000
 94941,0.00171843,-0.00129079,0.12579863,-0.16341572,-0.02401451,0.0000
 2916,0.00000977,-0.00001749,-0.00000166,-0.00002357,0.00000373,-0.0000
 8756,0.00003838,0.00007116,0.00002543,0.00000880,-0.00000333,0.0004328
 3,-0.00008816,-0.00226821,-0.00021450,0.00105410,0.00009171,0.00056934
 ,-0.00003795,-0.00014577,-0.00012410,0.00032260,-0.00033455,-0.1358992
 0,0.17146533,0.00007497,0.00006314,0.00023707,0.00030567,-0.00011234,0
 .00004047,-0.00247217,-0.00068234,-0.00044458,0.00031945,0.00030212,-0
 .00126284,0.00275954,0.00070418,-0.00128630,0.00221554,0.00462574,-0.0
 0004759,0.01702617,-0.01926411,0.00066099,0.00134333,-0.00040502,0.000
 46751,0.02513359,-0.02692335,-0.05452340,0.00001214,-0.00000543,-0.000
 00330,0.00001192,0.00001357,-0.00000297,0.00000876,0.00002485,0.000048
 60,-0.00000132,-0.00001114,-0.00002558,0.00151923,-0.00100806,-0.00357
 270,-0.00084036,0.00072737,0.00183320,-0.00023851,0.00025739,-0.000181
 78,-0.00008425,0.00026073,-0.00002582,-0.02980428,0.02669814,0.0537465
 5,-0.00025535,-0.00010200,-0.00017517,-0.00008706,-0.00000645,-0.00006
 781,0.00162403,-0.00011245,-0.00099908,0.00026524,-0.00004329,0.000621
 11,-0.00009976,0.00067593,0.00050661,-0.00104972,-0.02147695,0.0202462
 6,-0.00160079,0.00233928,-0.00090088,-0.00544789,-0.00102999,-0.000169
 21,-0.04565929,-0.00282517,0.00463799,0.00001775,0.00001633,0.00000946
 ,-0.00004475,-0.00000395,0.00000427,0.00001911,-0.00002381,-0.00002131
 ,0.00006092,0.00000089,0.00000956,0.00136571,0.00003686,0.00058424,0.0
 0003215,-0.00061890,-0.00079623,0.00010116,-0.00013697,-0.00011045,-0.
 00000545,-0.00008078,0.00155403,0.00214587,0.01695152,-0.01728942,0.04
 861812,0.00017440,-0.00001197,-0.00016541,0.00002381,0.00006099,0.0001
 8871,0.00141732,0.00104839,-0.00019890,0.00063606,-0.00018980,0.000284
 95,-0.00020153,-0.00031071,-0.00046692,0.00123150,-0.01082738,0.009432
 98,0.00032362,0.01091426,-0.01284548,-0.00298735,-0.00135533,-0.000895
 81,-0.00527937,-0.17991763,0.13724397,0.00000979,-0.00001268,-0.000005
 40,-0.00006734,0.00005207,0.00002662,-0.00002583,0.00001036,-0.0000688
 9,0.00001265,0.00003008,0.00003570,-0.00045575,0.00151315,0.00046887,0
 .00027987,-0.00026297,-0.00245073,0.00001759,0.00025393,-0.00044664,-0
 .00023362,0.00008417,0.00096531,-0.00131570,-0.01443685,0.01473455,0.0
 0643988,0.19335791,0.00025646,-0.00013964,-0.00018466,0.00019374,0.000
 03767,0.00023362,0.00040406,0.00021285,0.00133498,0.00028626,0.0000829
 7,-0.00085921,0.00029768,-0.00097709,-0.00117899,0.00016282,-0.0022227
 6,0.00262226,-0.00097252,0.01763830,-0.01927874,-0.00078413,-0.0017990
 8,0.00048341,0.00727996,0.13821495,-0.18168881,0.00000346,0.00000170,-
 0.00000721,0.00002106,0.00002064,0.00002797,0.00001544,-0.00000712,-0.
 00002430,-0.00003610,-0.00001709,-0.00002489,-0.00054231,0.00019167,0.
 00218792,0.00164732,-0.00116210,-0.00338816,0.00002195,-0.00001406,-0.
 00005798,-0.00012476,-0.00025025,0.00038502,-0.00048642,-0.00397409,0.
 00434249,-0.00764397,-0.14583747,0.19507528\\-0.00000014,0.00000012,0.
 00000027,0.00000015,0.00000024,0.00000024,-0.00000009,0.,0.00000008,0.
 00000010,0.00000011,0.00000006,0.00000012,0.00000003,-0.00000006,-0.00
 000014,-0.00000010,-0.00000002,0.00000016,-0.00000013,-0.00000030,-0.0
 0000005,0.,0.00000003,-0.00000010,-0.00000026,-0.00000028,-0.00000024,
 0.00000016,0.00000042,-0.00000018,0.00000008,0.00000025,0.00000024,0.0
 0000027,0.00000020,0.00000016,0.00000035,0.00000037,0.00000026,-0.0000
 0012,-0.00000038,0.00000022,-0.00000014,-0.00000038,-0.00000007,-0.000
 00005,-0.00000003,-0.00000008,0.00000011,0.00000021,-0.00000019,-0.000
 00033,-0.00000033,-0.00000013,-0.00000030,-0.00000034\\\@


 I DON'T EXACTLY UNDERSTAND WHAT YOU ARE SAYING,
 BUT YOU ARE ABSOLUTELY RIGHT.
     M.S.GORDON, IN A NDSU FACULTY MEETING
 Job cpu time:       0 days  1 hours 39 minutes 44.7 seconds.
 File lengths (MBytes):  RWF=    118 Int=      0 D2E=      0 Chk=      6 Scr=      1
 Normal termination of Gaussian 09 at Sun Apr 26 09:04:31 2015.
