 Entering Gaussian System, Link 0=g09
 Input=0_0freq-b971_463-51-4.gau
 Output=0_0freq-b971_463-51-4.log
 Initial command:
 /opt/g09/l1.exe "/scratch/pb556/g09_run/add_hco//Gau-14685.inp" -scrdir="/scratch/pb556/g09_run/add_hco//"
 Entering Link 1 = /opt/g09/l1.exe PID=     14694.
  
 Copyright (c) 1988,1990,1992,1993,1995,1998,2003,2009,2013,
            Gaussian, Inc.  All Rights Reserved.
  
 This is part of the Gaussian(R) 09 program.  It is based on
 the Gaussian(R) 03 system (copyright 2003, Gaussian, Inc.),
 the Gaussian(R) 98 system (copyright 1998, Gaussian, Inc.),
 the Gaussian(R) 94 system (copyright 1995, Gaussian, Inc.),
 the Gaussian 92(TM) system (copyright 1992, Gaussian, Inc.),
 the Gaussian 90(TM) system (copyright 1990, Gaussian, Inc.),
 the Gaussian 88(TM) system (copyright 1988, Gaussian, Inc.),
 the Gaussian 86(TM) system (copyright 1986, Carnegie Mellon
 University), and the Gaussian 82(TM) system (copyright 1983,
 Carnegie Mellon University). Gaussian is a federally registered
 trademark of Gaussian, Inc.
  
 This software contains proprietary and confidential information,
 including trade secrets, belonging to Gaussian, Inc.
  
 This software is provided under written license and may be
 used, copied, transmitted, or stored only in accord with that
 written license.
  
 The following legend is applicable only to US Government
 contracts under FAR:
  
                    RESTRICTED RIGHTS LEGEND
  
 Use, reproduction and disclosure by the US Government is
 subject to restrictions as set forth in subparagraphs (a)
 and (c) of the Commercial Computer Software - Restricted
 Rights clause in FAR 52.227-19.
  
 Gaussian, Inc.
 340 Quinnipiac St., Bldg. 40, Wallingford CT 06492
  
  
 ---------------------------------------------------------------
 Warning -- This program may not be used in any manner that
 competes with the business of Gaussian, Inc. or will provide
 assistance to any competitor of Gaussian, Inc.  The licensee
 of this program is prohibited from giving any competitor of
 Gaussian, Inc. access to this program.  By using this program,
 the user acknowledges that Gaussian, Inc. is engaged in the
 business of creating and licensing software in the field of
 computational chemistry and represents and warrants to the
 licensee that it is not a competitor of Gaussian, Inc. and that
 it will not use this program in any manner prohibited above.
 ---------------------------------------------------------------
  

 Cite this work as:
 Gaussian 09, Revision D.01,
 M. J. Frisch, G. W. Trucks, H. B. Schlegel, G. E. Scuseria, 
 M. A. Robb, J. R. Cheeseman, G. Scalmani, V. Barone, B. Mennucci, 
 G. A. Petersson, H. Nakatsuji, M. Caricato, X. Li, H. P. Hratchian, 
 A. F. Izmaylov, J. Bloino, G. Zheng, J. L. Sonnenberg, M. Hada, 
 M. Ehara, K. Toyota, R. Fukuda, J. Hasegawa, M. Ishida, T. Nakajima, 
 Y. Honda, O. Kitao, H. Nakai, T. Vreven, J. A. Montgomery, Jr., 
 J. E. Peralta, F. Ogliaro, M. Bearpark, J. J. Heyd, E. Brothers, 
 K. N. Kudin, V. N. Staroverov, T. Keith, R. Kobayashi, J. Normand, 
 K. Raghavachari, A. Rendell, J. C. Burant, S. S. Iyengar, J. Tomasi, 
 M. Cossi, N. Rega, J. M. Millam, M. Klene, J. E. Knox, J. B. Cross, 
 V. Bakken, C. Adamo, J. Jaramillo, R. Gomperts, R. E. Stratmann, 
 O. Yazyev, A. J. Austin, R. Cammi, C. Pomelli, J. W. Ochterski, 
 R. L. Martin, K. Morokuma, V. G. Zakrzewski, G. A. Voth, 
 P. Salvador, J. J. Dannenberg, S. Dapprich, A. D. Daniels, 
 O. Farkas, J. B. Foresman, J. V. Ortiz, J. Cioslowski, 
 and D. J. Fox, Gaussian, Inc., Wallingford CT, 2013.
 
 ******************************************
 Gaussian 09:  ES64L-G09RevD.01 24-Apr-2013
                26-Apr-2015 
 ******************************************
 %NProcShared=8
 Will use up to    8 processors via shared memory.
 %Mem=500MW
 ----------------------------------------------------------------------
 #p rB971/6-311+G(d,p) Opt=(Tight, CalcAll) Freq GFInput Population=Non
 e Integral(Grid=UltraFine) Guess=MIX NoSymmetry
 ----------------------------------------------------------------------
 1/7=10,10=4,14=-1,18=20,19=15,26=4,38=1/1,3;
 2/9=110,12=2,15=1,17=6,18=5,40=1/2;
 3/5=4,6=6,7=111,11=2,16=1,24=10,25=1,30=1,71=2,74=-20,75=-5,116=1,140=1/1,2,3;
 4/13=-1/1;
 5/5=2,38=5/2;
 8/6=4,10=90,11=11/1;
 11/6=1,8=1,9=11,15=111,16=1,31=1/1,2,10;
 10/6=1,31=1/2;
 7/10=1,25=1,30=1/1,2,3,16;
 1/7=10,10=4,14=-1,18=20,19=15,26=4/3(3);
 2/9=110,15=1/2;
 7/8=1,9=1,25=1,30=1,44=-1/16;
 99//99;
 2/9=110,15=1/2;
 3/5=4,6=6,7=111,11=2,16=1,25=1,30=1,71=2,74=-20,75=-5,116=1,140=1/1,2,3;
 4/5=5,16=3,69=1/1;
 5/5=2,38=5/2;
 8/6=4,10=90,11=11/1;
 11/6=1,8=1,9=11,15=111,16=1,31=1/1,2,10;
 10/6=1,31=1/2;
 7/10=1,25=1,30=1/1,2,3,16;
 1/7=10,10=4,14=-1,18=20,19=15,26=4/3(-8);
 2/9=110,15=1/2;
 7/8=1,9=1,25=1,30=1,44=-1/16;
 99//99;
 Leave Link    1 at Sun Apr 26 08:46:45 2015, MaxMem=   524288000 cpu:         0.5
 (Enter /opt/g09/l101.exe)
 ----------------------
 freq-b971_463-51-4.gau
 ----------------------
 Symbolic Z-matrix:
 Charge =  0 Multiplicity = 1
 C                     2.36623   0.24453   0.93959 
 C                     1.12225   0.66369   0.99314 
 O                     0.02187   1.03431   1.04049 
 H                     2.88873   0.00631   1.85632 
 H                     2.85382   0.14255  -0.02063 
 
 NAtoms=      5 NQM=        5 NQMF=       0 NMMI=      0 NMMIF=      0
                NMic=       0 NMicF=      0.
                    Isotopes and Nuclear Properties:
 (Nuclear quadrupole moments (NQMom) in fm**2, nuclear magnetic moments (NMagM)
  in nuclear magnetons)

  Atom         1           2           3           4           5
 IAtWgt=          12          12          16           1           1
 AtmWgt=  12.0000000  12.0000000  15.9949146   1.0078250   1.0078250
 NucSpn=           0           0           0           1           1
 AtZEff=   0.0000000   0.0000000   0.0000000   0.0000000   0.0000000
 NQMom=    0.0000000   0.0000000   0.0000000   0.0000000   0.0000000
 NMagM=    0.0000000   0.0000000   0.0000000   2.7928460   2.7928460
 AtZNuc=   6.0000000   6.0000000   8.0000000   1.0000000   1.0000000
 Leave Link  101 at Sun Apr 26 08:46:45 2015, MaxMem=   524288000 cpu:         1.9
 (Enter /opt/g09/l103.exe)

 GradGradGradGradGradGradGradGradGradGradGradGradGradGradGradGradGradGrad
 Berny optimization.
 Initialization pass.
                           ----------------------------
                           !    Initial Parameters    !
                           ! (Angstroms and Degrees)  !
 --------------------------                            --------------------------
 ! Name  Definition              Value          Derivative Info.                !
 --------------------------------------------------------------------------------
 ! R1    R(1,2)                  1.3138         calculate D2E/DX2 analytically  !
 ! R2    R(1,4)                  1.0817         calculate D2E/DX2 analytically  !
 ! R3    R(1,5)                  1.0817         calculate D2E/DX2 analytically  !
 ! R4    R(2,3)                  1.1621         calculate D2E/DX2 analytically  !
 ! A1    A(2,1,4)              119.5427         calculate D2E/DX2 analytically  !
 ! A2    A(2,1,5)              119.5414         calculate D2E/DX2 analytically  !
 ! A3    A(4,1,5)              120.9159         calculate D2E/DX2 analytically  !
 ! A4    L(1,2,3,5,-1)         179.9996         calculate D2E/DX2 analytically  !
 ! A5    L(1,2,3,5,-2)         179.9841         calculate D2E/DX2 analytically  !
 ! D1    D(2,1,5,4)            179.9912         calculate D2E/DX2 analytically  !
 --------------------------------------------------------------------------------
 Trust Radius=3.00D-01 FncErr=1.00D-07 GrdErr=1.00D-06
 Number of steps in this run=     20 maximum allowed number of steps=    100.
 GradGradGradGradGradGradGradGradGradGradGradGradGradGradGradGradGradGrad

 Leave Link  103 at Sun Apr 26 08:46:45 2015, MaxMem=   524288000 cpu:         0.1
 (Enter /opt/g09/l202.exe)
                          Input orientation:                          
 ---------------------------------------------------------------------
 Center     Atomic      Atomic             Coordinates (Angstroms)
 Number     Number       Type             X           Y           Z
 ---------------------------------------------------------------------
      1          6           0        2.366230    0.244530    0.939590
      2          6           0        1.122250    0.663690    0.993140
      3          8           0        0.021870    1.034310    1.040490
      4          1           0        2.888730    0.006310    1.856320
      5          1           0        2.853820    0.142550   -0.020630
 ---------------------------------------------------------------------
                    Distance matrix (angstroms):
                    1          2          3          4          5
     1  C    0.000000
     2  C    1.313792   0.000000
     3  O    2.475875   1.162083   0.000000
     4  H    1.081734   2.073085   3.152975   0.000000
     5  H    1.081742   2.073078   3.152959   1.882212   0.000000
 Symmetry turned off by external request.
 Stoichiometry    C2H2O
 Framework group  C1[X(C2H2O)]
 Deg. of freedom     9
 Full point group                 C1      NOp   1
 Rotational constants (GHZ):    283.0903346     10.2780416      9.9179547
 Leave Link  202 at Sun Apr 26 08:46:45 2015, MaxMem=   524288000 cpu:         0.0
 (Enter /opt/g09/l301.exe)
 Standard basis: 6-311+G(d,p) (5D, 7F)
 Ernie: Thresh=  0.10000D-02 Tol=  0.10000D-05 Strict=F.
 AO basis set in the form of general basis input (Overlap normalization):
      1 0
 S   6 1.00       0.000000000000
      0.4563240000D+04  0.1966650249D-02
      0.6820240000D+03  0.1523060193D-01
      0.1549730000D+03  0.7612690966D-01
      0.4445530000D+02  0.2608010331D+00
      0.1302900000D+02  0.6164620782D+00
      0.1827730000D+01  0.2210060280D+00
 SP   3 1.00       0.000000000000
      0.2096420000D+02  0.1146600807D+00  0.4024869267D-01
      0.4803310000D+01  0.9199996477D+00  0.2375939567D+00
      0.1459330000D+01 -0.3030682134D-02  0.8158538515D+00
 SP   1 1.00       0.000000000000
      0.4834560000D+00  0.1000000000D+01  0.1000000000D+01
 SP   1 1.00       0.000000000000
      0.1455850000D+00  0.1000000000D+01  0.1000000000D+01
 SP   1 1.00       0.000000000000
      0.4380000000D-01  0.1000000000D+01  0.1000000000D+01
 D   1 1.00       0.000000000000
      0.6260000000D+00  0.1000000000D+01
 ****
      2 0
 S   6 1.00       0.000000000000
      0.4563240000D+04  0.1966650249D-02
      0.6820240000D+03  0.1523060193D-01
      0.1549730000D+03  0.7612690966D-01
      0.4445530000D+02  0.2608010331D+00
      0.1302900000D+02  0.6164620782D+00
      0.1827730000D+01  0.2210060280D+00
 SP   3 1.00       0.000000000000
      0.2096420000D+02  0.1146600807D+00  0.4024869267D-01
      0.4803310000D+01  0.9199996477D+00  0.2375939567D+00
      0.1459330000D+01 -0.3030682134D-02  0.8158538515D+00
 SP   1 1.00       0.000000000000
      0.4834560000D+00  0.1000000000D+01  0.1000000000D+01
 SP   1 1.00       0.000000000000
      0.1455850000D+00  0.1000000000D+01  0.1000000000D+01
 SP   1 1.00       0.000000000000
      0.4380000000D-01  0.1000000000D+01  0.1000000000D+01
 D   1 1.00       0.000000000000
      0.6260000000D+00  0.1000000000D+01
 ****
      3 0
 S   6 1.00       0.000000000000
      0.8588500000D+04  0.1895150083D-02
      0.1297230000D+04  0.1438590063D-01
      0.2992960000D+03  0.7073200310D-01
      0.8737710000D+02  0.2400010105D+00
      0.2567890000D+02  0.5947970261D+00
      0.3740040000D+01  0.2808020123D+00
 SP   3 1.00       0.000000000000
      0.4211750000D+02  0.1138890124D+00  0.3651139738D-01
      0.9628370000D+01  0.9208111006D+00  0.2371529830D+00
      0.2853320000D+01 -0.3274470358D-02  0.8197019412D+00
 SP   1 1.00       0.000000000000
      0.9056610000D+00  0.1000000000D+01  0.1000000000D+01
 SP   1 1.00       0.000000000000
      0.2556110000D+00  0.1000000000D+01  0.1000000000D+01
 SP   1 1.00       0.000000000000
      0.8450000000D-01  0.1000000000D+01  0.1000000000D+01
 D   1 1.00       0.000000000000
      0.1292000000D+01  0.1000000000D+01
 ****
      4 0
 S   3 1.00       0.000000000000
      0.3386500000D+02  0.2549381454D-01
      0.5094790000D+01  0.1903731086D+00
      0.1158790000D+01  0.8521614860D+00
 S   1 1.00       0.000000000000
      0.3258400000D+00  0.1000000000D+01
 S   1 1.00       0.000000000000
      0.1027410000D+00  0.1000000000D+01
 P   1 1.00       0.000000000000
      0.7500000000D+00  0.1000000000D+01
 ****
      5 0
 S   3 1.00       0.000000000000
      0.3386500000D+02  0.2549381454D-01
      0.5094790000D+01  0.1903731086D+00
      0.1158790000D+01  0.8521614860D+00
 S   1 1.00       0.000000000000
      0.3258400000D+00  0.1000000000D+01
 S   1 1.00       0.000000000000
      0.1027410000D+00  0.1000000000D+01
 P   1 1.00       0.000000000000
      0.7500000000D+00  0.1000000000D+01
 ****

    78 basis functions,   124 primitive gaussians,    81 cartesian basis functions
    11 alpha electrons       11 beta electrons
       nuclear repulsion energy        58.5171757718 Hartrees.
 IExCor= 1614 DFT=T Ex+Corr=B971 ExCW=0 ScaHFX=  0.210000
 ScaDFX=  1.000000  1.000000  1.000000  1.000000 ScalE2=  1.000000  1.000000
 IRadAn=      5 IRanWt=     -1 IRanGd=            0 ICorTp=0 IEmpDi=  4
 NAtoms=    5 NActive=    5 NUniq=    5 SFac= 1.00D+00 NAtFMM=   60 NAOKFM=F Big=F
 Integral buffers will be    131072 words long.
 Raffenetti 2 integral format.
 Two-electron integral symmetry is turned off.
 Leave Link  301 at Sun Apr 26 08:46:45 2015, MaxMem=   524288000 cpu:         0.4
 (Enter /opt/g09/l302.exe)
 NPDir=0 NMtPBC=     1 NCelOv=     1 NCel=       1 NClECP=     1 NCelD=      1
         NCelK=      1 NCelE2=     1 NClLst=     1 CellRange=     0.0.
 One-electron integrals computed using PRISM.
 NBasis=    78 RedAO= T EigKep=  6.03D-05  NBF=    78
 NBsUse=    78 1.00D-06 EigRej= -1.00D+00 NBFU=    78
 Precomputing XC quadrature grid using
 IXCGrd= 4 IRadAn=           5 IRanWt=          -1 IRanGd=           0 AccXCQ= 0.00D+00.
 Generated NRdTot=       0 NPtTot=           0 NUsed=           0 NTot=          32
 NSgBfM=    81    81    81    81    81 MxSgAt=     5 MxSgA2=     5.
 Leave Link  302 at Sun Apr 26 08:46:45 2015, MaxMem=   524288000 cpu:         1.3
 (Enter /opt/g09/l303.exe)
 DipDrv:  MaxL=1.
 Leave Link  303 at Sun Apr 26 08:46:46 2015, MaxMem=   524288000 cpu:         0.3
 (Enter /opt/g09/l401.exe)
 ExpMin= 4.38D-02 ExpMax= 8.59D+03 ExpMxC= 1.30D+03 IAcc=3 IRadAn=         5 AccDes= 0.00D+00
 Harris functional with IExCor= 1614 and IRadAn=       5 diagonalized for initial guess.
 HarFok:  IExCor= 1614 AccDes= 0.00D+00 IRadAn=         5 IDoV= 1 UseB2=F ITyADJ=14
 ICtDFT=  3500011 ScaDFX=  1.000000  1.000000  1.000000  1.000000
 FoFCou: FMM=F IPFlag=           0 FMFlag=      100000 FMFlg1=           0
         NFxFlg=           0 DoJE=T BraDBF=F KetDBF=T FulRan=T
         wScrn=  0.000000 ICntrl=     500 IOpCl=  0 I1Cent=   200000004 NGrid=           0
         NMat0=    1 NMatS0=      1 NMatT0=    0 NMatD0=    1 NMtDS0=    0 NMtDT0=    0
 Symmetry not used in FoFCou.
 Harris En= -148.630898898351    
 JPrj=0 DoOrth=F DoCkMO=T.
 Mixing orbitals, IMix= 1 IMixAn=  0 NRI=1 NE=   11 Coef=  7.07106781D-01  7.07106781D-01
 Leave Link  401 at Sun Apr 26 08:46:46 2015, MaxMem=   524288000 cpu:         2.2
 (Enter /opt/g09/l502.exe)
 Closed shell SCF:
 Using DIIS extrapolation, IDIIS=  1040.
 Two-electron integral symmetry not used.
 Keep R1 ints in memory in canonical form, NReq=5691784.
 IVT=       39377 IEndB=       39377 NGot=   524288000 MDV=   519500803
 LenX=   519500803 LenY=   519493801
 Requested convergence on RMS density matrix=1.00D-08 within 128 cycles.
 Requested convergence on MAX density matrix=1.00D-06.
 Requested convergence on             energy=1.00D-06.
 No special actions if energy rises.
 FoFCou: FMM=F IPFlag=           0 FMFlag=           0 FMFlg1=           0
         NFxFlg=           0 DoJE=F BraDBF=F KetDBF=F FulRan=T
         wScrn=  0.000000 ICntrl=     600 IOpCl=  0 I1Cent=           0 NGrid=           0
         NMat0=    1 NMatS0=   3081 NMatT0=    0 NMatD0=    1 NMtDS0=    0 NMtDT0=    0
 Symmetry not used in FoFCou.

 Cycle   1  Pass 1  IDiag  1:
 E= -152.397364804373    
 DIIS: error= 9.80D-02 at cycle   1 NSaved=   1.
 NSaved= 1 IEnMin= 1 EnMin= -152.397364804373     IErMin= 1 ErrMin= 9.80D-02
 ErrMax= 9.80D-02  0.00D+00 EMaxC= 1.00D-01 BMatC= 2.92D-01 BMatP= 2.92D-01
 IDIUse=3 WtCom= 1.98D-02 WtEn= 9.80D-01
 Coeff-Com:  0.100D+01
 Coeff-En:   0.100D+01
 Coeff:      0.100D+01
 Gap=     0.062 Goal=   None    Shift=    0.000
 GapD=    0.062 DampG=0.500 DampE=0.500 DampFc=0.2500 IDamp=-1.
 Damping current iteration by 2.50D-01
 RMSDP=1.03D-02 MaxDP=1.45D-01              OVMax= 5.63D-01

 Cycle   2  Pass 1  IDiag  1:
 E= -152.442268543032     Delta-E=       -0.044903738659 Rises=F Damp=T
 DIIS: error= 7.08D-02 at cycle   2 NSaved=   2.
 NSaved= 2 IEnMin= 2 EnMin= -152.442268543032     IErMin= 2 ErrMin= 7.08D-02
 ErrMax= 7.08D-02  0.00D+00 EMaxC= 1.00D-01 BMatC= 1.44D-01 BMatP= 2.92D-01
 IDIUse=3 WtCom= 2.92D-01 WtEn= 7.08D-01
 Coeff-Com: -0.160D+01 0.260D+01
 Coeff-En:   0.000D+00 0.100D+01
 Coeff:     -0.467D+00 0.147D+01
 Gap=     0.186 Goal=   None    Shift=    0.000
 RMSDP=7.88D-03 MaxDP=1.01D-01 DE=-4.49D-02 OVMax= 1.12D-01

 Cycle   3  Pass 1  IDiag  1:
 E= -152.593531832239     Delta-E=       -0.151263289206 Rises=F Damp=F
 DIIS: error= 1.18D-02 at cycle   3 NSaved=   3.
 NSaved= 3 IEnMin= 3 EnMin= -152.593531832239     IErMin= 3 ErrMin= 1.18D-02
 ErrMax= 1.18D-02  0.00D+00 EMaxC= 1.00D-01 BMatC= 4.74D-03 BMatP= 1.44D-01
 IDIUse=3 WtCom= 8.82D-01 WtEn= 1.18D-01
 Coeff-Com: -0.352D+00 0.517D+00 0.835D+00
 Coeff-En:   0.000D+00 0.000D+00 0.100D+01
 Coeff:     -0.311D+00 0.457D+00 0.854D+00
 Gap=     0.195 Goal=   None    Shift=    0.000
 RMSDP=1.60D-03 MaxDP=1.45D-02 DE=-1.51D-01 OVMax= 9.86D-02

 Cycle   4  Pass 1  IDiag  1:
 E= -152.598171082127     Delta-E=       -0.004639249889 Rises=F Damp=F
 DIIS: error= 8.06D-03 at cycle   4 NSaved=   4.
 NSaved= 4 IEnMin= 4 EnMin= -152.598171082127     IErMin= 4 ErrMin= 8.06D-03
 ErrMax= 8.06D-03  0.00D+00 EMaxC= 1.00D-01 BMatC= 3.73D-03 BMatP= 4.74D-03
 IDIUse=3 WtCom= 9.19D-01 WtEn= 8.06D-02
 Coeff-Com: -0.534D-01 0.906D-01 0.477D+00 0.486D+00
 Coeff-En:   0.000D+00 0.000D+00 0.210D+00 0.790D+00
 Coeff:     -0.491D-01 0.833D-01 0.456D+00 0.510D+00
 Gap=     0.211 Goal=   None    Shift=    0.000
 RMSDP=6.32D-04 MaxDP=1.02D-02 DE=-4.64D-03 OVMax= 4.08D-02

 Cycle   5  Pass 1  IDiag  1:
 E= -152.601778067064     Delta-E=       -0.003606984936 Rises=F Damp=F
 DIIS: error= 2.71D-03 at cycle   5 NSaved=   5.
 NSaved= 5 IEnMin= 5 EnMin= -152.601778067064     IErMin= 5 ErrMin= 2.71D-03
 ErrMax= 2.71D-03  0.00D+00 EMaxC= 1.00D-01 BMatC= 3.68D-04 BMatP= 3.73D-03
 IDIUse=3 WtCom= 9.73D-01 WtEn= 2.71D-02
 Coeff-Com:  0.482D-01-0.696D-01 0.861D-02 0.252D+00 0.761D+00
 Coeff-En:   0.000D+00 0.000D+00 0.000D+00 0.329D-01 0.967D+00
 Coeff:      0.469D-01-0.677D-01 0.837D-02 0.246D+00 0.767D+00
 Gap=     0.210 Goal=   None    Shift=    0.000
 RMSDP=3.07D-04 MaxDP=3.83D-03 DE=-3.61D-03 OVMax= 2.27D-02

 Cycle   6  Pass 1  IDiag  1:
 E= -152.602317425382     Delta-E=       -0.000539358318 Rises=F Damp=F
 DIIS: error= 9.34D-04 at cycle   6 NSaved=   6.
 NSaved= 6 IEnMin= 6 EnMin= -152.602317425382     IErMin= 6 ErrMin= 9.34D-04
 ErrMax= 9.34D-04  0.00D+00 EMaxC= 1.00D-01 BMatC= 3.75D-05 BMatP= 3.68D-04
 IDIUse=3 WtCom= 9.91D-01 WtEn= 9.34D-03
 Coeff-Com:  0.165D-01-0.251D-01-0.669D-01 0.222D-01 0.342D+00 0.711D+00
 Coeff-En:   0.000D+00 0.000D+00 0.000D+00 0.000D+00 0.000D+00 0.100D+01
 Coeff:      0.164D-01-0.248D-01-0.663D-01 0.220D-01 0.339D+00 0.713D+00
 Gap=     0.211 Goal=   None    Shift=    0.000
 RMSDP=1.03D-04 MaxDP=1.45D-03 DE=-5.39D-04 OVMax= 7.42D-03

 Cycle   7  Pass 1  IDiag  1:
 E= -152.602376095617     Delta-E=       -0.000058670235 Rises=F Damp=F
 DIIS: error= 1.51D-04 at cycle   7 NSaved=   7.
 NSaved= 7 IEnMin= 7 EnMin= -152.602376095617     IErMin= 7 ErrMin= 1.51D-04
 ErrMax= 1.51D-04  0.00D+00 EMaxC= 1.00D-01 BMatC= 1.44D-06 BMatP= 3.75D-05
 IDIUse=3 WtCom= 9.98D-01 WtEn= 1.51D-03
 Coeff-Com: -0.474D-02 0.586D-02-0.138D-01-0.202D-01 0.179D-01 0.165D+00
 Coeff-Com:  0.850D+00
 Coeff-En:   0.000D+00 0.000D+00 0.000D+00 0.000D+00 0.000D+00 0.000D+00
 Coeff-En:   0.100D+01
 Coeff:     -0.473D-02 0.585D-02-0.138D-01-0.202D-01 0.179D-01 0.165D+00
 Coeff:      0.850D+00
 Gap=     0.211 Goal=   None    Shift=    0.000
 RMSDP=2.40D-05 MaxDP=2.54D-04 DE=-5.87D-05 OVMax= 1.75D-03

 Cycle   8  Pass 1  IDiag  1:
 E= -152.602378655099     Delta-E=       -0.000002559482 Rises=F Damp=F
 DIIS: error= 3.63D-05 at cycle   8 NSaved=   8.
 NSaved= 8 IEnMin= 8 EnMin= -152.602378655099     IErMin= 8 ErrMin= 3.63D-05
 ErrMax= 3.63D-05  0.00D+00 EMaxC= 1.00D-01 BMatC= 5.48D-08 BMatP= 1.44D-06
 IDIUse=1 WtCom= 1.00D+00 WtEn= 0.00D+00
 Coeff-Com: -0.645D-03 0.931D-03 0.189D-02-0.335D-02-0.132D-01-0.312D-01
 Coeff-Com:  0.109D+00 0.937D+00
 Coeff:     -0.645D-03 0.931D-03 0.189D-02-0.335D-02-0.132D-01-0.312D-01
 Coeff:      0.109D+00 0.937D+00
 Gap=     0.210 Goal=   None    Shift=    0.000
 RMSDP=5.32D-06 MaxDP=5.45D-05 DE=-2.56D-06 OVMax= 3.86D-04

 Cycle   9  Pass 1  IDiag  1:
 E= -152.602378758212     Delta-E=       -0.000000103113 Rises=F Damp=F
 DIIS: error= 5.51D-06 at cycle   9 NSaved=   9.
 NSaved= 9 IEnMin= 9 EnMin= -152.602378758212     IErMin= 9 ErrMin= 5.51D-06
 ErrMax= 5.51D-06  0.00D+00 EMaxC= 1.00D-01 BMatC= 1.37D-09 BMatP= 5.48D-08
 IDIUse=1 WtCom= 1.00D+00 WtEn= 0.00D+00
 Coeff-Com:  0.125D-03-0.156D-03 0.321D-03 0.101D-03-0.225D-02-0.570D-02
 Coeff-Com:  0.988D-03 0.132D+00 0.874D+00
 Coeff:      0.125D-03-0.156D-03 0.321D-03 0.101D-03-0.225D-02-0.570D-02
 Coeff:      0.988D-03 0.132D+00 0.874D+00
 Gap=     0.210 Goal=   None    Shift=    0.000
 RMSDP=5.68D-07 MaxDP=5.04D-06 DE=-1.03D-07 OVMax= 3.20D-05

 Cycle  10  Pass 1  IDiag  1:
 E= -152.602378760134     Delta-E=       -0.000000001921 Rises=F Damp=F
 DIIS: error= 7.05D-07 at cycle  10 NSaved=  10.
 NSaved=10 IEnMin=10 EnMin= -152.602378760134     IErMin=10 ErrMin= 7.05D-07
 ErrMax= 7.05D-07  0.00D+00 EMaxC= 1.00D-01 BMatC= 1.37D-11 BMatP= 1.37D-09
 IDIUse=1 WtCom= 1.00D+00 WtEn= 0.00D+00
 Coeff-Com:  0.111D-04-0.169D-04-0.366D-04 0.419D-04 0.248D-03 0.878D-03
 Coeff-Com: -0.208D-02-0.237D-01 0.297D-01 0.995D+00
 Coeff:      0.111D-04-0.169D-04-0.366D-04 0.419D-04 0.248D-03 0.878D-03
 Coeff:     -0.208D-02-0.237D-01 0.297D-01 0.995D+00
 Gap=     0.210 Goal=   None    Shift=    0.000
 RMSDP=7.43D-08 MaxDP=7.84D-07 DE=-1.92D-09 OVMax= 3.59D-06

 Cycle  11  Pass 1  IDiag  1:
 E= -152.602378760156     Delta-E=       -0.000000000022 Rises=F Damp=F
 DIIS: error= 7.39D-08 at cycle  11 NSaved=  11.
 NSaved=11 IEnMin=11 EnMin= -152.602378760156     IErMin=11 ErrMin= 7.39D-08
 ErrMax= 7.39D-08  0.00D+00 EMaxC= 1.00D-01 BMatC= 1.15D-13 BMatP= 1.37D-11
 IDIUse=1 WtCom= 1.00D+00 WtEn= 0.00D+00
 Coeff-Com: -0.105D-05 0.140D-05-0.210D-05 0.152D-05 0.346D-04 0.100D-03
 Coeff-Com: -0.148D-03-0.284D-02-0.967D-02 0.348D-01 0.978D+00
 Coeff:     -0.105D-05 0.140D-05-0.210D-05 0.152D-05 0.346D-04 0.100D-03
 Coeff:     -0.148D-03-0.284D-02-0.967D-02 0.348D-01 0.978D+00
 Gap=     0.210 Goal=   None    Shift=    0.000
 RMSDP=9.82D-09 MaxDP=1.08D-07 DE=-2.25D-11 OVMax= 4.20D-07

 SCF Done:  E(RB971) =  -152.602378760     A.U. after   11 cycles
            NFock= 11  Conv=0.98D-08     -V/T= 2.0032
 KE= 1.521132871180D+02 PE=-4.741392284766D+02 EE= 1.109063868266D+02
 Leave Link  502 at Sun Apr 26 08:46:49 2015, MaxMem=   524288000 cpu:        19.6
 (Enter /opt/g09/l801.exe)
 DoSCS=F DFT=T ScalE2(SS,OS)=  1.000000  1.000000
 Range of M.O.s used for correlation:     1    78
 NBasis=    78 NAE=    11 NBE=    11 NFC=     0 NFV=     0
 NROrb=     78 NOA=    11 NOB=    11 NVA=    67 NVB=    67

 **** Warning!!: The largest alpha MO coefficient is  0.37596585D+02

 Leave Link  801 at Sun Apr 26 08:46:49 2015, MaxMem=   524288000 cpu:         0.3
 (Enter /opt/g09/l1101.exe)
 Using compressed storage, NAtomX=     5.
 Will process      6 centers per pass.
 Leave Link 1101 at Sun Apr 26 08:46:49 2015, MaxMem=   524288000 cpu:         1.2
 (Enter /opt/g09/l1102.exe)
 Symmetrizing basis deriv contribution to polar:
 IMax=3 JMax=2 DiffMx= 0.00D+00
 Leave Link 1102 at Sun Apr 26 08:46:49 2015, MaxMem=   524288000 cpu:         0.3
 (Enter /opt/g09/l1110.exe)
 Forming Gx(P) for the SCF density, NAtomX=     5.
 Integral derivatives from FoFJK, PRISM(SPDF).
 Do as many integral derivatives as possible in FoFJK.
 G2DrvN: MDV=     524287856.
 G2DrvN: will do     6 centers at a time, making    1 passes.
 Calling FoFCou, ICntrl=  3107 FMM=F I1Cent=   0 AccDes= 0.00D+00.
 FoFJK:  IHMeth= 1 ICntrl=    3107 DoSepK=F KAlg= 0 I1Cent=   0 FoldK=F
 IRaf=         0 NMat=   1 IRICut=       1 DoRegI=T DoRafI=F ISym2E= 0.
 FoFCou: FMM=F IPFlag=           0 FMFlag=      100000 FMFlg1=           0
         NFxFlg=           0 DoJE=F BraDBF=F KetDBF=F FulRan=T
         wScrn=  0.000000 ICntrl=    3107 IOpCl=  0 I1Cent=           0 NGrid=           0
         NMat0=    1 NMatS0=      1 NMatT0=    0 NMatD0=    1 NMtDS0=    0 NMtDT0=    0
 Symmetry not used in FoFCou.
 End of G2Drv F.D. properties file   721 does not exist.
 End of G2Drv F.D. properties file   722 does not exist.
 End of G2Drv F.D. properties file   788 does not exist.
 Leave Link 1110 at Sun Apr 26 08:46:52 2015, MaxMem=   524288000 cpu:        25.0
 (Enter /opt/g09/l1002.exe)
 Minotr:  Closed shell wavefunction.
          IDoAtm=11111
          Direct CPHF calculation.
          Differentiating once with respect to electric field.
                with respect to dipole field.
          Differentiating once with respect to nuclear coordinates.
          Requested convergence is 1.0D-08 RMS, and 1.0D-07 maximum.
          Secondary convergence is 1.0D-12 RMS, and 1.0D-12 maximum.
          NewPWx=T KeepS1=F KeepF1=F KeepIn=T MapXYZ=F SortEE=F KeepMc=T.
          MDV=     524287868 using IRadAn=       1.
 Generate precomputed XC quadrature information.
 Keep R1 ints in memory in canonical form, NReq=5651458.
 FoFCou: FMM=F IPFlag=           0 FMFlag=           0 FMFlg1=           0
         NFxFlg=           0 DoJE=F BraDBF=F KetDBF=F FulRan=T
         wScrn=  0.000000 ICntrl=     600 IOpCl=  0 I1Cent=           0 NGrid=           0
         NMat0=    1 NMatS0=   3081 NMatT0=    0 NMatD0=    1 NMtDS0=    0 NMtDT0=    0
 Symmetry not used in FoFCou.
          Solving linear equations simultaneously, MaxMat=       0.
          There are    18 degrees of freedom in the 1st order CPHF.  IDoFFX=6 NUNeed=     3.
     15 vectors produced by pass  0 Test12= 4.09D-15 5.56D-09 XBig12= 4.56D+01 4.89D+00.
 AX will form    15 AO Fock derivatives at one time.
     15 vectors produced by pass  1 Test12= 4.09D-15 5.56D-09 XBig12= 1.47D+01 1.17D+00.
     15 vectors produced by pass  2 Test12= 4.09D-15 5.56D-09 XBig12= 2.18D-01 1.08D-01.
     15 vectors produced by pass  3 Test12= 4.09D-15 5.56D-09 XBig12= 1.26D-03 1.02D-02.
     15 vectors produced by pass  4 Test12= 4.09D-15 5.56D-09 XBig12= 3.29D-06 5.88D-04.
     11 vectors produced by pass  5 Test12= 4.09D-15 5.56D-09 XBig12= 7.49D-09 1.82D-05.
      6 vectors produced by pass  6 Test12= 4.09D-15 5.56D-09 XBig12= 1.45D-11 1.33D-06.
      1 vectors produced by pass  7 Test12= 4.09D-15 5.56D-09 XBig12= 2.93D-14 5.82D-08.
 InvSVY:  IOpt=1 It=  1 EMax= 2.00D-15
 Solved reduced A of dimension    93 with    15 vectors.
 FullF1:  Do perturbations    1 to     3.
 Isotropic polarizability for W=    0.000000       25.54 Bohr**3.
 End of Minotr F.D. properties file   721 does not exist.
 End of Minotr F.D. properties file   722 does not exist.
 End of Minotr F.D. properties file   788 does not exist.
 Leave Link 1002 at Sun Apr 26 08:46:56 2015, MaxMem=   524288000 cpu:        32.1
 (Enter /opt/g09/l701.exe)
 Compute integral second derivatives.
 ... and contract with generalized density number  0.
 Leave Link  701 at Sun Apr 26 08:46:56 2015, MaxMem=   524288000 cpu:         2.1
 (Enter /opt/g09/l702.exe)
 L702 exits ... SP integral derivatives will be done elsewhere.
 Leave Link  702 at Sun Apr 26 08:46:56 2015, MaxMem=   524288000 cpu:         0.3
 (Enter /opt/g09/l703.exe)
 Compute integral second derivatives, UseDBF=F ICtDFT=           0.
 Integral derivatives from FoFJK, PRISM(SPDF).
 Calling FoFJK, ICntrl=    100127 FMM=F ISym2X=0 I1Cent= 0 IOpClX= 0 NMat=1 NMatS=1 NMatT=0.
 FoFJK:  IHMeth= 1 ICntrl=  100127 DoSepK=F KAlg= 0 I1Cent=   0 FoldK=F
 IRaf=         0 NMat=   1 IRICut=       1 DoRegI=T DoRafI=F ISym2E= 0.
 FoFCou: FMM=F IPFlag=           0 FMFlag=      100000 FMFlg1=         800
         NFxFlg=           0 DoJE=F BraDBF=F KetDBF=F FulRan=T
         wScrn=  0.000000 ICntrl=  100127 IOpCl=  0 I1Cent=           0 NGrid=           0
         NMat0=    1 NMatS0=      1 NMatT0=    0 NMatD0=    1 NMtDS0=    0 NMtDT0=    0
 Symmetry not used in FoFCou.
 Leave Link  703 at Sun Apr 26 08:47:04 2015, MaxMem=   524288000 cpu:        56.7
 (Enter /opt/g09/l716.exe)
 Dipole        = 5.69837295D-01-1.91896141D-01-2.45211148D-02
 Polarizability= 3.92963944D+01-7.05879209D+00 2.07128114D+01
                -9.34864071D-01 4.32669163D-01 1.66077293D+01
 -------------------------------------------------------------------
 Center     Atomic                   Forces (Hartrees/Bohr)
 Number     Number              X              Y              Z
 -------------------------------------------------------------------
      1        6           0.000003500    0.000005939   -0.000004141
      2        6          -0.000012087   -0.000010933    0.000000780
      3        8           0.000009049    0.000004664   -0.000000633
      4        1           0.000000827    0.000000074    0.000000611
      5        1          -0.000001289    0.000000255    0.000003383
 -------------------------------------------------------------------
 Cartesian Forces:  Max     0.000012087 RMS     0.000005472
 Force constants in Cartesian coordinates: 
                1             2             3             4             5 
      1  0.731267D+00
      2 -0.232740D+00  0.123637D+00
      3 -0.190788D-01 -0.312645D-01  0.612037D+00
      4 -0.475269D+00  0.148410D+00  0.176311D-01  0.142636D+01
      5  0.148414D+00 -0.853591D-01 -0.118601D-02 -0.446875D+00  0.250749D+00
      6  0.176295D-01 -0.118734D-02 -0.107537D+00 -0.559266D-01  0.145377D-01
      7 -0.473647D-01  0.206284D-01  0.310192D-02 -0.909050D+00  0.287616D+00
      8  0.206354D-01  0.712943D-02 -0.269444D-02  0.287603D+00 -0.152045D+00
      9  0.310401D-02 -0.269418D-02  0.387043D-01  0.365853D-01 -0.116318D-01
     10 -0.108969D+00  0.416331D-01 -0.124556D+00 -0.214755D-01  0.727145D-02
     11  0.417805D-01 -0.288151D-01  0.588841D-01  0.551905D-02 -0.727387D-02
     12 -0.126870D+00  0.596760D-01 -0.260855D+00  0.187412D-02 -0.127637D-02
     13 -0.996635D-01  0.220680D-01  0.122902D+00 -0.205618D-01  0.357401D-02
     14  0.219097D-01 -0.165924D-01 -0.237392D-01  0.534298D-02 -0.607160D-02
     15  0.125216D+00 -0.245300D-01 -0.282350D+00 -0.164008D-03 -0.443455D-03
                6             7             8             9            10 
      6  0.166947D+00
      7  0.365878D-01  0.950666D+00
      8 -0.116325D-01 -0.309621D+00  0.135648D+00
      9 -0.667893D-01 -0.396028D-01  0.133666D-01  0.323181D-01
     10 -0.247161D-01  0.301837D-02  0.388572D-03  0.379574D-02  0.117561D+00
     11  0.776103D-02  0.382079D-03  0.482256D-02 -0.803483D-03 -0.469908D-01
     12  0.474903D-02  0.384887D-02 -0.820188D-03 -0.244988D-02  0.133850D+00
     13  0.264254D-01  0.273085D-02  0.994239D-03 -0.388233D-02  0.986558D-02
     14 -0.947881D-02  0.995027D-03  0.444434D-02  0.176288D-02 -0.230226D-02
     15  0.263081D-02 -0.393586D-02  0.178056D-02 -0.178321D-02  0.116268D-01
               11            12            13            14            15 
     11  0.254978D-01
     12 -0.631183D-01  0.271681D+00
     13 -0.690791D-03 -0.127021D-01  0.107629D+00
     14  0.576858D-02  0.553889D-02 -0.259455D-01  0.124511D-01
     15 -0.272335D-02 -0.131252D-01 -0.132743D+00  0.259162D-01  0.294627D+00
 FormGI is forming the generalized inverse of G from B-inverse, IUseBI=4.
 Force constants in internal coordinates: 
                1             2             3             4             5 
      1  0.620960D+00
      2  0.547187D-02  0.366921D+00
      3  0.546903D-02  0.150223D-02  0.366893D+00
      4  0.491612D-01 -0.489095D-02 -0.489498D-02  0.105665D+01
      5  0.137325D-01  0.109201D-01 -0.134683D-01 -0.190918D-03  0.574914D-01
      6  0.137474D-01 -0.134654D-01  0.109234D-01 -0.172138D-03 -0.274979D-01
      7 -0.274799D-01  0.254534D-02  0.254493D-02  0.363056D-03 -0.299935D-01
      8 -0.792670D-05  0.292571D-03 -0.292262D-03  0.428569D-04  0.206587D-01
      9  0.148404D-04 -0.121308D-05 -0.408610D-05 -0.319076D-05  0.000000D+00
     10  0.946188D-05  0.771173D-05  0.235160D-05  0.219306D-05  0.000000D+00
                6             7             8             9            10 
      6  0.574835D-01
      7 -0.299856D-01  0.599791D-01
      8 -0.206615D-01  0.275978D-05  0.147614D+00
      9  0.459822D-05 -0.586836D-05 -0.694035D-05  0.311701D-01
     10  0.116732D-05  0.000000D+00  0.927330D-05 -0.856753D-02  0.164662D-01
 Leave Link  716 at Sun Apr 26 08:47:04 2015, MaxMem=   524288000 cpu:         0.3
 (Enter /opt/g09/l103.exe)

 GradGradGradGradGradGradGradGradGradGradGradGradGradGradGradGradGradGrad
 Berny optimization.
 Red2BG is reusing G-inverse.
 Internal  Forces:  Max     0.000007478 RMS     0.000003520
 Search for a local minimum.
 Step number   1 out of a maximum of   20
 All quantities printed in internal units (Hartrees-Bohrs-Radians)
 RMS Force = .35204D-05 SwitMx=.10000D-02 MixMth= 2
 Mixed Optimization -- En-DIIS/RFO-DIIS
 Second derivative matrix not updated -- analytic derivatives used.
 The second derivative matrix:
                          R1        R2        R3        R4        A1
           R1           0.62096
           R2           0.00547   0.36692
           R3           0.00547   0.00150   0.36689
           R4           0.04916  -0.00489  -0.00489   1.05665
           A1           0.01373   0.01092  -0.01347  -0.00019   0.05749
           A2           0.01375  -0.01347   0.01092  -0.00017  -0.02750
           A3          -0.02748   0.00255   0.00254   0.00036  -0.02999
           A4          -0.00001   0.00029  -0.00029   0.00004   0.02066
           A5           0.00001   0.00000   0.00000   0.00000   0.00000
           D1           0.00001   0.00001   0.00000   0.00000   0.00000
                          A2        A3        A4        A5        D1
           A2           0.05748
           A3          -0.02999   0.05998
           A4          -0.02066   0.00000   0.14761
           A5           0.00000  -0.00001  -0.00001   0.03117
           D1           0.00000   0.00000   0.00001  -0.00857   0.01647
 ITU=  0
     Eigenvalues ---    0.01253   0.03511   0.07174   0.08774   0.15872
     Eigenvalues ---    0.36755   0.36818   0.61788   1.06219
 RFO step:  Lambda= 0.00000000D+00 EMin= 1.25285865D-02
 Linear search not attempted -- first point.
 Iteration  1 RMS(Cart)=  0.00003865 RMS(Int)=  0.00000000
 Iteration  2 RMS(Cart)=  0.00000000 RMS(Int)=  0.00000000
 ITry= 1 IFail=0 DXMaxC= 8.95D-05 DCOld= 1.00D+10 DXMaxT= 3.00D-01 DXLimC= 3.00D+00 Rises=F
 Variable       Old X    -DE/DX   Delta X   Delta X   Delta X     New X
                                 (Linear)    (Quad)   (Total)
    R1        2.48271   0.00000   0.00000   0.00000   0.00000   2.48271
    R2        2.04418   0.00000   0.00000   0.00000   0.00000   2.04418
    R3        2.04420   0.00000   0.00000  -0.00001  -0.00001   2.04419
    R4        2.19602  -0.00001   0.00000  -0.00001  -0.00001   2.19601
    A1        2.08641   0.00000   0.00000   0.00000   0.00000   2.08642
    A2        2.08639   0.00000   0.00000   0.00000   0.00000   2.08639
    A3        2.11038   0.00000   0.00000   0.00000   0.00000   2.11038
    A4        3.14159   0.00000   0.00000  -0.00001  -0.00001   3.14158
    A5        3.14131   0.00001   0.00000   0.00028   0.00028   3.14159
    D1        3.14144   0.00000   0.00000   0.00014   0.00014   3.14158
         Item               Value     Threshold  Converged?
 Maximum Force            0.000007     0.000015     YES
 RMS     Force            0.000004     0.000010     YES
 Maximum Displacement     0.000089     0.000060     NO 
 RMS     Displacement     0.000039     0.000040     YES
 Predicted change in Energy=-1.081930D-09
 Lowest energy point so far.  Saving SCF results.
 GradGradGradGradGradGradGradGradGradGradGradGradGradGradGradGradGradGrad

 Leave Link  103 at Sun Apr 26 08:47:04 2015, MaxMem=   524288000 cpu:         0.0
 (Enter /opt/g09/l202.exe)
                          Input orientation:                          
 ---------------------------------------------------------------------
 Center     Atomic      Atomic             Coordinates (Angstroms)
 Number     Number       Type             X           Y           Z
 ---------------------------------------------------------------------
      1          6           0        2.366238    0.244557    0.939592
      2          6           0        1.122232    0.663643    0.993141
      3          8           0        0.021880    1.034334    1.040486
      4          1           0        2.888735    0.006306    1.856317
      5          1           0        2.853815    0.142549   -0.020626
 ---------------------------------------------------------------------
                    Distance matrix (angstroms):
                    1          2          3          4          5
     1  C    0.000000
     2  C    1.313793   0.000000
     3  O    2.475872   1.162080   0.000000
     4  H    1.081735   2.073089   3.152980   0.000000
     5  H    1.081737   2.073075   3.152950   1.882206   0.000000
 Symmetry turned off by external request.
 Stoichiometry    C2H2O
 Framework group  C1[X(C2H2O)]
 Deg. of freedom     9
 Full point group                 C1      NOp   1
 Rotational constants (GHZ):    283.0921345     10.2780611      9.9179750
 Leave Link  202 at Sun Apr 26 08:47:04 2015, MaxMem=   524288000 cpu:         0.0
 (Enter /opt/g09/l301.exe)
 Standard basis: 6-311+G(d,p) (5D, 7F)
 Ernie: Thresh=  0.10000D-02 Tol=  0.10000D-05 Strict=F.
    78 basis functions,   124 primitive gaussians,    81 cartesian basis functions
    11 alpha electrons       11 beta electrons
       nuclear repulsion energy        58.5172578325 Hartrees.
 IExCor= 1614 DFT=T Ex+Corr=B971 ExCW=0 ScaHFX=  0.210000
 ScaDFX=  1.000000  1.000000  1.000000  1.000000 ScalE2=  1.000000  1.000000
 IRadAn=      5 IRanWt=     -1 IRanGd=            0 ICorTp=0 IEmpDi=  4
 NAtoms=    5 NActive=    5 NUniq=    5 SFac= 1.00D+00 NAtFMM=   60 NAOKFM=F Big=F
 Integral buffers will be    131072 words long.
 Raffenetti 2 integral format.
 Two-electron integral symmetry is turned off.
 Leave Link  301 at Sun Apr 26 08:47:04 2015, MaxMem=   524288000 cpu:         0.4
 (Enter /opt/g09/l302.exe)
 NPDir=0 NMtPBC=     1 NCelOv=     1 NCel=       1 NClECP=     1 NCelD=      1
         NCelK=      1 NCelE2=     1 NClLst=     1 CellRange=     0.0.
 One-electron integrals computed using PRISM.
 NBasis=    78 RedAO= T EigKep=  6.03D-05  NBF=    78
 NBsUse=    78 1.00D-06 EigRej= -1.00D+00 NBFU=    78
 Precomputing XC quadrature grid using
 IXCGrd= 4 IRadAn=           5 IRanWt=          -1 IRanGd=           0 AccXCQ= 0.00D+00.
 Generated NRdTot=       0 NPtTot=           0 NUsed=           0 NTot=          32
 NSgBfM=    81    81    81    81    81 MxSgAt=     5 MxSgA2=     5.
 Leave Link  302 at Sun Apr 26 08:47:04 2015, MaxMem=   524288000 cpu:         1.3
 (Enter /opt/g09/l303.exe)
 DipDrv:  MaxL=1.
 Leave Link  303 at Sun Apr 26 08:47:04 2015, MaxMem=   524288000 cpu:         0.3
 (Enter /opt/g09/l401.exe)
 Initial guess from the checkpoint file:  "/scratch/pb556/g09_run/add_hco//Gau-14694.chk"
 B after Tr=     0.000004    0.000008   -0.000004
         Rot=    1.000000    0.000000    0.000001    0.000001 Ang=   0.00 deg.
 Guess basis will be translated and rotated to current coordinates.
 JPrj=2 DoOrth=T DoCkMO=T.
 Leave Link  401 at Sun Apr 26 08:47:04 2015, MaxMem=   524288000 cpu:         0.8
 (Enter /opt/g09/l502.exe)
 Closed shell SCF:
 Using DIIS extrapolation, IDIIS=  1040.
 Two-electron integral symmetry not used.
 Keep R1 ints in memory in canonical form, NReq=5691784.
 IVT=       39377 IEndB=       39377 NGot=   524288000 MDV=   519500803
 LenX=   519500803 LenY=   519493801
 Requested convergence on RMS density matrix=1.00D-08 within 128 cycles.
 Requested convergence on MAX density matrix=1.00D-06.
 Requested convergence on             energy=1.00D-06.
 No special actions if energy rises.
 FoFCou: FMM=F IPFlag=           0 FMFlag=           0 FMFlg1=           0
         NFxFlg=           0 DoJE=F BraDBF=F KetDBF=F FulRan=T
         wScrn=  0.000000 ICntrl=     600 IOpCl=  0 I1Cent=           0 NGrid=           0
         NMat0=    1 NMatS0=   3081 NMatT0=    0 NMatD0=    1 NMtDS0=    0 NMtDT0=    0
 Symmetry not used in FoFCou.

 Cycle   1  Pass 1  IDiag  1:
 E= -152.602378756876    
 DIIS: error= 6.25D-06 at cycle   1 NSaved=   1.
 NSaved= 1 IEnMin= 1 EnMin= -152.602378756876     IErMin= 1 ErrMin= 6.25D-06
 ErrMax= 6.25D-06  0.00D+00 EMaxC= 1.00D-01 BMatC= 3.47D-09 BMatP= 3.47D-09
 IDIUse=1 WtCom= 1.00D+00 WtEn= 0.00D+00
 Coeff-Com:  0.100D+01
 Coeff:      0.100D+01
 Gap=     0.419 Goal=   None    Shift=    0.000
 RMSDP=2.44D-06 MaxDP=3.80D-05              OVMax= 2.65D-05

 Cycle   2  Pass 1  IDiag  1:
 E= -152.602378761192     Delta-E=       -0.000000004316 Rises=F Damp=F
 DIIS: error= 7.43D-07 at cycle   2 NSaved=   2.
 NSaved= 2 IEnMin= 2 EnMin= -152.602378761192     IErMin= 2 ErrMin= 7.43D-07
 ErrMax= 7.43D-07  0.00D+00 EMaxC= 1.00D-01 BMatC= 4.14D-11 BMatP= 3.47D-09
 IDIUse=1 WtCom= 1.00D+00 WtEn= 0.00D+00
 Coeff-Com: -0.530D-01 0.105D+01
 Coeff:     -0.530D-01 0.105D+01
 Gap=     0.210 Goal=   None    Shift=    0.000
 RMSDP=2.23D-07 MaxDP=3.24D-06 DE=-4.32D-09 OVMax= 4.00D-06

 Cycle   3  Pass 1  IDiag  1:
 E= -152.602378761232     Delta-E=       -0.000000000040 Rises=F Damp=F
 DIIS: error= 3.52D-07 at cycle   3 NSaved=   3.
 NSaved= 3 IEnMin= 3 EnMin= -152.602378761232     IErMin= 3 ErrMin= 3.52D-07
 ErrMax= 3.52D-07  0.00D+00 EMaxC= 1.00D-01 BMatC= 8.94D-12 BMatP= 4.14D-11
 IDIUse=1 WtCom= 1.00D+00 WtEn= 0.00D+00
 Coeff-Com: -0.210D-01 0.336D+00 0.685D+00
 Coeff:     -0.210D-01 0.336D+00 0.685D+00
 Gap=     0.210 Goal=   None    Shift=    0.000
 RMSDP=5.94D-08 MaxDP=9.14D-07 DE=-4.04D-11 OVMax= 1.38D-06

 Cycle   4  Pass 1  IDiag  1:
 E= -152.602378761232     Delta-E=        0.000000000000 Rises=F Damp=F
 DIIS: error= 4.14D-07 at cycle   4 NSaved=   4.
 NSaved= 4 IEnMin= 3 EnMin= -152.602378761232     IErMin= 3 ErrMin= 3.52D-07
 ErrMax= 4.14D-07  0.00D+00 EMaxC= 1.00D-01 BMatC= 7.86D-12 BMatP= 8.94D-12
 IDIUse=1 WtCom= 1.00D+00 WtEn= 0.00D+00
 Coeff-Com: -0.103D-01 0.154D+00 0.487D+00 0.369D+00
 Coeff:     -0.103D-01 0.154D+00 0.487D+00 0.369D+00
 Gap=     0.210 Goal=   None    Shift=    0.000
 RMSDP=2.08D-08 MaxDP=2.91D-07 DE= 2.27D-13 OVMax= 8.70D-07

 Cycle   5  Pass 1  IDiag  1:
 E= -152.602378761238     Delta-E=       -0.000000000006 Rises=F Damp=F
 DIIS: error= 4.99D-08 at cycle   5 NSaved=   5.
 NSaved= 5 IEnMin= 5 EnMin= -152.602378761238     IErMin= 5 ErrMin= 4.99D-08
 ErrMax= 4.99D-08  0.00D+00 EMaxC= 1.00D-01 BMatC= 1.20D-13 BMatP= 7.86D-12
 IDIUse=1 WtCom= 1.00D+00 WtEn= 0.00D+00
 Coeff-Com: -0.437D-04-0.659D-02 0.487D-01 0.128D+00 0.830D+00
 Coeff:     -0.437D-04-0.659D-02 0.487D-01 0.128D+00 0.830D+00
 Gap=     0.210 Goal=   None    Shift=    0.000
 RMSDP=4.39D-09 MaxDP=5.10D-08 DE=-6.42D-12 OVMax= 1.44D-07

 SCF Done:  E(RB971) =  -152.602378761     A.U. after    5 cycles
            NFock=  5  Conv=0.44D-08     -V/T= 2.0032
 KE= 1.521133049431D+02 PE=-4.741393994280D+02 EE= 1.109064578911D+02
 Leave Link  502 at Sun Apr 26 08:47:05 2015, MaxMem=   524288000 cpu:         9.9
 (Enter /opt/g09/l801.exe)
 DoSCS=F DFT=T ScalE2(SS,OS)=  1.000000  1.000000
 Range of M.O.s used for correlation:     1    78
 NBasis=    78 NAE=    11 NBE=    11 NFC=     0 NFV=     0
 NROrb=     78 NOA=    11 NOB=    11 NVA=    67 NVB=    67

 **** Warning!!: The largest alpha MO coefficient is  0.37596372D+02

 Leave Link  801 at Sun Apr 26 08:47:06 2015, MaxMem=   524288000 cpu:         0.3
 (Enter /opt/g09/l1101.exe)
 Using compressed storage, NAtomX=     5.
 Will process      6 centers per pass.
 Leave Link 1101 at Sun Apr 26 08:47:06 2015, MaxMem=   524288000 cpu:         1.3
 (Enter /opt/g09/l1102.exe)
 Symmetrizing basis deriv contribution to polar:
 IMax=3 JMax=2 DiffMx= 0.00D+00
 Leave Link 1102 at Sun Apr 26 08:47:06 2015, MaxMem=   524288000 cpu:         0.3
 (Enter /opt/g09/l1110.exe)
 Forming Gx(P) for the SCF density, NAtomX=     5.
 Integral derivatives from FoFJK, PRISM(SPDF).
 Do as many integral derivatives as possible in FoFJK.
 G2DrvN: MDV=     524287856.
 G2DrvN: will do     6 centers at a time, making    1 passes.
 Calling FoFCou, ICntrl=  3107 FMM=F I1Cent=   0 AccDes= 0.00D+00.
 FoFJK:  IHMeth= 1 ICntrl=    3107 DoSepK=F KAlg= 0 I1Cent=   0 FoldK=F
 IRaf=         0 NMat=   1 IRICut=       1 DoRegI=T DoRafI=F ISym2E= 0.
 FoFCou: FMM=F IPFlag=           0 FMFlag=      100000 FMFlg1=           0
         NFxFlg=           0 DoJE=F BraDBF=F KetDBF=F FulRan=T
         wScrn=  0.000000 ICntrl=    3107 IOpCl=  0 I1Cent=           0 NGrid=           0
         NMat0=    1 NMatS0=      1 NMatT0=    0 NMatD0=    1 NMtDS0=    0 NMtDT0=    0
 Symmetry not used in FoFCou.
 End of G2Drv F.D. properties file   721 does not exist.
 End of G2Drv F.D. properties file   722 does not exist.
 End of G2Drv F.D. properties file   788 does not exist.
 Leave Link 1110 at Sun Apr 26 08:47:09 2015, MaxMem=   524288000 cpu:        25.0
 (Enter /opt/g09/l1002.exe)
 Minotr:  Closed shell wavefunction.
          IDoAtm=11111
          Direct CPHF calculation.
          Differentiating once with respect to electric field.
                with respect to dipole field.
          Differentiating once with respect to nuclear coordinates.
          Requested convergence is 1.0D-08 RMS, and 1.0D-07 maximum.
          Secondary convergence is 1.0D-12 RMS, and 1.0D-12 maximum.
          NewPWx=T KeepS1=F KeepF1=F KeepIn=T MapXYZ=F SortEE=F KeepMc=T.
          MDV=     524287868 using IRadAn=       1.
 Generate precomputed XC quadrature information.
 Keep R1 ints in memory in canonical form, NReq=5651458.
 FoFCou: FMM=F IPFlag=           0 FMFlag=           0 FMFlg1=           0
         NFxFlg=           0 DoJE=F BraDBF=F KetDBF=F FulRan=T
         wScrn=  0.000000 ICntrl=     600 IOpCl=  0 I1Cent=           0 NGrid=           0
         NMat0=    1 NMatS0=   3081 NMatT0=    0 NMatD0=    1 NMtDS0=    0 NMtDT0=    0
 Symmetry not used in FoFCou.
          Solving linear equations simultaneously, MaxMat=       0.
          There are    18 degrees of freedom in the 1st order CPHF.  IDoFFX=6 NUNeed=     3.
     15 vectors produced by pass  0 Test12= 4.09D-15 5.56D-09 XBig12= 4.56D+01 4.89D+00.
 AX will form    15 AO Fock derivatives at one time.
     15 vectors produced by pass  1 Test12= 4.09D-15 5.56D-09 XBig12= 1.47D+01 1.17D+00.
     15 vectors produced by pass  2 Test12= 4.09D-15 5.56D-09 XBig12= 2.18D-01 1.08D-01.
     15 vectors produced by pass  3 Test12= 4.09D-15 5.56D-09 XBig12= 1.26D-03 1.02D-02.
     15 vectors produced by pass  4 Test12= 4.09D-15 5.56D-09 XBig12= 3.29D-06 5.88D-04.
     11 vectors produced by pass  5 Test12= 4.09D-15 5.56D-09 XBig12= 7.48D-09 1.82D-05.
      6 vectors produced by pass  6 Test12= 4.09D-15 5.56D-09 XBig12= 1.45D-11 1.33D-06.
      1 vectors produced by pass  7 Test12= 4.09D-15 5.56D-09 XBig12= 2.93D-14 5.82D-08.
 InvSVY:  IOpt=1 It=  1 EMax= 1.11D-15
 Solved reduced A of dimension    93 with    15 vectors.
 FullF1:  Do perturbations    1 to     3.
 Isotropic polarizability for W=    0.000000       25.54 Bohr**3.
 End of Minotr F.D. properties file   721 does not exist.
 End of Minotr F.D. properties file   722 does not exist.
 End of Minotr F.D. properties file   788 does not exist.
 Leave Link 1002 at Sun Apr 26 08:47:13 2015, MaxMem=   524288000 cpu:        32.2
 (Enter /opt/g09/l701.exe)
 Compute integral second derivatives.
 ... and contract with generalized density number  0.
 Leave Link  701 at Sun Apr 26 08:47:13 2015, MaxMem=   524288000 cpu:         2.1
 (Enter /opt/g09/l702.exe)
 L702 exits ... SP integral derivatives will be done elsewhere.
 Leave Link  702 at Sun Apr 26 08:47:13 2015, MaxMem=   524288000 cpu:         0.3
 (Enter /opt/g09/l703.exe)
 Compute integral second derivatives, UseDBF=F ICtDFT=           0.
 Integral derivatives from FoFJK, PRISM(SPDF).
 Calling FoFJK, ICntrl=    100127 FMM=F ISym2X=0 I1Cent= 0 IOpClX= 0 NMat=1 NMatS=1 NMatT=0.
 FoFJK:  IHMeth= 1 ICntrl=  100127 DoSepK=F KAlg= 0 I1Cent=   0 FoldK=F
 IRaf=         0 NMat=   1 IRICut=       1 DoRegI=T DoRafI=F ISym2E= 0.
 FoFCou: FMM=F IPFlag=           0 FMFlag=      100000 FMFlg1=         800
         NFxFlg=           0 DoJE=F BraDBF=F KetDBF=F FulRan=T
         wScrn=  0.000000 ICntrl=  100127 IOpCl=  0 I1Cent=           0 NGrid=           0
         NMat0=    1 NMatS0=      1 NMatT0=    0 NMatD0=    1 NMtDS0=    0 NMtDT0=    0
 Symmetry not used in FoFCou.
 Leave Link  703 at Sun Apr 26 08:47:20 2015, MaxMem=   524288000 cpu:        56.8
 (Enter /opt/g09/l716.exe)
 Dipole        = 5.69806190D-01-1.91951387D-01-2.45194923D-02
 Polarizability= 3.92966243D+01-7.05835952D+00 2.07125351D+01
                -9.34749463D-01 4.32615430D-01 1.66076597D+01
 -------------------------------------------------------------------
 Center     Atomic                   Forces (Hartrees/Bohr)
 Number     Number              X              Y              Z
 -------------------------------------------------------------------
      1        6           0.000000016    0.000000057    0.000000016
      2        6           0.000000041   -0.000000102   -0.000000035
      3        8          -0.000000121   -0.000000202   -0.000000071
      4        1           0.000000059    0.000000294    0.000000040
      5        1           0.000000005   -0.000000047    0.000000050
 -------------------------------------------------------------------
 Cartesian Forces:  Max     0.000000294 RMS     0.000000108
 Force constants in Cartesian coordinates: 
                1             2             3             4             5 
      1  0.731270D+00
      2 -0.232734D+00  0.123632D+00
      3 -0.190845D-01 -0.312634D-01  0.612043D+00
      4 -0.475275D+00  0.148400D+00  0.176322D-01  0.142635D+01
      5  0.148401D+00 -0.853506D-01 -0.118568D-02 -0.446916D+00  0.250775D+00
      6  0.176292D-01 -0.118667D-02 -0.107538D+00 -0.559234D-01  0.145384D-01
      7 -0.473671D-01  0.206296D-01  0.310140D-02 -0.909038D+00  0.287665D+00
      8  0.206292D-01  0.713143D-02 -0.269398D-02  0.287665D+00 -0.152081D+00
      9  0.310379D-02 -0.269414D-02  0.387046D-01  0.365819D-01 -0.116329D-01
     10 -0.108967D+00  0.416346D-01 -0.124552D+00 -0.214767D-01  0.727375D-02
     11  0.417873D-01 -0.288200D-01  0.588943D-01  0.551354D-02 -0.727262D-02
     12 -0.126867D+00  0.596818D-01 -0.260850D+00  0.187405D-02 -0.127593D-02
     13 -0.996610D-01  0.220701D-01  0.122903D+00 -0.205631D-01  0.357621D-02
     14  0.219167D-01 -0.165925D-01 -0.237513D-01  0.533767D-02 -0.607073D-02
     15  0.125219D+00 -0.245377D-01 -0.282360D+00 -0.164792D-03 -0.443810D-03
                6             7             8             9            10 
      6  0.166944D+00
      7  0.365843D-01  0.950655D+00
      8 -0.116341D-01 -0.309675D+00  0.135683D+00
      9 -0.667863D-01 -0.395990D-01  0.133678D-01  0.323149D-01
     10 -0.247168D-01  0.301863D-02  0.387685D-03  0.379588D-02  0.117560D+00
     11  0.775833D-02  0.383746D-03  0.482230D-02 -0.802910D-03 -0.469935D-01
     12  0.474902D-02  0.384891D-02 -0.820364D-03 -0.244985D-02  0.133846D+00
     13  0.264267D-01  0.273121D-02  0.993354D-03 -0.388265D-02  0.986536D-02
     14 -0.947587D-02  0.996622D-03  0.444414D-02  0.176223D-02 -0.230251D-02
     15  0.263114D-02 -0.393566D-02  0.178073D-02 -0.178330D-02  0.116263D-01
               11            12            13            14            15 
     11  0.255014D-01
     12 -0.631255D-01  0.271676D+00
     13 -0.691102D-03 -0.127021D-01  0.107628D+00
     14  0.576893D-02  0.553996D-02 -0.259485D-01  0.124502D-01
     15 -0.272421D-02 -0.131254D-01 -0.132744D+00  0.259249D-01  0.294637D+00
 FormGI is forming the generalized inverse of G from B-inverse, IUseBI=4.
 Force constants in internal coordinates: 
                1             2             3             4             5 
      1  0.620957D+00
      2  0.547186D-02  0.366919D+00
      3  0.546882D-02  0.150227D-02  0.366904D+00
      4  0.491616D-01 -0.489093D-02 -0.489499D-02  0.105668D+01
      5  0.137324D-01  0.109200D-01 -0.134682D-01 -0.190842D-03  0.574915D-01
      6  0.137476D-01 -0.134655D-01  0.109232D-01 -0.172243D-03 -0.274979D-01
      7 -0.274800D-01  0.254554D-02  0.254497D-02  0.363084D-03 -0.299936D-01
      8 -0.692968D-05  0.292550D-03 -0.292273D-03  0.439246D-04  0.206587D-01
      9  0.000000D+00 -0.156493D-05  0.000000D+00 -0.104758D-04  0.598046D-05
     10  0.239226D-05  0.584053D-05  0.000000D+00  0.488990D-05 -0.212534D-05
                6             7             8             9            10 
      6  0.574836D-01
      7 -0.299857D-01  0.599793D-01
      8 -0.206615D-01  0.281221D-05  0.147614D+00
      9 -0.607487D-05  0.000000D+00 -0.219449D-04  0.311707D-01
     10  0.224064D-05  0.000000D+00  0.116499D-04 -0.856778D-02  0.164664D-01
 Leave Link  716 at Sun Apr 26 08:47:21 2015, MaxMem=   524288000 cpu:         0.3
 (Enter /opt/g09/l103.exe)

 GradGradGradGradGradGradGradGradGradGradGradGradGradGradGradGradGradGrad
 Berny optimization.
 Using GEDIIS/GDIIS optimizer.
 Red2BG is reusing G-inverse.
 Internal  Forces:  Max     0.000000048 RMS     0.000000019
 Search for a local minimum.
 Step number   2 out of a maximum of   20
 All quantities printed in internal units (Hartrees-Bohrs-Radians)
 RMS Force = .19442D-07 SwitMx=.10000D-02 MixMth= 2
 Mixed Optimization -- En-DIIS/RFO-DIIS
 Swapping is turned off.
 Second derivative matrix not updated -- analytic derivatives used.
 DE= -1.08D-09 DEPred=-1.08D-09 R= 1.00D+00
 Trust test= 1.00D+00 RLast= 3.09D-04 DXMaxT set to 3.00D-01
 The second derivative matrix:
                          R1        R2        R3        R4        A1
           R1           0.62096
           R2           0.00547   0.36692
           R3           0.00547   0.00150   0.36690
           R4           0.04916  -0.00489  -0.00489   1.05668
           A1           0.01373   0.01092  -0.01347  -0.00019   0.05749
           A2           0.01375  -0.01347   0.01092  -0.00017  -0.02750
           A3          -0.02748   0.00255   0.00254   0.00036  -0.02999
           A4          -0.00001   0.00029  -0.00029   0.00004   0.02066
           A5           0.00000   0.00000   0.00000  -0.00001   0.00001
           D1           0.00000   0.00001   0.00000   0.00000   0.00000
                          A2        A3        A4        A5        D1
           A2           0.05748
           A3          -0.02999   0.05998
           A4          -0.02066   0.00000   0.14761
           A5          -0.00001   0.00000  -0.00002   0.03117
           D1           0.00000   0.00000   0.00001  -0.00857   0.01647
 ITU=  0  0
     Eigenvalues ---    0.01253   0.03511   0.07174   0.08775   0.15872
     Eigenvalues ---    0.36755   0.36818   0.61787   1.06222
 En-DIIS/RFO-DIIS IScMMF=        0 using points:     2    1
 RFO step:  Lambda= 0.00000000D+00.
 NNeg= 0 NP= 2 Switch=  2.50D-03 Rises=F DC=  1.08D-09 SmlDif=  1.00D-05
 RMS Error=  0.2546693361D-07 NUsed= 2 EDIIS=F
 DidBck=F Rises=F RFO-DIIS coefs:    0.99937    0.00063
 Iteration  1 RMS(Cart)=  0.00000005 RMS(Int)=  0.00000000
 ITry= 1 IFail=0 DXMaxC= 7.13D-08 DCOld= 1.00D+10 DXMaxT= 3.00D-01 DXLimC= 3.00D+00 Rises=F
 Variable       Old X    -DE/DX   Delta X   Delta X   Delta X     New X
                                 (Linear)    (Quad)   (Total)
    R1        2.48271   0.00000   0.00000   0.00000   0.00000   2.48271
    R2        2.04418   0.00000   0.00000   0.00000   0.00000   2.04418
    R3        2.04419   0.00000   0.00000   0.00000   0.00000   2.04419
    R4        2.19601   0.00000   0.00000   0.00000   0.00000   2.19601
    A1        2.08642   0.00000   0.00000   0.00000   0.00000   2.08642
    A2        2.08639   0.00000   0.00000   0.00000   0.00000   2.08639
    A3        2.11038   0.00000   0.00000   0.00000   0.00000   2.11038
    A4        3.14158   0.00000   0.00000   0.00000   0.00000   3.14158
    A5        3.14159   0.00000   0.00000   0.00000   0.00000   3.14159
    D1        3.14158   0.00000   0.00000   0.00000   0.00000   3.14158
         Item               Value     Threshold  Converged?
 Maximum Force            0.000000     0.000015     YES
 RMS     Force            0.000000     0.000010     YES
 Maximum Displacement     0.000000     0.000060     YES
 RMS     Displacement     0.000000     0.000040     YES
 Predicted change in Energy=-3.242822D-15
 Optimization completed.
    -- Stationary point found.
                           ----------------------------
                           !   Optimized Parameters   !
                           ! (Angstroms and Degrees)  !
 --------------------------                            --------------------------
 ! Name  Definition              Value          Derivative Info.                !
 --------------------------------------------------------------------------------
 ! R1    R(1,2)                  1.3138         -DE/DX =    0.0                 !
 ! R2    R(1,4)                  1.0817         -DE/DX =    0.0                 !
 ! R3    R(1,5)                  1.0817         -DE/DX =    0.0                 !
 ! R4    R(2,3)                  1.1621         -DE/DX =    0.0                 !
 ! A1    A(2,1,4)              119.5429         -DE/DX =    0.0                 !
 ! A2    A(2,1,5)              119.5414         -DE/DX =    0.0                 !
 ! A3    A(4,1,5)              120.9156         -DE/DX =    0.0                 !
 ! A4    L(1,2,3,5,-1)         179.999          -DE/DX =    0.0                 !
 ! A5    L(1,2,3,5,-2)         180.0            -DE/DX =    0.0                 !
 ! D1    D(2,1,5,4)            179.999          -DE/DX =    0.0                 !
 --------------------------------------------------------------------------------
 Lowest energy point so far.  Saving SCF results.
 GradGradGradGradGradGradGradGradGradGradGradGradGradGradGradGradGradGrad

 Largest change from initial coordinates is atom    2       0.000 Angstoms.
 Leave Link  103 at Sun Apr 26 08:47:21 2015, MaxMem=   524288000 cpu:         0.0
 (Enter /opt/g09/l202.exe)
                          Input orientation:                          
 ---------------------------------------------------------------------
 Center     Atomic      Atomic             Coordinates (Angstroms)
 Number     Number       Type             X           Y           Z
 ---------------------------------------------------------------------
      1          6           0        2.366238    0.244557    0.939592
      2          6           0        1.122232    0.663643    0.993141
      3          8           0        0.021880    1.034334    1.040486
      4          1           0        2.888735    0.006306    1.856317
      5          1           0        2.853815    0.142549   -0.020626
 ---------------------------------------------------------------------
                    Distance matrix (angstroms):
                    1          2          3          4          5
     1  C    0.000000
     2  C    1.313793   0.000000
     3  O    2.475872   1.162080   0.000000
     4  H    1.081735   2.073089   3.152980   0.000000
     5  H    1.081737   2.073075   3.152950   1.882206   0.000000
 Symmetry turned off by external request.
 Stoichiometry    C2H2O
 Framework group  C1[X(C2H2O)]
 Deg. of freedom     9
 Full point group                 C1      NOp   1
 Rotational constants (GHZ):    283.0921345     10.2780611      9.9179750
 Leave Link  202 at Sun Apr 26 08:47:21 2015, MaxMem=   524288000 cpu:         0.0
 (Enter /opt/g09/l716.exe)
 Dipole        = 5.69806190D-01-1.91951387D-01-2.45194923D-02
 Polarizability= 3.92966243D+01-7.05835952D+00 2.07125351D+01
                -9.34749463D-01 4.32615430D-01 1.66076597D+01
 Full mass-weighted force constant matrix:
 Low frequencies ---   -6.7135   -3.5292    0.0007    0.0011    0.0011    3.2825
 Low frequencies ---  441.5933  543.3746  592.3222
 Diagonal vibrational polarizability:
        5.0001317      11.4184016       0.5928965
 Harmonic frequencies (cm**-1), IR intensities (KM/Mole), Raman scattering
 activities (A**4/AMU), depolarization ratios for plane and unpolarized
 incident light, reduced masses (AMU), force constants (mDyne/A),
 and normal coordinates:
                      1                      2                      3
                      A                      A                      A
 Frequencies --    441.5933               543.3746               592.3222
 Red. masses --      2.2038                 5.9215                 1.3596
 Frc consts  --      0.2532                 1.0301                 0.2811
 IR Inten    --      2.0826                62.0347                86.7601
  Atom  AN      X      Y      Z        X      Y      Z        X      Y      Z
     1   6     0.00   0.00  -0.02     0.11   0.33   0.02     0.03   0.07   0.00
     2   6     0.01  -0.02   0.28    -0.17  -0.49  -0.03     0.04   0.13   0.01
     3   8     0.00   0.01  -0.15     0.06   0.18   0.01    -0.02  -0.07   0.00
     4   1     0.53  -0.15  -0.38    -0.17  -0.50  -0.03    -0.22  -0.66  -0.04
     5   1    -0.54   0.21  -0.33    -0.17  -0.50  -0.03    -0.22  -0.66  -0.04
                      4                      5                      6
                      A                      A                      A
 Frequencies --    986.0761              1166.5805              1399.1144
 Red. masses --      1.9230                 2.5629                 1.4848
 Frc consts  --      1.1017                 2.0550                 1.7124
 IR Inten    --      8.1040                 5.7350                19.7859
  Atom  AN      X      Y      Z        X      Y      Z        X      Y      Z
     1   6     0.00  -0.01   0.18    -0.25   0.08   0.01     0.18  -0.06  -0.01
     2   6     0.00   0.02  -0.21     0.06  -0.02   0.00     0.00   0.00   0.00
     3   8     0.00   0.00   0.05     0.21  -0.07  -0.01    -0.07   0.02   0.00
     4   1     0.61  -0.19  -0.23    -0.60   0.19   0.21    -0.51   0.14   0.45
     5   1    -0.61   0.22  -0.18    -0.61   0.22  -0.16    -0.52   0.20  -0.40
                      7                      8                      9
                      A                      A                      A
 Frequencies --   2227.8770              3174.8142              3272.9473
 Red. masses --     11.9495                 1.0557                 1.1173
 Frc consts  --     34.9448                 6.2693                 7.0519
 IR Inten    --    681.5754                30.2817                11.5575
  Atom  AN      X      Y      Z        X      Y      Z        X      Y      Z
     1   6    -0.23   0.08   0.01    -0.06   0.02   0.00     0.00  -0.01   0.10
     2   6     0.79  -0.27  -0.03     0.01   0.00   0.00     0.00   0.00   0.00
     3   8    -0.40   0.14   0.02     0.00   0.00   0.00     0.00   0.00   0.00
     4   1    -0.14   0.05  -0.11     0.34  -0.15   0.60    -0.35   0.16  -0.59
     5   1    -0.13   0.04   0.13     0.32  -0.07  -0.63     0.33  -0.07  -0.62

 -------------------
 - Thermochemistry -
 -------------------
 Temperature   298.150 Kelvin.  Pressure   1.00000 Atm.
 Atom     1 has atomic number  6 and mass  12.00000
 Atom     2 has atomic number  6 and mass  12.00000
 Atom     3 has atomic number  8 and mass  15.99491
 Atom     4 has atomic number  1 and mass   1.00783
 Atom     5 has atomic number  1 and mass   1.00783
 Molecular mass:    42.01056 amu.
 Principal axes and moments of inertia in atomic units:
                           1         2         3
     Eigenvalues --     6.37510 175.59160 181.96670
           X            0.94688   0.01853   0.32105
           Y           -0.31899  -0.07238   0.94499
           Z           -0.04075   0.99721   0.06262
 This molecule is an asymmetric top.
 Rotational symmetry number  1.
 Rotational temperatures (Kelvin)     13.58626     0.49327     0.47599
 Rotational constants (GHZ):         283.09213    10.27806     9.91797
 Zero-point vibrational energy      82570.4 (Joules/Mol)
                                   19.73481 (Kcal/Mol)
 Warning -- explicit consideration of   3 degrees of freedom as
           vibrations may cause significant error
 Vibrational temperatures:    635.35   781.79   852.22  1418.74  1678.45
          (Kelvin)           2013.01  3205.41  4567.84  4709.04
 
 Zero-point correction=                           0.031449 (Hartree/Particle)
 Thermal correction to Energy=                    0.034977
 Thermal correction to Enthalpy=                  0.035921
 Thermal correction to Gibbs Free Energy=         0.007846
 Sum of electronic and zero-point Energies=           -152.570929
 Sum of electronic and thermal Energies=              -152.567402
 Sum of electronic and thermal Enthalpies=            -152.566458
 Sum of electronic and thermal Free Energies=         -152.594533
 
                     E (Thermal)             CV                S
                      KCal/Mol        Cal/Mol-Kelvin    Cal/Mol-Kelvin
 Total                   21.948             10.275             59.090
 Electronic               0.000              0.000              0.000
 Translational            0.889              2.981             37.133
 Rotational               0.889              2.981             19.949
 Vibrational             20.171              4.313              2.008
 Vibration     1          0.801              1.379              0.822
 Vibration     2          0.898              1.154              0.558
 Vibration     3          0.950              1.048              0.463
                       Q            Log10(Q)             Ln(Q)
 Total Bot       0.246179D-03         -3.608750         -8.309453
 Total V=0       0.719363D+11         10.856948         24.999048
 Vib (Bot)       0.450215D-14        -14.346580        -33.034222
 Vib (Bot)    1  0.390975D+00         -0.407852         -0.939113
 Vib (Bot)    2  0.290645D+00         -0.536638         -1.235654
 Vib (Bot)    3  0.254081D+00         -0.595028         -1.370103
 Vib (V=0)       0.131558D+01          0.119118          0.274278
 Vib (V=0)    1  0.113471D+01          0.054886          0.126380
 Vib (V=0)    2  0.107834D+01          0.032755          0.075420
 Vib (V=0)    3  0.106085D+01          0.025656          0.059074
 Electronic      0.100000D+01          0.000000          0.000000
 Translational   0.107027D+08          7.029493         16.186006
 Rotational      0.510902D+04          3.708338          8.538763
 
                                                        freq-b971_463-51-4.gau
                                                             IR Spectrum
 
      3  3                                    2                               1        1                                             
      2  1                                    2                               3        1      9               55   4                 
      7  7                                    2                               9        6      8               94   4                 
      3  5                                    8                               9        7      6               23   2                 
 
      X  X                                    X                               X        X      X               XX   X                 
                                              X                                                               XX                     
                                              X                                                               X                      
                                              X                                                                                      
                                              X                                                                                      
                                              X                                                                                      
                                              X                                                                                      
                                              X                                                                                      
                                              X                                                                                      
                                              X                                                                                      
                                              X                                                                                      
                                              X                                                                                      
                                              X                                                                                      
                                              X                                                                                      
                                              X                                                                                      
                                              X                                                                                      
                                              X                                                                                      
                                              X                                                                                      
                                              X                                                                                      
                                              X                                                                                      
 
 -------------------------------------------------------------------
 Center     Atomic                   Forces (Hartrees/Bohr)
 Number     Number              X              Y              Z
 -------------------------------------------------------------------
      1        6           0.000000016    0.000000057    0.000000016
      2        6           0.000000041   -0.000000102   -0.000000035
      3        8          -0.000000121   -0.000000202   -0.000000071
      4        1           0.000000059    0.000000294    0.000000040
      5        1           0.000000005   -0.000000047    0.000000050
 -------------------------------------------------------------------
 Cartesian Forces:  Max     0.000000294 RMS     0.000000108
 Force constants in Cartesian coordinates: 
                1             2             3             4             5 
      1  0.731270D+00
      2 -0.232734D+00  0.123632D+00
      3 -0.190845D-01 -0.312634D-01  0.612043D+00
      4 -0.475275D+00  0.148400D+00  0.176322D-01  0.142635D+01
      5  0.148401D+00 -0.853506D-01 -0.118568D-02 -0.446916D+00  0.250775D+00
      6  0.176292D-01 -0.118667D-02 -0.107538D+00 -0.559234D-01  0.145384D-01
      7 -0.473671D-01  0.206296D-01  0.310140D-02 -0.909038D+00  0.287665D+00
      8  0.206292D-01  0.713143D-02 -0.269398D-02  0.287665D+00 -0.152081D+00
      9  0.310379D-02 -0.269414D-02  0.387046D-01  0.365819D-01 -0.116329D-01
     10 -0.108967D+00  0.416346D-01 -0.124552D+00 -0.214767D-01  0.727375D-02
     11  0.417873D-01 -0.288200D-01  0.588943D-01  0.551354D-02 -0.727262D-02
     12 -0.126867D+00  0.596818D-01 -0.260850D+00  0.187405D-02 -0.127593D-02
     13 -0.996610D-01  0.220701D-01  0.122903D+00 -0.205631D-01  0.357621D-02
     14  0.219167D-01 -0.165925D-01 -0.237513D-01  0.533767D-02 -0.607073D-02
     15  0.125219D+00 -0.245377D-01 -0.282360D+00 -0.164792D-03 -0.443810D-03
                6             7             8             9            10 
      6  0.166944D+00
      7  0.365843D-01  0.950655D+00
      8 -0.116341D-01 -0.309675D+00  0.135683D+00
      9 -0.667863D-01 -0.395990D-01  0.133678D-01  0.323149D-01
     10 -0.247168D-01  0.301863D-02  0.387685D-03  0.379588D-02  0.117560D+00
     11  0.775833D-02  0.383746D-03  0.482230D-02 -0.802910D-03 -0.469935D-01
     12  0.474902D-02  0.384891D-02 -0.820364D-03 -0.244985D-02  0.133846D+00
     13  0.264267D-01  0.273121D-02  0.993354D-03 -0.388265D-02  0.986536D-02
     14 -0.947587D-02  0.996622D-03  0.444414D-02  0.176223D-02 -0.230251D-02
     15  0.263114D-02 -0.393566D-02  0.178073D-02 -0.178330D-02  0.116263D-01
               11            12            13            14            15 
     11  0.255014D-01
     12 -0.631255D-01  0.271676D+00
     13 -0.691102D-03 -0.127021D-01  0.107628D+00
     14  0.576893D-02  0.553996D-02 -0.259485D-01  0.124502D-01
     15 -0.272421D-02 -0.131254D-01 -0.132744D+00  0.259249D-01  0.294637D+00
 Red2BG is reusing G-inverse.
 Force constants in internal coordinates: 
                1             2             3             4             5 
      1  0.620957D+00
      2  0.547186D-02  0.366919D+00
      3  0.546882D-02  0.150227D-02  0.366904D+00
      4  0.491616D-01 -0.489093D-02 -0.489499D-02  0.105668D+01
      5  0.137324D-01  0.109200D-01 -0.134682D-01 -0.190842D-03  0.574915D-01
      6  0.137476D-01 -0.134655D-01  0.109232D-01 -0.172243D-03 -0.274979D-01
      7 -0.274800D-01  0.254554D-02  0.254497D-02  0.363084D-03 -0.299936D-01
      8 -0.692968D-05  0.292550D-03 -0.292273D-03  0.439246D-04  0.206587D-01
      9  0.000000D+00 -0.156493D-05  0.000000D+00 -0.104758D-04  0.598046D-05
     10  0.239226D-05  0.584053D-05  0.000000D+00  0.488990D-05 -0.212534D-05
                6             7             8             9            10 
      6  0.574836D-01
      7 -0.299857D-01  0.599793D-01
      8 -0.206615D-01  0.281221D-05  0.147614D+00
      9 -0.607487D-05  0.000000D+00 -0.219449D-04  0.311707D-01
     10  0.224064D-05  0.000000D+00  0.116499D-04 -0.856778D-02  0.164664D-01
 Leave Link  716 at Sun Apr 26 08:47:21 2015, MaxMem=   524288000 cpu:         0.3
 (Enter /opt/g09/l9999.exe)
 1\1\GINC-ARP\Freq\RB971\6-311+G(d,p)\C2H2O1\PB556\26-Apr-2015\0\\#p rB
 971/6-311+G(d,p) Opt=(Tight, CalcAll) Freq GFInput Population=None Int
 egral(Grid=UltraFine) Guess=MIX NoSymmetry\\freq-b971_463-51-4.gau\\0,
 1\C,2.3662384341,0.2445574473,0.9395921348\C,1.1222322254,0.6636426479
 ,0.9931409058\O,0.0218799377,1.0343342545,1.0404855866\H,2.8887348894,
 0.0063062747,1.8563174905\H,2.8538145134,0.1425493757,-0.0206261177\\V
 ersion=ES64L-G09RevD.01\HF=-152.6023788\RMSD=4.393e-09\RMSF=1.075e-07\
 ZeroPoint=0.0314494\Thermal=0.0349769\Dipole=0.5698062,-0.1919514,-0.0
 245195\DipoleDeriv=-0.9153357,0.112838,0.0218618,0.112821,-0.6150592,-
 0.0336819,0.0218786,-0.0336871,-0.1827243,2.1664092,-0.6531615,-0.0826
 349,-0.6530747,0.4481118,0.0249777,-0.0826332,0.0249776,0.274589,-1.51
 67297,0.4629173,0.0572435,0.462856,-0.299508,-0.0125913,0.0572413,-0.0
 125918,-0.2465352,0.1332518,0.0381426,0.0079657,0.0374594,0.2337793,0.
 0086092,0.0182854,0.0051004,0.0763573,0.1324044,0.0392636,-0.0044361,0
 .0399383,0.232676,0.0126862,-0.0147721,0.0162008,0.0783132\Polar=39.29
 66243,-7.0583595,20.7125351,-0.9347495,0.4326154,16.6076597\PG=C01 [X(
 C2H2O1)]\NImag=0\\0.73127022,-0.23273381,0.12363168,-0.01908448,-0.031
 26335,0.61204349,-0.47527471,0.14839954,0.01763221,1.42635223,0.148400
 57,-0.08535061,-0.00118568,-0.44691601,0.25077474,0.01762918,-0.001186
 67,-0.10753819,-0.05592341,0.01453835,0.16694435,-0.04736712,0.0206296
 5,0.00310140,-0.90903768,0.28766548,0.03658431,0.95065497,0.02062920,0
 .00713143,-0.00269398,0.28766526,-0.15208078,-0.01163414,-0.30967550,0
 .13568291,0.00310379,-0.00269414,0.03870458,0.03658194,-0.01163293,-0.
 06678631,-0.03959897,0.01336775,0.03231488,-0.10896739,0.04163456,-0.1
 2455165,-0.02147671,0.00727375,-0.02471678,0.00301863,0.00038769,0.003
 79588,0.11756010,0.04178731,-0.02881998,0.05889428,0.00551354,-0.00727
 262,0.00775833,0.00038375,0.00482230,-0.00080291,-0.04699350,0.0255013
 8,-0.12686709,0.05968183,-0.26085012,0.00187405,-0.00127593,0.00474902
 ,0.00384891,-0.00082036,-0.00244985,0.13384621,-0.06312550,0.27167636,
 -0.09966100,0.02207006,0.12290251,-0.02056313,0.00357621,0.02642669,0.
 00273121,0.00099335,-0.00388265,0.00986536,-0.00069110,-0.01270208,0.1
 0762755,0.02191674,-0.01659252,-0.02375126,0.00533767,-0.00607073,-0.0
 0947587,0.00099662,0.00444414,0.00176223,-0.00230251,0.00576893,0.0055
 3996,-0.02594852,0.01245018,0.12521860,-0.02453766,-0.28235976,-0.0001
 6479,-0.00044381,0.00263114,-0.00393566,0.00178073,-0.00178330,0.01162
 633,-0.00272421,-0.01312540,-0.13274447,0.02592495,0.29463731\\-0.0000
 0002,-0.00000006,-0.00000002,-0.00000004,0.00000010,0.00000003,0.00000
 012,0.00000020,0.00000007,-0.00000006,-0.00000029,-0.00000004,0.,0.000
 00005,-0.00000005\\\@


 Experience is what you get when you don't get what you want.
 -- Dan Stanford
 Leave Link 9999 at Sun Apr 26 08:47:21 2015, MaxMem=   524288000 cpu:         0.3
 Job cpu time:       0 days  0 hours  4 minutes 37.1 seconds.
 File lengths (MBytes):  RWF=      7 Int=      0 D2E=      0 Chk=      2 Scr=      1
 Normal termination of Gaussian 09 at Sun Apr 26 08:47:21 2015.
 (Enter /opt/g09/l1.exe)
 Link1:  Proceeding to internal job step number  2.
 ----------------------------------------------------------------------
 #P Geom=AllCheck Guess=TCheck SCRF=Check GenChk RB971/6-311+G(d,p) Fre
 q
 ----------------------------------------------------------------------
 1/7=10,10=4,29=7,30=1,38=1,40=1/1,3;
 2/12=2,15=1,40=1/2;
 3/5=4,6=6,7=111,11=2,14=-4,16=1,24=10,25=1,30=1,70=2,71=2,74=-20,75=-5,116=1,140=1/1,2,3;
 4/5=101/1;
 5/5=2,98=1/2;
 8/6=4,10=90,11=11/1;
 11/6=1,8=1,9=11,15=111,16=1,31=1/1,2,10;
 10/6=1,31=1/2;
 7/8=1,10=1,25=1,30=1/1,2,3,16;
 1/7=10,10=4,30=1/3;
 99//99;
 Leave Link    1 at Sun Apr 26 08:47:21 2015, MaxMem=   524288000 cpu:         0.4
 (Enter /opt/g09/l101.exe)
 Structure from the checkpoint file:  "/scratch/pb556/g09_run/add_hco//Gau-14694.chk"
 ----------------------
 freq-b971_463-51-4.gau
 ----------------------
 Charge =  0 Multiplicity = 1
 Redundant internal coordinates found in file.
 C,0,2.3662384341,0.2445574473,0.9395921348
 C,0,1.1222322254,0.6636426479,0.9931409058
 O,0,0.0218799377,1.0343342545,1.0404855866
 H,0,2.8887348894,0.0063062747,1.8563174905
 H,0,2.8538145134,0.1425493757,-0.0206261177
 Recover connectivity data from disk.
 NAtoms=      5 NQM=        5 NQMF=       0 NMMI=      0 NMMIF=      0
                NMic=       0 NMicF=      0.
                    Isotopes and Nuclear Properties:
 (Nuclear quadrupole moments (NQMom) in fm**2, nuclear magnetic moments (NMagM)
  in nuclear magnetons)

  Atom         1           2           3           4           5
 IAtWgt=          12          12          16           1           1
 AtmWgt=  12.0000000  12.0000000  15.9949146   1.0078250   1.0078250
[...]
     1   6     0.00  -0.01   0.18    -0.25   0.08   0.01     0.18  -0.06  -0.01
     2   6     0.00   0.02  -0.21     0.06  -0.02   0.00     0.00   0.00   0.00
     3   8     0.00   0.00   0.05     0.21  -0.07  -0.01    -0.07   0.02   0.00
     4   1     0.61  -0.19  -0.23    -0.60   0.19   0.21    -0.51   0.14   0.45
     5   1    -0.61   0.22  -0.18    -0.61   0.22  -0.16    -0.52   0.20  -0.40
                      7                      8                      9
                      A                      A                      A
 Frequencies --   2227.8770              3174.8141              3272.9473
 Red. masses --     11.9495                 1.0557                 1.1173
 Frc consts  --     34.9448                 6.2693                 7.0519
 IR Inten    --    681.5752                30.2818                11.5575
  Atom  AN      X      Y      Z        X      Y      Z        X      Y      Z
     1   6    -0.23   0.08   0.01    -0.06   0.02   0.00     0.00  -0.01   0.10
     2   6     0.79  -0.27  -0.03     0.01   0.00   0.00     0.00   0.00   0.00
     3   8    -0.40   0.14   0.02     0.00   0.00   0.00     0.00   0.00   0.00
     4   1    -0.14   0.05  -0.11     0.34  -0.15   0.60    -0.35   0.16  -0.59
     5   1    -0.13   0.04   0.13     0.32  -0.07  -0.63     0.33  -0.07  -0.62

 -------------------
 - Thermochemistry -
 -------------------
 Temperature   298.150 Kelvin.  Pressure   1.00000 Atm.
 Atom     1 has atomic number  6 and mass  12.00000
 Atom     2 has atomic number  6 and mass  12.00000
 Atom     3 has atomic number  8 and mass  15.99491
 Atom     4 has atomic number  1 and mass   1.00783
 Atom     5 has atomic number  1 and mass   1.00783
 Molecular mass:    42.01056 amu.
 Principal axes and moments of inertia in atomic units:
                           1         2         3
     Eigenvalues --     6.37510 175.59160 181.96670
           X            0.94688   0.01853   0.32105
           Y           -0.31899  -0.07238   0.94499
           Z           -0.04075   0.99721   0.06262
 This molecule is an asymmetric top.
 Rotational symmetry number  1.
 Rotational temperatures (Kelvin)     13.58626     0.49327     0.47599
 Rotational constants (GHZ):         283.09213    10.27806     9.91797
 Zero-point vibrational energy      82570.4 (Joules/Mol)
                                   19.73481 (Kcal/Mol)
 Warning -- explicit consideration of   3 degrees of freedom as
           vibrations may cause significant error
 Vibrational temperatures:    635.35   781.79   852.22  1418.74  1678.45
          (Kelvin)           2013.01  3205.41  4567.84  4709.04
 
 Zero-point correction=                           0.031449 (Hartree/Particle)
 Thermal correction to Energy=                    0.034977
 Thermal correction to Enthalpy=                  0.035921
 Thermal correction to Gibbs Free Energy=         0.007846
 Sum of electronic and zero-point Energies=           -152.570929
 Sum of electronic and thermal Energies=              -152.567402
 Sum of electronic and thermal Enthalpies=            -152.566458
 Sum of electronic and thermal Free Energies=         -152.594533
 
                     E (Thermal)             CV                S
                      KCal/Mol        Cal/Mol-Kelvin    Cal/Mol-Kelvin
 Total                   21.948             10.275             59.090
 Electronic               0.000              0.000              0.000
 Translational            0.889              2.981             37.133
 Rotational               0.889              2.981             19.949
 Vibrational             20.171              4.313              2.008
 Vibration     1          0.801              1.379              0.822
 Vibration     2          0.898              1.154              0.558
 Vibration     3          0.950              1.048              0.463
                       Q            Log10(Q)             Ln(Q)
 Total Bot       0.246179D-03         -3.608750         -8.309453
 Total V=0       0.719363D+11         10.856948         24.999047
 Vib (Bot)       0.450215D-14        -14.346580        -33.034222
 Vib (Bot)    1  0.390974D+00         -0.407852         -0.939113
 Vib (Bot)    2  0.290644D+00         -0.536638         -1.235655
 Vib (Bot)    3  0.254081D+00         -0.595028         -1.370103
 Vib (V=0)       0.131558D+01          0.119118          0.274278
 Vib (V=0)    1  0.113471D+01          0.054886          0.126380
 Vib (V=0)    2  0.107834D+01          0.032755          0.075420
 Vib (V=0)    3  0.106085D+01          0.025656          0.059074
 Electronic      0.100000D+01          0.000000          0.000000
 Translational   0.107027D+08          7.029493         16.186006
 Rotational      0.510902D+04          3.708338          8.538763
 
                                                        freq-b971_463-51-4.gau
                                                             IR Spectrum
 
     3   3                                    2                               1        1                                             
     2   1                                    2                               3        1      9               55   4                 
     7   7                                    2                               9        6      8               94   4                 
     3   5                                    8                               9        7      6               23   2                 
 
     X   X                                    X                               X        X      X               XX   X                 
                                              X                                                               XX                     
                                              X                                                               X                      
                                              X                                                                                      
                                              X                                                                                      
                                              X                                                                                      
                                              X                                                                                      
                                              X                                                                                      
                                              X                                                                                      
                                              X                                                                                      
                                              X                                                                                      
                                              X                                                                                      
                                              X                                                                                      
                                              X                                                                                      
                                              X                                                                                      
                                              X                                                                                      
                                              X                                                                                      
                                              X                                                                                      
                                              X                                                                                      
                                              X                                                                                      
 
 -------------------------------------------------------------------
 Center     Atomic                   Forces (Hartrees/Bohr)
 Number     Number              X              Y              Z
 -------------------------------------------------------------------
      1        6           0.000000045    0.000000054    0.000000021
      2        6          -0.000000013   -0.000000091   -0.000000031
      3        8          -0.000000109   -0.000000201   -0.000000072
      4        1           0.000000064    0.000000289    0.000000051
      5        1           0.000000013   -0.000000051    0.000000032
 -------------------------------------------------------------------
 Cartesian Forces:  Max     0.000000289 RMS     0.000000105
 Force constants in Cartesian coordinates: 
                1             2             3             4             5 
      1  0.731270D+00
      2 -0.232734D+00  0.123632D+00
      3 -0.190845D-01 -0.312634D-01  0.612044D+00
      4 -0.475275D+00  0.148400D+00  0.176322D-01  0.142635D+01
      5  0.148401D+00 -0.853507D-01 -0.118569D-02 -0.446916D+00  0.250775D+00
      6  0.176292D-01 -0.118668D-02 -0.107538D+00 -0.559234D-01  0.145384D-01
      7 -0.473671D-01  0.206296D-01  0.310140D-02 -0.909038D+00  0.287665D+00
      8  0.206292D-01  0.713144D-02 -0.269398D-02  0.287665D+00 -0.152081D+00
      9  0.310378D-02 -0.269414D-02  0.387046D-01  0.365819D-01 -0.116329D-01
     10 -0.108967D+00  0.416346D-01 -0.124552D+00 -0.214767D-01  0.727375D-02
     11  0.417873D-01 -0.288200D-01  0.588943D-01  0.551354D-02 -0.727262D-02
     12 -0.126867D+00  0.596818D-01 -0.260850D+00  0.187404D-02 -0.127593D-02
     13 -0.996610D-01  0.220701D-01  0.122903D+00 -0.205631D-01  0.357621D-02
     14  0.219167D-01 -0.165925D-01 -0.237513D-01  0.533766D-02 -0.607073D-02
     15  0.125219D+00 -0.245377D-01 -0.282360D+00 -0.164790D-03 -0.443812D-03
                6             7             8             9            10 
      6  0.166944D+00
      7  0.365843D-01  0.950655D+00
      8 -0.116341D-01 -0.309675D+00  0.135683D+00
      9 -0.667863D-01 -0.395990D-01  0.133677D-01  0.323149D-01
     10 -0.247168D-01  0.301863D-02  0.387684D-03  0.379588D-02  0.117560D+00
     11  0.775833D-02  0.383747D-03  0.482229D-02 -0.802909D-03 -0.469935D-01
     12  0.474902D-02  0.384891D-02 -0.820364D-03 -0.244985D-02  0.133846D+00
     13  0.264267D-01  0.273121D-02  0.993353D-03 -0.388264D-02  0.986536D-02
     14 -0.947587D-02  0.996623D-03  0.444414D-02  0.176223D-02 -0.230251D-02
     15  0.263114D-02 -0.393566D-02  0.178073D-02 -0.178330D-02  0.116263D-01
               11            12            13            14            15 
     11  0.255014D-01
     12 -0.631255D-01  0.271676D+00
     13 -0.691103D-03 -0.127021D-01  0.107628D+00
     14  0.576892D-02  0.553996D-02 -0.259485D-01  0.124502D-01
     15 -0.272421D-02 -0.131254D-01 -0.132744D+00  0.259250D-01  0.294637D+00
 FormGI is forming the generalized inverse of G from B-inverse, IUseBI=4.
 Force constants in internal coordinates: 
                1             2             3             4             5 
      1  0.620957D+00
      2  0.547186D-02  0.366919D+00
      3  0.546882D-02  0.150227D-02  0.366904D+00
      4  0.491616D-01 -0.489094D-02 -0.489499D-02  0.105668D+01
      5  0.137324D-01  0.109200D-01 -0.134682D-01 -0.190842D-03  0.574915D-01
      6  0.137476D-01 -0.134655D-01  0.109232D-01 -0.172241D-03 -0.274979D-01
      7 -0.274800D-01  0.254554D-02  0.254497D-02  0.363083D-03 -0.299936D-01
      8 -0.693421D-05  0.292545D-03 -0.292267D-03  0.439228D-04  0.206587D-01
      9  0.000000D+00 -0.156549D-05  0.000000D+00 -0.104718D-04  0.597912D-05
     10  0.238798D-05  0.584188D-05  0.000000D+00  0.489273D-05 -0.212606D-05
                6             7             8             9            10 
      6  0.574836D-01
      7 -0.299857D-01  0.599793D-01
      8 -0.206615D-01  0.281108D-05  0.147614D+00
      9 -0.607341D-05  0.000000D+00 -0.219384D-04  0.311707D-01
     10  0.224138D-05  0.000000D+00  0.116463D-04 -0.856777D-02  0.164664D-01
 Leave Link  716 at Sun Apr 26 08:47:37 2015, MaxMem=   524288000 cpu:         0.3
 (Enter /opt/g09/l103.exe)

 GradGradGradGradGradGradGradGradGradGradGradGradGradGradGradGradGradGrad
 Berny optimization.
 Red2BG is reusing G-inverse.
 Internal  Forces:  Max     0.000000036 RMS     0.000000013
 Search for a local minimum.
 Step number   1 out of a maximum of    2
 All quantities printed in internal units (Hartrees-Bohrs-Radians)
 Second derivative matrix not updated -- analytic derivatives used.
 The second derivative matrix:
                          R1        R2        R3        R4        A1
           R1           0.62096
           R2           0.00547   0.36692
           R3           0.00547   0.00150   0.36690
           R4           0.04916  -0.00489  -0.00489   1.05668
           A1           0.01373   0.01092  -0.01347  -0.00019   0.05749
           A2           0.01375  -0.01347   0.01092  -0.00017  -0.02750
           A3          -0.02748   0.00255   0.00254   0.00036  -0.02999
           A4          -0.00001   0.00029  -0.00029   0.00004   0.02066
           A5           0.00000   0.00000   0.00000  -0.00001   0.00001
           D1           0.00000   0.00001   0.00000   0.00000   0.00000
                          A2        A3        A4        A5        D1
           A2           0.05748
           A3          -0.02999   0.05998
           A4          -0.02066   0.00000   0.14761
           A5          -0.00001   0.00000  -0.00002   0.03117
           D1           0.00000   0.00000   0.00001  -0.00857   0.01647
 ITU=  0
     Eigenvalues ---    0.01253   0.03511   0.07174   0.08775   0.15872
     Eigenvalues ---    0.36755   0.36818   0.61787   1.06222
 Angle between quadratic step and forces=  90.00 degrees.
 Linear search not attempted -- first point.
 Iteration  1 RMS(Cart)=  0.00000003 RMS(Int)=  0.00000000
 ITry= 1 IFail=0 DXMaxC= 4.22D-08 DCOld= 1.00D+10 DXMaxT= 3.00D-01 DXLimC= 3.00D+00 Rises=F
 Variable       Old X    -DE/DX   Delta X   Delta X   Delta X     New X
                                 (Linear)    (Quad)   (Total)
    R1        2.48271   0.00000   0.00000   0.00000   0.00000   2.48271
    R2        2.04418   0.00000   0.00000   0.00000   0.00000   2.04418
    R3        2.04419   0.00000   0.00000   0.00000   0.00000   2.04419
    R4        2.19601   0.00000   0.00000   0.00000   0.00000   2.19601
    A1        2.08642   0.00000   0.00000   0.00000   0.00000   2.08642
    A2        2.08639   0.00000   0.00000   0.00000   0.00000   2.08639
    A3        2.11038   0.00000   0.00000   0.00000   0.00000   2.11038
    A4        3.14158   0.00000   0.00000   0.00000   0.00000   3.14158
    A5        3.14159   0.00000   0.00000   0.00000   0.00000   3.14159
    D1        3.14158   0.00000   0.00000   0.00000   0.00000   3.14158
         Item               Value     Threshold  Converged?
 Maximum Force            0.000000     0.000015     YES
 RMS     Force            0.000000     0.000010     YES
 Maximum Displacement     0.000000     0.000060     YES
 RMS     Displacement     0.000000     0.000040     YES
 Predicted change in Energy=-1.035179D-15
 Optimization completed.
    -- Stationary point found.
                           ----------------------------
                           !   Optimized Parameters   !
                           ! (Angstroms and Degrees)  !
 --------------------------                            --------------------------
 ! Name  Definition              Value          Derivative Info.                !
 --------------------------------------------------------------------------------
 ! R1    R(1,2)                  1.3138         -DE/DX =    0.0                 !
 ! R2    R(1,4)                  1.0817         -DE/DX =    0.0                 !
 ! R3    R(1,5)                  1.0817         -DE/DX =    0.0                 !
 ! R4    R(2,3)                  1.1621         -DE/DX =    0.0                 !
 ! A1    A(2,1,4)              119.5429         -DE/DX =    0.0                 !
 ! A2    A(2,1,5)              119.5414         -DE/DX =    0.0                 !
 ! A3    A(4,1,5)              120.9156         -DE/DX =    0.0                 !
 ! A4    L(1,2,3,5,-1)         179.999          -DE/DX =    0.0                 !
 ! A5    L(1,2,3,5,-2)         180.0            -DE/DX =    0.0                 !
 ! D1    D(2,1,5,4)            179.999          -DE/DX =    0.0                 !
 --------------------------------------------------------------------------------
 GradGradGradGradGradGradGradGradGradGradGradGradGradGradGradGradGradGrad

 Leave Link  103 at Sun Apr 26 08:47:37 2015, MaxMem=   524288000 cpu:         0.0
 (Enter /opt/g09/l9999.exe)
 1\1\GINC-ARP\Freq\RB971\6-311+G(d,p)\C2H2O1\PB556\26-Apr-2015\0\\#P Ge
 om=AllCheck Guess=TCheck SCRF=Check GenChk RB971/6-311+G(d,p) Freq\\fr
 eq-b971_463-51-4.gau\\0,1\C,2.3662384341,0.2445574473,0.9395921348\C,1
 .1222322254,0.6636426479,0.9931409058\O,0.0218799377,1.0343342545,1.04
 04855866\H,2.8887348894,0.0063062747,1.8563174905\H,2.8538145134,0.142
 5493757,-0.0206261177\\Version=ES64L-G09RevD.01\HF=-152.6023788\RMSD=2
 .855e-09\RMSF=1.053e-07\ZeroPoint=0.0314494\Thermal=0.0349769\Dipole=0
 .569806,-0.1919514,-0.0245194\DipoleDeriv=-0.9153358,0.1128385,0.02186
 18,0.1128213,-0.6150582,-0.0336818,0.0218786,-0.033687,-0.1827245,2.16
 64088,-0.6531618,-0.0826349,-0.6530748,0.4481111,0.0249777,-0.0826332,
 0.0249776,0.274589,-1.5167293,0.4629172,0.0572435,0.4628559,-0.2995079
 ,-0.0125913,0.0572413,-0.0125918,-0.2465352,0.1332519,0.0381425,0.0079
 658,0.0374594,0.2337792,0.0086092,0.0182855,0.0051004,0.0763574,0.1324
 045,0.0392636,-0.0044361,0.0399382,0.2326759,0.0126861,-0.0147722,0.01
 62008,0.0783133\Polar=39.2966212,-7.0583595,20.7125316,-0.9347494,0.43
 26153,16.6076584\PG=C01 [X(C2H2O1)]\NImag=0\\0.73127021,-0.23273381,0.
 12363171,-0.01908448,-0.03126335,0.61204352,-0.47527472,0.14839954,0.0
 1763222,1.42635218,0.14840055,-0.08535065,-0.00118569,-0.44691598,0.25
 077480,0.01762919,-0.00118668,-0.10753820,-0.05592341,0.01453836,0.166
 94436,-0.04736711,0.02062964,0.00310140,-0.90903765,0.28766547,0.03658
 431,0.95065492,0.02062920,0.00713144,-0.00269398,0.28766525,-0.1520808
 0,-0.01163414,-0.30967548,0.13568292,0.00310378,-0.00269414,0.03870457
 ,0.03658194,-0.01163293,-0.06678633,-0.03959896,0.01336775,0.03231491,
 -0.10896739,0.04163457,-0.12455165,-0.02147670,0.00727375,-0.02471677,
 0.00301863,0.00038768,0.00379588,0.11756009,0.04178732,-0.02881998,0.0
 5889428,0.00551354,-0.00727262,0.00775833,0.00038375,0.00482229,-0.000
 80291,-0.04699349,0.02550139,-0.12686709,0.05968183,-0.26085013,0.0018
 7404,-0.00127593,0.00474902,0.00384891,-0.00082036,-0.00244985,0.13384
 621,-0.06312550,0.27167635,-0.09966100,0.02207006,0.12290251,-0.020563
 12,0.00357621,0.02642668,0.00273121,0.00099335,-0.00388264,0.00986536,
 -0.00069110,-0.01270208,0.10762755,0.02191674,-0.01659252,-0.02375127,
 0.00533766,-0.00607073,-0.00947587,0.00099662,0.00444414,0.00176223,-0
 .00230251,0.00576892,0.00553996,-0.02594852,0.01245019,0.12521861,-0.0
 2453767,-0.28235976,-0.00016479,-0.00044381,0.00263114,-0.00393566,0.0
 0178073,-0.00178330,0.01162632,-0.00272421,-0.01312539,-0.13274448,0.0
 2592495,0.29463731\\-0.00000004,-0.00000005,-0.00000002,0.00000001,0.0
 0000009,0.00000003,0.00000011,0.00000020,0.00000007,-0.00000006,-0.000
 00029,-0.00000005,-0.00000001,0.00000005,-0.00000003\\\@


 THE SECRET OF SUCCESS IN LIFE IS TO EAT WHAT YOU LIKE, AND LET THE FOOD
 FIGHT IT OUT INSIDE YOU. -- FROM A FORTUNE COOKIE
 Job cpu time:       0 days  0 hours  2 minutes  7.3 seconds.
 File lengths (MBytes):  RWF=      7 Int=      0 D2E=      0 Chk=      2 Scr=      1
 Normal termination of Gaussian 09 at Sun Apr 26 08:47:37 2015.
