 Entering Gaussian System, Link 0=g09
 Input=0_0freq-0_0corr_b971_542-46-1.gau
 Output=0_0freq-0_0corr_b971_542-46-1.log
 Initial command:
 /opt/g09/l1.exe "/scratch/pb556/g09_run/add_hco//Gau-10002.inp" -scrdir="/scratch/pb556/g09_run/add_hco//"
 Entering Link 1 = /opt/g09/l1.exe PID=     10011.
  
 Copyright (c) 1988,1990,1992,1993,1995,1998,2003,2009,2013,
            Gaussian, Inc.  All Rights Reserved.
  
 This is part of the Gaussian(R) 09 program.  It is based on
 the Gaussian(R) 03 system (copyright 2003, Gaussian, Inc.),
 the Gaussian(R) 98 system (copyright 1998, Gaussian, Inc.),
 the Gaussian(R) 94 system (copyright 1995, Gaussian, Inc.),
 the Gaussian 92(TM) system (copyright 1992, Gaussian, Inc.),
 the Gaussian 90(TM) system (copyright 1990, Gaussian, Inc.),
 the Gaussian 88(TM) system (copyright 1988, Gaussian, Inc.),
 the Gaussian 86(TM) system (copyright 1986, Carnegie Mellon
 University), and the Gaussian 82(TM) system (copyright 1983,
 Carnegie Mellon University). Gaussian is a federally registered
 trademark of Gaussian, Inc.
  
 This software contains proprietary and confidential information,
 including trade secrets, belonging to Gaussian, Inc.
  
 This software is provided under written license and may be
 used, copied, transmitted, or stored only in accord with that
 written license.
  
 The following legend is applicable only to US Government
 contracts under FAR:
  
                    RESTRICTED RIGHTS LEGEND
  
 Use, reproduction and disclosure by the US Government is
 subject to restrictions as set forth in subparagraphs (a)
 and (c) of the Commercial Computer Software - Restricted
 Rights clause in FAR 52.227-19.
  
 Gaussian, Inc.
 340 Quinnipiac St., Bldg. 40, Wallingford CT 06492
  
  
 ---------------------------------------------------------------
 Warning -- This program may not be used in any manner that
 competes with the business of Gaussian, Inc. or will provide
 assistance to any competitor of Gaussian, Inc.  The licensee
 of this program is prohibited from giving any competitor of
 Gaussian, Inc. access to this program.  By using this program,
 the user acknowledges that Gaussian, Inc. is engaged in the
 business of creating and licensing software in the field of
 computational chemistry and represents and warrants to the
 licensee that it is not a competitor of Gaussian, Inc. and that
 it will not use this program in any manner prohibited above.
 ---------------------------------------------------------------
  

 Cite this work as:
 Gaussian 09, Revision D.01,
 M. J. Frisch, G. W. Trucks, H. B. Schlegel, G. E. Scuseria, 
 M. A. Robb, J. R. Cheeseman, G. Scalmani, V. Barone, B. Mennucci, 
 G. A. Petersson, H. Nakatsuji, M. Caricato, X. Li, H. P. Hratchian, 
 A. F. Izmaylov, J. Bloino, G. Zheng, J. L. Sonnenberg, M. Hada, 
 M. Ehara, K. Toyota, R. Fukuda, J. Hasegawa, M. Ishida, T. Nakajima, 
 Y. Honda, O. Kitao, H. Nakai, T. Vreven, J. A. Montgomery, Jr., 
 J. E. Peralta, F. Ogliaro, M. Bearpark, J. J. Heyd, E. Brothers, 
 K. N. Kudin, V. N. Staroverov, T. Keith, R. Kobayashi, J. Normand, 
 K. Raghavachari, A. Rendell, J. C. Burant, S. S. Iyengar, J. Tomasi, 
 M. Cossi, N. Rega, J. M. Millam, M. Klene, J. E. Knox, J. B. Cross, 
 V. Bakken, C. Adamo, J. Jaramillo, R. Gomperts, R. E. Stratmann, 
 O. Yazyev, A. J. Austin, R. Cammi, C. Pomelli, J. W. Ochterski, 
 R. L. Martin, K. Morokuma, V. G. Zakrzewski, G. A. Voth, 
 P. Salvador, J. J. Dannenberg, S. Dapprich, A. D. Daniels, 
 O. Farkas, J. B. Foresman, J. V. Ortiz, J. Cioslowski, 
 and D. J. Fox, Gaussian, Inc., Wallingford CT, 2013.
 
 ******************************************
 Gaussian 09:  ES64L-G09RevD.01 24-Apr-2013
                25-Apr-2015 
 ******************************************
 %NProcShared=8
 Will use up to    8 processors via shared memory.
 %Mem=500MW
 ----------------------------------------------------------------------
 #p rB971/6-311+G(d,p) Opt=(Tight, CalcAll) Freq GFInput Population=Non
 e Integral(Grid=UltraFine) Guess=MIX NoSymmetry
 ----------------------------------------------------------------------
 1/7=10,10=4,14=-1,18=20,19=15,26=4,38=1/1,3;
 2/9=110,12=2,15=1,17=6,18=5,40=1/2;
 3/5=4,6=6,7=111,11=2,16=1,24=10,25=1,30=1,71=2,74=-20,75=-5,116=1,140=1/1,2,3;
 4/13=-1/1;
 5/5=2,38=5/2;
 8/6=4,10=90,11=11/1;
 11/6=1,8=1,9=11,15=111,16=1,31=1/1,2,10;
 10/6=1,31=1/2;
 7/10=1,25=1,30=1/1,2,3,16;
 1/7=10,10=4,14=-1,18=20,19=15,26=4/3(3);
 2/9=110,15=1/2;
 7/8=1,9=1,25=1,30=1,44=-1/16;
 99//99;
 2/9=110,15=1/2;
 3/5=4,6=6,7=111,11=2,16=1,25=1,30=1,71=2,74=-20,75=-5,116=1,140=1/1,2,3;
 4/5=5,16=3,69=1/1;
 5/5=2,38=5/2;
 8/6=4,10=90,11=11/1;
 11/6=1,8=1,9=11,15=111,16=1,31=1/1,2,10;
 10/6=1,31=1/2;
 7/10=1,25=1,30=1/1,2,3,16;
 1/7=10,10=4,14=-1,18=20,19=15,26=4/3(-8);
 2/9=110,15=1/2;
 7/8=1,9=1,25=1,30=1,44=-1/16;
 99//99;
 Leave Link    1 at Sat Apr 25 21:21:40 2015, MaxMem=   524288000 cpu:         0.6
 (Enter /opt/g09/l101.exe)
 ----------------------------------------------------------------------
 W:\Data\additional_hydrocarbons\nist\enthalpy_estimation\success\fine\
 0_0corr_b971_542-46-1.g09
 ----------------------------------------------------------------------
 Symbolic Z-matrix:
 Charge =  0 Multiplicity = 1
 C                    -0.08853   3.75802   0.77438 
 C                    -1.07641   3.25058  -0.24575 
 C                     1.24027   3.58152   0.78557 
 C                    -1.97801   2.12873   0.31402 
 C                    -3.03308   1.64594  -0.69661 
 C                    -3.94716   0.50716  -0.18531 
 C                     2.07324   2.83026  -0.22172 
 C                     2.59458   1.48323   0.32553 
 C                    -3.491    -0.92633  -0.52216 
 C                    -2.13247  -1.34487   0.06282 
 C                     3.44017   0.71376  -0.70406 
 C                     3.91498  -0.68867  -0.25551 
 C                    -1.83985  -2.84853  -0.15565 
 C                    -0.4991   -3.24192   0.45781 
 C                     2.99206  -1.86082  -0.64616 
 C                     1.62308  -1.89077   0.05133 
 C                     0.76959  -3.10265  -0.38662 
 O                    -0.42971  -3.62019   1.60977 
 H                    -0.52847   4.30778   1.60774 
 H                    -0.56259   2.88528  -1.14226 
 H                    -1.71526   4.0842   -0.57235 
 H                     1.79456   3.99812   1.62772 
 H                    -1.34338   1.2961    0.63971 
 H                    -2.48864   2.49149   1.21716 
 H                    -2.53647   1.32801  -1.62554 
 H                    -3.65566   2.50746  -0.97245 
 H                    -4.07107   0.60216   0.90287 
 H                    -4.9491    0.63727  -0.61298 
 H                     2.93344   3.4502   -0.51305 
 H                     1.50218   2.64478  -1.13868 
 H                     1.73741   0.88282   0.65099 
 H                     3.19727   1.66295   1.22674 
 H                    -3.46217  -1.04537  -1.61515 
 H                    -4.25766  -1.6249   -0.15969 
 H                    -1.33284  -0.74544  -0.38997 
 H                    -2.11143  -1.14058   1.141 
 H                     4.31742   1.32796  -0.94741 
 H                     2.87435   0.61871  -1.64301 
 H                     4.89681  -0.8858   -0.70366 
 H                     4.075    -0.69365   0.8321 
 H                    -1.85147  -3.07554  -1.22885 
 H                    -2.61721  -3.44275   0.33621 
 H                     2.84455  -1.84534  -1.7362 
 H                     3.51227  -2.80262  -0.423 
 H                     1.07048  -0.96891  -0.16449 
 H                     1.76153  -1.93316   1.13878 
 H                     1.35076  -4.02128  -0.23915 
 H                     0.52473  -3.02282  -1.45212 
 
 NAtoms=     48 NQM=       48 NQMF=       0 NMMI=      0 NMMIF=      0
                NMic=       0 NMicF=      0.
                    Isotopes and Nuclear Properties:
 (Nuclear quadrupole moments (NQMom) in fm**2, nuclear magnetic moments (NMagM)
  in nuclear magnetons)

  Atom         1           2           3           4           5           6           7           8           9          10
 IAtWgt=          12          12          12          12          12          12          12          12          12          12
 AtmWgt=  12.0000000  12.0000000  12.0000000  12.0000000  12.0000000  12.0000000  12.0000000  12.0000000  12.0000000  12.0000000
 NucSpn=           0           0           0           0           0           0           0           0           0           0
 AtZEff=   0.0000000   0.0000000   0.0000000   0.0000000   0.0000000   0.0000000   0.0000000   0.0000000   0.0000000   0.0000000
 NQMom=    0.0000000   0.0000000   0.0000000   0.0000000   0.0000000   0.0000000   0.0000000   0.0000000   0.0000000   0.0000000
 NMagM=    0.0000000   0.0000000   0.0000000   0.0000000   0.0000000   0.0000000   0.0000000   0.0000000   0.0000000   0.0000000
 AtZNuc=   6.0000000   6.0000000   6.0000000   6.0000000   6.0000000   6.0000000   6.0000000   6.0000000   6.0000000   6.0000000

  Atom        11          12          13          14          15          16          17          18          19          20
 IAtWgt=          12          12          12          12          12          12          12          16           1           1
 AtmWgt=  12.0000000  12.0000000  12.0000000  12.0000000  12.0000000  12.0000000  12.0000000  15.9949146   1.0078250   1.0078250
 NucSpn=           0           0           0           0           0           0           0           0           1           1
 AtZEff=   0.0000000   0.0000000   0.0000000   0.0000000   0.0000000   0.0000000   0.0000000   0.0000000   0.0000000   0.0000000
 NQMom=    0.0000000   0.0000000   0.0000000   0.0000000   0.0000000   0.0000000   0.0000000   0.0000000   0.0000000   0.0000000
 NMagM=    0.0000000   0.0000000   0.0000000   0.0000000   0.0000000   0.0000000   0.0000000   0.0000000   2.7928460   2.7928460
 AtZNuc=   6.0000000   6.0000000   6.0000000   6.0000000   6.0000000   6.0000000   6.0000000   8.0000000   1.0000000   1.0000000

  Atom        21          22          23          24          25          26          27          28          29          30
 IAtWgt=           1           1           1           1           1           1           1           1           1           1
 AtmWgt=   1.0078250   1.0078250   1.0078250   1.0078250   1.0078250   1.0078250   1.0078250   1.0078250   1.0078250   1.0078250
 NucSpn=           1           1           1           1           1           1           1           1           1           1
 AtZEff=   0.0000000   0.0000000   0.0000000   0.0000000   0.0000000   0.0000000   0.0000000   0.0000000   0.0000000   0.0000000
 NQMom=    0.0000000   0.0000000   0.0000000   0.0000000   0.0000000   0.0000000   0.0000000   0.0000000   0.0000000   0.0000000
 NMagM=    2.7928460   2.7928460   2.7928460   2.7928460   2.7928460   2.7928460   2.7928460   2.7928460   2.7928460   2.7928460
 AtZNuc=   1.0000000   1.0000000   1.0000000   1.0000000   1.0000000   1.0000000   1.0000000   1.0000000   1.0000000   1.0000000

  Atom        31          32          33          34          35          36          37          38          39          40
 IAtWgt=           1           1           1           1           1           1           1           1           1           1
 AtmWgt=   1.0078250   1.0078250   1.0078250   1.0078250   1.0078250   1.0078250   1.0078250   1.0078250   1.0078250   1.0078250
 NucSpn=           1           1           1           1           1           1           1           1           1           1
 AtZEff=   0.0000000   0.0000000   0.0000000   0.0000000   0.0000000   0.0000000   0.0000000   0.0000000   0.0000000   0.0000000
 NQMom=    0.0000000   0.0000000   0.0000000   0.0000000   0.0000000   0.0000000   0.0000000   0.0000000   0.0000000   0.0000000
 NMagM=    2.7928460   2.7928460   2.7928460   2.7928460   2.7928460   2.7928460   2.7928460   2.7928460   2.7928460   2.7928460
 AtZNuc=   1.0000000   1.0000000   1.0000000   1.0000000   1.0000000   1.0000000   1.0000000   1.0000000   1.0000000   1.0000000

  Atom        41          42          43          44          45          46          47          48
 IAtWgt=           1           1           1           1           1           1           1           1
 AtmWgt=   1.0078250   1.0078250   1.0078250   1.0078250   1.0078250   1.0078250   1.0078250   1.0078250
 NucSpn=           1           1           1           1           1           1           1           1
 AtZEff=   0.0000000   0.0000000   0.0000000   0.0000000   0.0000000   0.0000000   0.0000000   0.0000000
 NQMom=    0.0000000   0.0000000   0.0000000   0.0000000   0.0000000   0.0000000   0.0000000   0.0000000
 NMagM=    2.7928460   2.7928460   2.7928460   2.7928460   2.7928460   2.7928460   2.7928460   2.7928460
 AtZNuc=   1.0000000   1.0000000   1.0000000   1.0000000   1.0000000   1.0000000   1.0000000   1.0000000
 Leave Link  101 at Sat Apr 25 21:21:41 2015, MaxMem=   524288000 cpu:         2.1
 (Enter /opt/g09/l103.exe)

 GradGradGradGradGradGradGradGradGradGradGradGradGradGradGradGradGradGrad
 Berny optimization.
 Initialization pass.
                           ----------------------------
                           !    Initial Parameters    !
                           ! (Angstroms and Degrees)  !
 --------------------------                            --------------------------
 ! Name  Definition              Value          Derivative Info.                !
 --------------------------------------------------------------------------------
 ! R1    R(1,2)                  1.508          calculate D2E/DX2 analytically  !
 ! R2    R(1,3)                  1.3405         calculate D2E/DX2 analytically  !
 ! R3    R(1,19)                 1.091          calculate D2E/DX2 analytically  !
 ! R4    R(2,4)                  1.5443         calculate D2E/DX2 analytically  !
 ! R5    R(2,20)                 1.096          calculate D2E/DX2 analytically  !
 ! R6    R(2,21)                 1.0999         calculate D2E/DX2 analytically  !
 ! R7    R(3,7)                  1.5076         calculate D2E/DX2 analytically  !
 ! R8    R(3,22)                 1.0909         calculate D2E/DX2 analytically  !
 ! R9    R(4,5)                  1.5387         calculate D2E/DX2 analytically  !
 ! R10   R(4,23)                 1.0964         calculate D2E/DX2 analytically  !
 ! R11   R(4,24)                 1.0991         calculate D2E/DX2 analytically  !
 ! R12   R(5,6)                  1.5472         calculate D2E/DX2 analytically  !
 ! R13   R(5,25)                 1.1003         calculate D2E/DX2 analytically  !
 ! R14   R(5,26)                 1.0981         calculate D2E/DX2 analytically  !
 ! R15   R(6,9)                  1.5416         calculate D2E/DX2 analytically  !
 ! R16   R(6,27)                 1.0993         calculate D2E/DX2 analytically  !
 ! R17   R(6,28)                 1.0971         calculate D2E/DX2 analytically  !
 ! R18   R(7,8)                  1.5446         calculate D2E/DX2 analytically  !
 ! R19   R(7,29)                 1.0996         calculate D2E/DX2 analytically  !
 ! R20   R(7,30)                 1.0961         calculate D2E/DX2 analytically  !
 ! R21   R(8,11)                 1.5386         calculate D2E/DX2 analytically  !
 ! R22   R(8,31)                 1.096          calculate D2E/DX2 analytically  !
 ! R23   R(8,32)                 1.099          calculate D2E/DX2 analytically  !
 ! R24   R(9,10)                 1.5372         calculate D2E/DX2 analytically  !
 ! R25   R(9,33)                 1.0998         calculate D2E/DX2 analytically  !
 ! R26   R(9,34)                 1.0987         calculate D2E/DX2 analytically  !
 ! R27   R(10,13)                1.5474         calculate D2E/DX2 analytically  !
 ! R28   R(10,35)                1.0972         calculate D2E/DX2 analytically  !
 ! R29   R(10,36)                1.0976         calculate D2E/DX2 analytically  !
 ! R30   R(11,12)                1.5471         calculate D2E/DX2 analytically  !
 ! R31   R(11,37)                1.0982         calculate D2E/DX2 analytically  !
 ! R32   R(11,38)                1.1004         calculate D2E/DX2 analytically  !
 ! R33   R(12,15)                1.5422         calculate D2E/DX2 analytically  !
 ! R34   R(12,39)                1.0971         calculate D2E/DX2 analytically  !
 ! R35   R(12,40)                1.0993         calculate D2E/DX2 analytically  !
 ! R36   R(13,14)                1.526          calculate D2E/DX2 analytically  !
 ! R37   R(13,41)                1.097          calculate D2E/DX2 analytically  !
 ! R38   R(13,42)                1.0951         calculate D2E/DX2 analytically  !
 ! R39   R(14,17)                1.5304         calculate D2E/DX2 analytically  !
 ! R40   R(14,18)                1.2145         calculate D2E/DX2 analytically  !
 ! R41   R(15,16)                1.5367         calculate D2E/DX2 analytically  !
 ! R42   R(15,43)                1.1001         calculate D2E/DX2 analytically  !
 ! R43   R(15,44)                1.0988         calculate D2E/DX2 analytically  !
 ! R44   R(16,17)                1.5456         calculate D2E/DX2 analytically  !
 ! R45   R(16,45)                1.0963         calculate D2E/DX2 analytically  !
 ! R46   R(16,46)                1.097          calculate D2E/DX2 analytically  !
 ! R47   R(17,47)                1.097          calculate D2E/DX2 analytically  !
 ! R48   R(17,48)                1.0962         calculate D2E/DX2 analytically  !
 ! A1    A(2,1,3)              127.6407         calculate D2E/DX2 analytically  !
 ! A2    A(2,1,19)             114.9691         calculate D2E/DX2 analytically  !
 ! A3    A(3,1,19)             117.3673         calculate D2E/DX2 analytically  !
 ! A4    A(1,2,4)              112.4395         calculate D2E/DX2 analytically  !
 ! A5    A(1,2,20)             111.0015         calculate D2E/DX2 analytically  !
 ! A6    A(1,2,21)             109.0467         calculate D2E/DX2 analytically  !
 ! A7    A(4,2,20)             109.1527         calculate D2E/DX2 analytically  !
 ! A8    A(4,2,21)             108.6099         calculate D2E/DX2 analytically  !
 ! A9    A(20,2,21)            106.3816         calculate D2E/DX2 analytically  !
 ! A10   A(1,3,7)              127.4246         calculate D2E/DX2 analytically  !
 ! A11   A(1,3,22)             117.3765         calculate D2E/DX2 analytically  !
 ! A12   A(7,3,22)             115.1737         calculate D2E/DX2 analytically  !
 ! A13   A(2,4,5)              112.9659         calculate D2E/DX2 analytically  !
 ! A14   A(2,4,23)             108.749          calculate D2E/DX2 analytically  !
 ! A15   A(2,4,24)             109.2282         calculate D2E/DX2 analytically  !
 ! A16   A(5,4,23)             110.7151         calculate D2E/DX2 analytically  !
 ! A17   A(5,4,24)             108.9474         calculate D2E/DX2 analytically  !
 ! A18   A(23,4,24)            105.9904         calculate D2E/DX2 analytically  !
 ! A19   A(4,5,6)              114.7707         calculate D2E/DX2 analytically  !
 ! A20   A(4,5,25)             109.615          calculate D2E/DX2 analytically  !
 ! A21   A(4,5,26)             107.9128         calculate D2E/DX2 analytically  !
 ! A22   A(6,5,25)             109.45           calculate D2E/DX2 analytically  !
 ! A23   A(6,5,26)             108.9958         calculate D2E/DX2 analytically  !
 ! A24   A(25,5,26)            105.6946         calculate D2E/DX2 analytically  !
 ! A25   A(5,6,9)              115.9378         calculate D2E/DX2 analytically  !
 ! A26   A(5,6,27)             109.2753         calculate D2E/DX2 analytically  !
 ! A27   A(5,6,28)             108.8706         calculate D2E/DX2 analytically  !
 ! A28   A(9,6,27)             109.2692         calculate D2E/DX2 analytically  !
 ! A29   A(9,6,28)             107.1773         calculate D2E/DX2 analytically  !
 ! A30   A(27,6,28)            105.8232         calculate D2E/DX2 analytically  !
 ! A31   A(3,7,8)              112.6029         calculate D2E/DX2 analytically  !
 ! A32   A(3,7,29)             109.1653         calculate D2E/DX2 analytically  !
 ! A33   A(3,7,30)             110.8197         calculate D2E/DX2 analytically  !
 ! A34   A(8,7,29)             108.7536         calculate D2E/DX2 analytically  !
 ! A35   A(8,7,30)             108.9465         calculate D2E/DX2 analytically  !
 ! A36   A(29,7,30)            106.34           calculate D2E/DX2 analytically  !
 ! A37   A(7,8,11)             112.6167         calculate D2E/DX2 analytically  !
 ! A38   A(7,8,31)             108.602          calculate D2E/DX2 analytically  !
 ! A39   A(7,8,32)             109.453          calculate D2E/DX2 analytically  !
 ! A40   A(11,8,31)            110.768          calculate D2E/DX2 analytically  !
 ! A41   A(11,8,32)            109.2174         calculate D2E/DX2 analytically  !
 ! A42   A(31,8,32)            105.9614         calculate D2E/DX2 analytically  !
 ! A43   A(6,9,10)             115.5655         calculate D2E/DX2 analytically  !
 ! A44   A(6,9,33)             108.9992         calculate D2E/DX2 analytically  !
 ! A45   A(6,9,34)             108.2201         calculate D2E/DX2 analytically  !
 ! A46   A(10,9,33)            108.9987         calculate D2E/DX2 analytically  !
 ! A47   A(10,9,34)            108.5432         calculate D2E/DX2 analytically  !
 ! A48   A(33,9,34)            106.1008         calculate D2E/DX2 analytically  !
 ! A49   A(9,10,13)            112.2088         calculate D2E/DX2 analytically  !
 ! A50   A(9,10,35)            109.7735         calculate D2E/DX2 analytically  !
 ! A51   A(9,10,36)            109.8824         calculate D2E/DX2 analytically  !
 ! A52   A(13,10,35)           109.5618         calculate D2E/DX2 analytically  !
 ! A53   A(13,10,36)           108.4177         calculate D2E/DX2 analytically  !
 ! A54   A(35,10,36)           106.8426         calculate D2E/DX2 analytically  !
 ! A55   A(8,11,12)            115.3419         calculate D2E/DX2 analytically  !
 ! A56   A(8,11,37)            107.9148         calculate D2E/DX2 analytically  !
 ! A57   A(8,11,38)            109.3669         calculate D2E/DX2 analytically  !
 ! A58   A(12,11,37)           109.0308         calculate D2E/DX2 analytically  !
 ! A59   A(12,11,38)           109.0815         calculate D2E/DX2 analytically  !
 ! A60   A(37,11,38)           105.6632         calculate D2E/DX2 analytically  !
 ! A61   A(11,12,15)           115.5872         calculate D2E/DX2 analytically  !
 ! A62   A(11,12,39)           108.6087         calculate D2E/DX2 analytically  !
 ! A63   A(11,12,40)           109.6104         calculate D2E/DX2 analytically  !
 ! A64   A(15,12,39)           107.1889         calculate D2E/DX2 analytically  !
 ! A65   A(15,12,40)           109.5286         calculate D2E/DX2 analytically  !
 ! A66   A(39,12,40)           105.8454         calculate D2E/DX2 analytically  !
 ! A67   A(10,13,14)           111.0941         calculate D2E/DX2 analytically  !
 ! A68   A(10,13,41)           109.707          calculate D2E/DX2 analytically  !
 ! A69   A(10,13,42)           109.2462         calculate D2E/DX2 analytically  !
 ! A70   A(14,13,41)           110.4408         calculate D2E/DX2 analytically  !
 ! A71   A(14,13,42)           107.6516         calculate D2E/DX2 analytically  !
 ! A72   A(41,13,42)           108.6377         calculate D2E/DX2 analytically  !
 ! A73   A(13,14,17)           118.8873         calculate D2E/DX2 analytically  !
 ! A74   A(13,14,18)           120.7844         calculate D2E/DX2 analytically  !
 ! A75   A(17,14,18)           120.2891         calculate D2E/DX2 analytically  !
 ! A76   A(12,15,16)           115.6561         calculate D2E/DX2 analytically  !
 ! A77   A(12,15,43)           108.6961         calculate D2E/DX2 analytically  !
 ! A78   A(12,15,44)           108.4623         calculate D2E/DX2 analytically  !
 ! A79   A(16,15,43)           109.3028         calculate D2E/DX2 analytically  !
 ! A80   A(16,15,44)           108.2321         calculate D2E/DX2 analytically  !
 ! A81   A(43,15,44)           106.068          calculate D2E/DX2 analytically  !
 ! A82   A(15,16,17)           112.2472         calculate D2E/DX2 analytically  !
 ! A83   A(15,16,45)           110.0789         calculate D2E/DX2 analytically  !
 ! A84   A(15,16,46)           109.7696         calculate D2E/DX2 analytically  !
 ! A85   A(17,16,45)           108.9783         calculate D2E/DX2 analytically  !
 ! A86   A(17,16,46)           108.679          calculate D2E/DX2 analytically  !
 ! A87   A(45,16,46)           106.9333         calculate D2E/DX2 analytically  !
 ! A88   A(14,17,16)           111.8877         calculate D2E/DX2 analytically  !
 ! A89   A(14,17,47)           106.7869         calculate D2E/DX2 analytically  !
 ! A90   A(14,17,48)           110.9642         calculate D2E/DX2 analytically  !
 ! A91   A(16,17,47)           109.0235         calculate D2E/DX2 analytically  !
 ! A92   A(16,17,48)           109.9785         calculate D2E/DX2 analytically  !
 ! A93   A(47,17,48)           108.0589         calculate D2E/DX2 analytically  !
 ! D1    D(3,1,2,4)            109.7187         calculate D2E/DX2 analytically  !
 ! D2    D(3,1,2,20)           -12.8806         calculate D2E/DX2 analytically  !
 ! D3    D(3,1,2,21)          -129.7613         calculate D2E/DX2 analytically  !
 ! D4    D(19,1,2,4)           -68.4791         calculate D2E/DX2 analytically  !
 ! D5    D(19,1,2,20)          168.9216         calculate D2E/DX2 analytically  !
 ! D6    D(19,1,2,21)           52.0409         calculate D2E/DX2 analytically  !
 ! D7    D(2,1,3,7)             -0.0156         calculate D2E/DX2 analytically  !
 ! D8    D(2,1,3,22)          -178.0922         calculate D2E/DX2 analytically  !
 ! D9    D(19,1,3,7)           178.1447         calculate D2E/DX2 analytically  !
 ! D10   D(19,1,3,22)            0.0681         calculate D2E/DX2 analytically  !
 ! D11   D(1,2,4,5)            177.3975         calculate D2E/DX2 analytically  !
 ! D12   D(1,2,4,23)           -59.2668         calculate D2E/DX2 analytically  !
 ! D13   D(1,2,4,24)            55.9784         calculate D2E/DX2 analytically  !
 ! D14   D(20,2,4,5)           -58.9672         calculate D2E/DX2 analytically  !
 ! D15   D(20,2,4,23)           64.3685         calculate D2E/DX2 analytically  !
 ! D16   D(20,2,4,24)          179.6136         calculate D2E/DX2 analytically  !
 ! D17   D(21,2,4,5)            56.6261         calculate D2E/DX2 analytically  !
 ! D18   D(21,2,4,23)          179.9618         calculate D2E/DX2 analytically  !
 ! D19   D(21,2,4,24)          -64.793          calculate D2E/DX2 analytically  !
 ! D20   D(1,3,7,8)           -107.3626         calculate D2E/DX2 analytically  !
 ! D21   D(1,3,7,29)           131.7483         calculate D2E/DX2 analytically  !
 ! D22   D(1,3,7,30)            14.9525         calculate D2E/DX2 analytically  !
 ! D23   D(22,3,7,8)            70.7502         calculate D2E/DX2 analytically  !
 ! D24   D(22,3,7,29)          -50.1389         calculate D2E/DX2 analytically  !
 ! D25   D(22,3,7,30)         -166.9347         calculate D2E/DX2 analytically  !
 ! D26   D(2,4,5,6)            179.1765         calculate D2E/DX2 analytically  !
 ! D27   D(2,4,5,25)            55.5506         calculate D2E/DX2 analytically  !
 ! D28   D(2,4,5,26)           -59.0947         calculate D2E/DX2 analytically  !
 ! D29   D(23,4,5,6)            56.9356         calculate D2E/DX2 analytically  !
 ! D30   D(23,4,5,25)          -66.6902         calculate D2E/DX2 analytically  !
 ! D31   D(23,4,5,26)          178.6645         calculate D2E/DX2 analytically  !
 ! D32   D(24,4,5,6)           -59.2458         calculate D2E/DX2 analytically  !
 ! D33   D(24,4,5,25)          177.1284         calculate D2E/DX2 analytically  !
 ! D34   D(24,4,5,26)           62.4831         calculate D2E/DX2 analytically  !
 ! D35   D(4,5,6,9)            -93.4489         calculate D2E/DX2 analytically  !
 ! D36   D(4,5,6,27)            30.5281         calculate D2E/DX2 analytically  !
 ! D37   D(4,5,6,28)           145.6663         calculate D2E/DX2 analytically  !
 ! D38   D(25,5,6,9)            30.2648         calculate D2E/DX2 analytically  !
 ! D39   D(25,5,6,27)          154.2418         calculate D2E/DX2 analytically  !
 ! D40   D(25,5,6,28)          -90.62           calculate D2E/DX2 analytically  !
 ! D41   D(26,5,6,9)           145.4135         calculate D2E/DX2 analytically  !
 ! D42   D(26,5,6,27)          -90.6095         calculate D2E/DX2 analytically  !
 ! D43   D(26,5,6,28)           24.5287         calculate D2E/DX2 analytically  !
 ! D44   D(5,6,9,10)            61.6894         calculate D2E/DX2 analytically  !
 ! D45   D(5,6,9,33)           -61.4298         calculate D2E/DX2 analytically  !
 ! D46   D(5,6,9,34)          -176.3988         calculate D2E/DX2 analytically  !
 ! D47   D(27,6,9,10)          -62.2908         calculate D2E/DX2 analytically  !
 ! D48   D(27,6,9,33)          174.59           calculate D2E/DX2 analytically  !
 ! D49   D(27,6,9,34)           59.6211         calculate D2E/DX2 analytically  !
 ! D50   D(28,6,9,10)         -176.5209         calculate D2E/DX2 analytically  !
 ! D51   D(28,6,9,33)           60.3599         calculate D2E/DX2 analytically  !
 ! D52   D(28,6,9,34)          -54.609          calculate D2E/DX2 analytically  !
 ! D53   D(3,7,8,11)           179.7778         calculate D2E/DX2 analytically  !
 ! D54   D(3,7,8,31)            56.7178         calculate D2E/DX2 analytically  !
 ! D55   D(3,7,8,32)           -58.5335         calculate D2E/DX2 analytically  !
 ! D56   D(29,7,8,11)          -59.0978         calculate D2E/DX2 analytically  !
 ! D57   D(29,7,8,31)          177.8422         calculate D2E/DX2 analytically  !
 ! D58   D(29,7,8,32)           62.5908         calculate D2E/DX2 analytically  !
 ! D59   D(30,7,8,11)           56.413          calculate D2E/DX2 analytically  !
 ! D60   D(30,7,8,31)          -66.647          calculate D2E/DX2 analytically  !
 ! D61   D(30,7,8,32)          178.1017         calculate D2E/DX2 analytically  !
 ! D62   D(7,8,11,12)         -176.0306         calculate D2E/DX2 analytically  !
 ! D63   D(7,8,11,37)           61.8097         calculate D2E/DX2 analytically  !
 ! D64   D(7,8,11,38)          -52.6713         calculate D2E/DX2 analytically  !
 ! D65   D(31,8,11,12)         -54.1893         calculate D2E/DX2 analytically  !
 ! D66   D(31,8,11,37)        -176.349          calculate D2E/DX2 analytically  !
 ! D67   D(31,8,11,38)          69.1699         calculate D2E/DX2 analytically  !
 ! D68   D(32,8,11,12)          62.1472         calculate D2E/DX2 analytically  !
 ! D69   D(32,8,11,37)         -60.0125         calculate D2E/DX2 analytically  !
 ! D70   D(32,8,11,38)        -174.4935         calculate D2E/DX2 analytically  !
 ! D71   D(6,9,10,13)          172.1367         calculate D2E/DX2 analytically  !
 ! D72   D(6,9,10,35)          -65.7843         calculate D2E/DX2 analytically  !
 ! D73   D(6,9,10,36)           51.4369         calculate D2E/DX2 analytically  !
 ! D74   D(33,9,10,13)         -64.7438         calculate D2E/DX2 analytically  !
 ! D75   D(33,9,10,35)          57.3352         calculate D2E/DX2 analytically  !
 ! D76   D(33,9,10,36)         174.5564         calculate D2E/DX2 analytically  !
 ! D77   D(34,9,10,13)          50.3979         calculate D2E/DX2 analytically  !
 ! D78   D(34,9,10,35)         172.4769         calculate D2E/DX2 analytically  !
 ! D79   D(34,9,10,36)         -70.302          calculate D2E/DX2 analytically  !
 ! D80   D(9,10,13,14)        -178.9001         calculate D2E/DX2 analytically  !
 ! D81   D(9,10,13,41)          58.7029         calculate D2E/DX2 analytically  !
 ! D82   D(9,10,13,42)         -60.2847         calculate D2E/DX2 analytically  !
 ! D83   D(35,10,13,14)         58.9005         calculate D2E/DX2 analytically  !
 ! D84   D(35,10,13,41)        -63.4965         calculate D2E/DX2 analytically  !
 ! D85   D(35,10,13,42)        177.5158         calculate D2E/DX2 analytically  !
 ! D86   D(36,10,13,14)        -57.3577         calculate D2E/DX2 analytically  !
 ! D87   D(36,10,13,41)       -179.7547         calculate D2E/DX2 analytically  !
 ! D88   D(36,10,13,42)         61.2576         calculate D2E/DX2 analytically  !
 ! D89   D(8,11,12,15)          92.5224         calculate D2E/DX2 analytically  !
 ! D90   D(8,11,12,39)        -147.016          calculate D2E/DX2 analytically  !
 ! D91   D(8,11,12,40)         -31.8141         calculate D2E/DX2 analytically  !
 ! D92   D(37,11,12,15)       -145.9177         calculate D2E/DX2 analytically  !
 ! D93   D(37,11,12,39)        -25.4562         calculate D2E/DX2 analytically  !
 ! D94   D(37,11,12,40)         89.7457         calculate D2E/DX2 analytically  !
 ! D95   D(38,11,12,15)        -30.9876         calculate D2E/DX2 analytically  !
 ! D96   D(38,11,12,39)         89.474          calculate D2E/DX2 analytically  !
 ! D97   D(38,11,12,40)       -155.3241         calculate D2E/DX2 analytically  !
 ! D98   D(11,12,15,16)        -67.4991         calculate D2E/DX2 analytically  !
 ! D99   D(11,12,15,43)         55.8465         calculate D2E/DX2 analytically  !
 ! D100  D(11,12,15,44)        170.7463         calculate D2E/DX2 analytically  !
 ! D101  D(39,12,15,16)        171.2715         calculate D2E/DX2 analytically  !
 ! D102  D(39,12,15,43)        -65.3829         calculate D2E/DX2 analytically  !
 ! D103  D(39,12,15,44)         49.5169         calculate D2E/DX2 analytically  !
 ! D104  D(40,12,15,16)         56.88           calculate D2E/DX2 analytically  !
 ! D105  D(40,12,15,43)       -179.7744         calculate D2E/DX2 analytically  !
 ! D106  D(40,12,15,44)        -64.8746         calculate D2E/DX2 analytically  !
 ! D107  D(10,13,14,17)        -88.0624         calculate D2E/DX2 analytically  !
 ! D108  D(10,13,14,18)         89.668          calculate D2E/DX2 analytically  !
 ! D109  D(41,13,14,17)         33.9086         calculate D2E/DX2 analytically  !
 ! D110  D(41,13,14,18)       -148.361          calculate D2E/DX2 analytically  !
 ! D111  D(42,13,14,17)        152.3662         calculate D2E/DX2 analytically  !
 ! D112  D(42,13,14,18)        -29.9034         calculate D2E/DX2 analytically  !
 ! D113  D(13,14,17,16)        105.4807         calculate D2E/DX2 analytically  !
 ! D114  D(13,14,17,47)       -135.303          calculate D2E/DX2 analytically  !
 ! D115  D(13,14,17,48)        -17.7656         calculate D2E/DX2 analytically  !
 ! D116  D(18,14,17,16)        -72.2612         calculate D2E/DX2 analytically  !
 ! D117  D(18,14,17,47)         46.955          calculate D2E/DX2 analytically  !
 ! D118  D(18,14,17,48)        164.4924         calculate D2E/DX2 analytically  !
 ! D119  D(12,15,16,17)       -179.4412         calculate D2E/DX2 analytically  !
 ! D120  D(12,15,16,45)         58.9832         calculate D2E/DX2 analytically  !
 ! D121  D(12,15,16,46)        -58.4625         calculate D2E/DX2 analytically  !
 ! D122  D(43,15,16,17)         57.5327         calculate D2E/DX2 analytically  !
 ! D123  D(43,15,16,45)        -64.043          calculate D2E/DX2 analytically  !
 ! D124  D(43,15,16,46)        178.5113         calculate D2E/DX2 analytically  !
 ! D125  D(44,15,16,17)        -57.5635         calculate D2E/DX2 analytically  !
 ! D126  D(44,15,16,45)       -179.1392         calculate D2E/DX2 analytically  !
 ! D127  D(44,15,16,46)         63.4151         calculate D2E/DX2 analytically  !
 ! D128  D(15,16,17,14)        171.5871         calculate D2E/DX2 analytically  !
 ! D129  D(15,16,17,47)         53.699          calculate D2E/DX2 analytically  !
 ! D130  D(15,16,17,48)        -64.6111         calculate D2E/DX2 analytically  !
 ! D131  D(45,16,17,14)        -66.2098         calculate D2E/DX2 analytically  !
 ! D132  D(45,16,17,47)        175.9021         calculate D2E/DX2 analytically  !
 ! D133  D(45,16,17,48)         57.592          calculate D2E/DX2 analytically  !
 ! D134  D(46,16,17,14)         49.9828         calculate D2E/DX2 analytically  !
 ! D135  D(46,16,17,47)        -67.9053         calculate D2E/DX2 analytically  !
 ! D136  D(46,16,17,48)        173.7845         calculate D2E/DX2 analytically  !
 --------------------------------------------------------------------------------
 Trust Radius=3.00D-01 FncErr=1.00D-07 GrdErr=1.00D-06
 Number of steps in this run=    287 maximum allowed number of steps=    288.
 GradGradGradGradGradGradGradGradGradGradGradGradGradGradGradGradGradGrad

 Leave Link  103 at Sat Apr 25 21:21:41 2015, MaxMem=   524288000 cpu:         0.1
 (Enter /opt/g09/l202.exe)
                          Input orientation:                          
 ---------------------------------------------------------------------
 Center     Atomic      Atomic             Coordinates (Angstroms)
 Number     Number       Type             X           Y           Z
 ---------------------------------------------------------------------
      1          6           0       -0.088530    3.758020    0.774380
      2          6           0       -1.076410    3.250580   -0.245750
      3          6           0        1.240270    3.581520    0.785570
      4          6           0       -1.978010    2.128730    0.314020
      5          6           0       -3.033080    1.645940   -0.696610
      6          6           0       -3.947160    0.507160   -0.185310
      7          6           0        2.073240    2.830260   -0.221720
      8          6           0        2.594580    1.483230    0.325530
      9          6           0       -3.491000   -0.926330   -0.522160
     10          6           0       -2.132470   -1.344870    0.062820
     11          6           0        3.440170    0.713760   -0.704060
     12          6           0        3.914980   -0.688670   -0.255510
     13          6           0       -1.839850   -2.848530   -0.155650
     14          6           0       -0.499100   -3.241920    0.457810
     15          6           0        2.992060   -1.860820   -0.646160
     16          6           0        1.623080   -1.890770    0.051330
     17          6           0        0.769590   -3.102650   -0.386620
     18          8           0       -0.429710   -3.620190    1.609770
     19          1           0       -0.528470    4.307780    1.607740
     20          1           0       -0.562590    2.885280   -1.142260
     21          1           0       -1.715260    4.084200   -0.572350
     22          1           0        1.794560    3.998120    1.627720
     23          1           0       -1.343380    1.296100    0.639710
     24          1           0       -2.488640    2.491490    1.217160
     25          1           0       -2.536470    1.328010   -1.625540
     26          1           0       -3.655660    2.507460   -0.972450
     27          1           0       -4.071070    0.602160    0.902870
     28          1           0       -4.949100    0.637270   -0.612980
     29          1           0        2.933440    3.450200   -0.513050
     30          1           0        1.502180    2.644780   -1.138680
     31          1           0        1.737410    0.882820    0.650990
     32          1           0        3.197270    1.662950    1.226740
     33          1           0       -3.462170   -1.045370   -1.615150
     34          1           0       -4.257660   -1.624900   -0.159690
     35          1           0       -1.332840   -0.745440   -0.389970
     36          1           0       -2.111430   -1.140580    1.141000
     37          1           0        4.317420    1.327960   -0.947410
     38          1           0        2.874350    0.618710   -1.643010
     39          1           0        4.896810   -0.885800   -0.703660
     40          1           0        4.075000   -0.693650    0.832100
     41          1           0       -1.851470   -3.075540   -1.228850
     42          1           0       -2.617210   -3.442750    0.336210
     43          1           0        2.844550   -1.845340   -1.736200
     44          1           0        3.512270   -2.802620   -0.423000
     45          1           0        1.070480   -0.968910   -0.164490
     46          1           0        1.761530   -1.933160    1.138780
     47          1           0        1.350760   -4.021280   -0.239150
     48          1           0        0.524730   -3.022820   -1.452120
 ---------------------------------------------------------------------
                    Distance matrix (angstroms):
                    1          2          3          4          5
     1  C    0.000000
     2  C    1.508001   0.000000
     3  C    1.340517   2.557371   0.000000
     4  C    2.537056   1.544271   3.562343   0.000000
     5  C    3.910891   2.570351   4.919842   1.538711   0.000000
     6  C    5.135964   3.971299   6.107678   2.599302   1.547188
     7  C    2.554643   3.177663   1.507602   4.146298   5.263330
     8  C    3.546155   4.114129   2.539412   4.617941   5.722045
     9  C    5.933039   4.832517   6.664517   3.510232   2.618529
    10  C    5.542878   4.725319   6.013906   3.486095   3.214464
    11  C    4.889277   5.200481   3.909297   5.691687   6.540029
    12  C    6.071393   6.358597   5.145138   6.556633   7.343059
    13  C    6.897723   6.147365   7.191563   5.001279   4.681527
    14  C    7.019113   6.555977   7.049267   5.572408   5.625381
    15  C    6.563485   6.545165   5.893868   6.445157   6.971529
    16  C    5.946532   5.814549   5.534583   5.403076   5.894706
    17  C    7.010926   6.617484   6.802477   5.950423   6.091428
    18  O    7.433187   7.146234   7.438600   6.093134   6.311026
    19  H    1.090996   2.203029   2.081312   2.919441   4.320705
    20  H    2.158684   1.095986   2.729759   2.167149   2.799623
    21  H    2.136896   1.099872   3.291169   2.162996   2.774383
    22  H    2.081313   3.508728   1.090876   4.410523   5.851612
    23  H    2.766556   2.162245   3.452487   1.096404   2.182481
    24  H    2.749669   2.170419   3.908862   1.099090   2.161917
    25  H    4.202020   2.780624   5.015528   2.171387   1.100278
    26  H    4.164100   2.780800   5.311720   2.147778   1.098139
    27  H    5.082970   4.159501   6.091033   2.656701   2.173761
    28  H    5.940454   4.686361   6.995202   3.451255   2.166920
    29  H    3.299171   4.023704   2.137869   5.152928   6.236057
    30  H    2.725704   2.795254   2.156111   3.806359   4.664943
    31  H    3.408234   3.785236   2.747406   3.933216   5.015571
    32  H    3.923064   4.790943   2.775859   5.275749   6.520493
    33  H    6.337496   5.101205   7.020293   3.999917   2.875932
    34  H    6.872406   5.822204   7.630699   4.417119   3.533592
    35  H    4.815098   4.006836   5.169659   3.028646   2.950177
    36  H    5.312515   4.719812   5.801590   3.374920   3.462794
    37  H    5.318096   5.769072   4.189344   6.470307   7.361648
    38  H    4.947494   4.948493   4.164908   5.445689   6.070305
    39  H    6.971605   7.280019   5.961966   7.575369   8.324236
    40  H    6.095546   6.576909   5.129809   6.698744   7.637764
    41  H    7.336105   6.448798   7.611386   5.429630   4.896106
    42  H    7.644430   6.892997   8.026359   5.608071   5.209072
    43  H    6.804676   6.600286   6.195470   6.576756   6.914934
    44  H    7.579016   7.597936   6.883304   7.416508   7.918722
    45  H    4.956677   4.734959   4.651651   4.372372   4.894875
    46  H    5.995418   6.069760   5.550510   5.582413   6.258346
    47  H    7.975983   7.666234   7.672342   7.014936   7.179464
    48  H    7.163322   6.585934   7.009748   5.993449   5.918288
                    6          7          8          9         10
     6  C    0.000000
     7  C    6.453165   0.000000
     8  C    6.633855   1.544593   0.000000
     9  C    1.541572   6.720342   6.599912   0.000000
    10  C    2.604742   5.933015   5.514723   1.537199   0.000000
    11  C    7.408403   2.565292   1.538558   7.124893   5.990023
    12  C    7.952873   3.971903   2.607338   7.414589   6.091271
    13  C    3.962612   6.896760   6.217704   2.560367   1.547368
    14  C    5.134036   6.629484   5.649371   3.908166   2.534307
    15  C    7.346597   4.799022   3.504974   6.551238   5.199006
    16  C    6.069072   4.750297   3.521771   5.235728   3.795036
    17  C    5.942978   6.076686   4.986787   4.786164   3.422534
    18  O    5.712249   7.157333   6.069637   4.601468   3.235665
    19  H    5.417304   3.506976   4.401771   6.380358   6.075528
    20  H    4.245765   2.792494   3.753382   4.846492   4.670215
    21  H    4.233957   4.006000   5.113311   5.316125   5.481998
    22  H    6.959973   2.204992   2.942856   7.537197   6.813077
    23  H    2.843019   3.843046   3.954903   3.301728   2.816059
    24  H    2.834037   4.795403   5.258395   3.963768   4.022066
    25  H    2.176719   5.047464   5.491670   2.685260   3.187172
    26  H    2.169277   5.786890   6.465238   3.467101   4.269934
    27  H    1.099325   6.631868   6.748370   2.168749   2.873113
    28  H    1.097139   7.367194   7.648762   2.139895   3.509842
    29  H    7.490765   1.099610   2.164951   7.773514   6.999126
    30  H    5.930737   1.096051   2.164820   6.169665   5.529158
    31  H    5.758025   2.160307   1.095973   5.655579   4.503834
    32  H    7.373779   2.173498   1.098960   7.382139   6.229592
    33  H    2.165642   6.899487   6.844288   1.099831   2.161801
    34  H    2.154703   7.741614   7.539834   1.098705   2.155078
    35  H    2.906125   4.941186   4.572039   2.169758   1.097152
    36  H    2.800723   5.927566   5.449394   2.171455   1.097565
    37  H    8.340131   2.796404   2.147711   8.138433   7.054478
    38  H    6.976413   2.748235   2.168136   6.645384   5.642140
    39  H    8.967989   4.691899   3.460029   8.389871   7.085832
    40  H    8.175091   4.187544   2.680870   7.689767   6.288765
    41  H    4.279793   7.162132   6.554833   2.794025   2.177749
    42  H    4.200302   7.852532   7.171342   2.798692   2.170441
    43  H    7.353016   4.974918   3.923340   6.515955   5.315795
    44  H    8.164205   5.817272   4.446455   7.250937   5.850141
    45  H    5.230289   3.929694   2.928479   4.575679   3.232941
    46  H    6.348033   4.963698   3.609303   5.600134   4.082525
    47  H    6.969765   6.889549   5.671471   5.753386   4.403095
    48  H    5.836383   6.178213   5.267713   4.624520   3.488735
                   11         12         13         14         15
    11  C    0.000000
    12  C    1.547078   0.000000
    13  C    6.392908   6.147604   0.000000
    14  C    5.702210   5.148982   1.526008   0.000000
    15  C    2.613928   1.542182   4.956160   3.913360   0.000000
    16  C    3.264354   2.606147   3.598893   2.548427   1.536716
    17  C    4.668806   3.967111   2.631939   1.530370   2.559077
    18  O    6.254031   5.563219   2.387606   1.214461   4.460170
    19  H    5.831938   6.941215   7.486123   7.636830   7.451565
    20  H    4.574889   5.797247   5.956624   6.332996   5.950388
    21  H    6.160817   7.387847   6.946359   7.497487   7.583375
    22  H    4.351121   5.478023   7.953990   7.684253   6.397790
    23  H    5.002718   5.691316   4.249357   4.619472   5.515038
    24  H    6.480910   7.299899   5.551698   6.116116   7.242419
    25  H    6.078376   6.896752   4.482114   5.419915   6.456970
    26  H    7.323947   8.248869   5.714102   6.713038   7.961188
    27  H    7.682018   8.172214   4.243356   5.266308   7.638951
    28  H    8.390113   8.969828   4.693334   5.999767   8.324877
    29  H    2.789510   4.261454   7.911133   7.583493   5.313011
    30  H    2.770115   4.208739   6.504765   6.419279   4.771032
    31  H    2.182689   2.834278   5.231676   4.696038   3.283947
    32  H    2.165168   2.870939   6.901959   6.189681   3.995850
    33  H    7.181011   7.509873   2.830803   4.231049   6.577308
    34  H    8.063638   8.226649   2.709814   4.137975   7.269852
    35  H    5.000954   5.249849   2.175995   2.765188   4.473753
    36  H    6.137026   6.202587   2.161516   2.735322   5.455117
    37  H    1.098193   2.169673   7.482107   6.786554   3.466360
    38  H    1.100370   2.171937   6.038019   5.540584   2.675002
    39  H    2.163421   1.097128   7.038126   6.001346   2.140571
    40  H    2.177981   1.099330   6.372175   5.249397   2.172625
    41  H    6.529598   6.316366   1.097008   2.168273   5.027410
    42  H    7.419608   7.113691   1.095131   2.131082   5.910285
    43  H    2.822954   2.162440   5.044614   4.236049   1.100085
    44  H    3.528331   2.158475   5.358990   4.130363   1.098820
    45  H    2.956001   2.859720   3.464545   2.831504   2.172551
    46  H    3.635942   2.851341   3.934894   2.699448   2.169204
    47  H    5.196381   4.204971   3.400339   2.124885   2.743558
    48  H    4.798064   4.286482   2.702305   2.178088   2.843859
                   16         17         18         19         20
    16  C    0.000000
    17  C    1.545606   0.000000
    18  O    3.103800   2.385737   0.000000
    19  H    6.743412   7.783117   7.928585   0.000000
    20  H    5.386322   6.180696   7.064876   3.096316   0.000000
    21  H    6.872682   7.606562   8.109988   2.492238   1.758083
    22  H    6.098642   7.451783   7.936394   2.343663   3.803598
    23  H    4.393429   4.986682   5.093694   3.266707   2.512079
    24  H    6.121242   6.669526   6.461112   2.700690   3.071091
    25  H    5.520353   5.665307   6.276173   4.833756   2.560244
    26  H    6.946773   7.169335   7.390718   4.435972   3.120683
    27  H    6.274007   6.230601   5.620271   5.174792   4.658822
    28  H    7.072895   6.836787   6.594806   6.160050   4.957334
    29  H    5.528248   6.902034   8.112186   4.149460   3.596841
    30  H    4.690624   5.842537   7.108869   3.798938   2.078732
    31  H    2.839976   4.230518   5.088494   4.216626   3.537738
    32  H    4.060614   5.586368   6.419756   4.584913   4.608991
    33  H    5.417714   4.863073   5.121096   6.902886   4.907260
    34  H    5.890528   5.244853   4.665337   7.226850   5.912758
    35  H    3.200623   3.158585   3.616461   5.492985   3.786998
    36  H    3.961910   3.805735   3.032556   5.692823   4.880546
    37  H    4.314762   5.703673   7.318374   6.236246   5.126179
    38  H    3.276271   4.456125   6.282170   5.979615   4.147366
    39  H    3.506748   4.695624   6.418774   7.858085   6.649696
    40  H    2.838064   4.267821   5.427874   6.841627   6.181754
    41  H    3.887806   2.753188   3.221150   8.019351   6.099187
    42  H    4.524363   3.479736   2.537439   8.127136   6.815519
    43  H    2.165483   2.776266   5.006634   7.773036   5.860046
    44  H    2.150697   2.759282   4.509965   8.426700   7.033777
    45  H    1.096253   2.166269   3.525316   5.791450   4.298573
    46  H    1.097047   2.162983   2.805251   6.664335   5.815672
    47  H    2.167397   1.096990   2.597971   8.735889   7.223371
    48  H    2.179053   1.096184   3.262358   8.013094   6.015307
                   21         22         23         24         25
    21  H    0.000000
    22  H    4.143254   0.000000
    23  H    3.062823   4.257199   0.000000
    24  H    2.517377   4.558980   1.753290   0.000000
    25  H    3.062708   6.039123   2.560437   3.071956   0.000000
    26  H    2.532063   6.219956   3.068076   2.481246   1.752203
    27  H    4.455414   6.816419   2.826853   2.484438   3.045441
    28  H    4.726595   7.860852   3.873565   3.583491   2.706138
    29  H    4.692109   2.485993   4.925464   5.771629   5.971703
    30  H    3.569955   3.093539   3.616465   4.636823   4.275700
    31  H    4.864805   3.265327   3.108407   4.557177   4.862801
    32  H    5.764731   2.753434   4.593113   5.745968   6.412758
    33  H    5.518298   7.974096   3.880225   4.634557   2.547540
    34  H    6.263219   8.452370   4.202893   4.687197   3.718990
    35  H    4.848188   6.029350   2.286534   3.794266   2.697138
    36  H    5.512789   6.473013   2.603575   3.652399   3.732069
    37  H    6.643098   4.486187   5.879168   7.236133   6.887356
    38  H    5.849825   4.825353   4.843440   6.359995   5.457141
    39  H    8.272703   6.237945   6.745762   8.345089   7.810536
    40  H    7.637240   5.276943   5.775375   7.305803   7.337482
    41  H    7.191065   8.455187   4.781308   6.113982   4.474130
    42  H    7.635049   8.746328   4.916447   6.000651   5.158986
    43  H    7.570063   6.823816   5.749117   7.481534   6.248021
    44  H    8.647408   7.307944   6.442530   8.168760   7.422632
    45  H    5.784515   5.329887   3.406425   5.152733   4.518915
    46  H    7.157140   5.951490   4.507511   6.135765   6.062136
    47  H    8.672388   8.245783   6.025389   7.699221   6.756296
    48  H    7.503418   7.771196   5.149627   6.827376   5.322663
                   26         27         28         29         30
    26  H    0.000000
    27  H    2.705468   0.000000
    28  H    2.302133   1.752133   0.000000
    29  H    6.672035   7.692810   8.370006   0.000000
    30  H    5.162345   6.277049   6.776833   1.757447   0.000000
    31  H    5.861759   5.820709   6.809356   3.062175   2.522450
    32  H    7.246536   7.352478   8.414270   2.508134   3.071243
    33  H    3.615675   3.070104   2.458980   7.894847   6.203950
    34  H    4.254337   2.474600   2.408521   8.808713   7.236321
    35  H    4.039323   3.314418   3.878009   5.984955   4.482354
    36  H    4.489935   2.633256   3.780154   7.018679   5.708246
    37  H    8.059892   8.620736   9.298241   2.570598   3.113868
    38  H    6.830670   7.397340   7.890987   3.049203   2.498431
    39  H    9.204955   9.231351   9.963429   4.763617   4.917088
    40  H    8.559592   8.248793   9.235474   4.503785   4.652794
    41  H    5.872881   4.795449   4.874378   8.123609   6.631528
    42  H    6.180289   4.335448   4.794292   8.890653   7.496846
    43  H    7.860211   7.796201   8.256268   5.435691   4.724422
    44  H    8.937453   8.417690   9.135848   6.280200   5.850370
    45  H    5.922360   5.481155   6.246303   4.808393   3.767515
    46  H    7.315897   6.364175   7.396508   5.751737   5.119729
    47  H    8.259928   7.216415   7.844111   7.642180   6.728182
    48  H    6.949082   6.309345   6.638014   6.970203   5.759804
                   31         32         33         34         35
    31  H    0.000000
    32  H    1.752507   0.000000
    33  H    5.990738   7.730425   0.000000
    34  H    6.548796   8.264873   1.756993   0.000000
    35  H    3.627846   5.379218   2.474888   3.062850   0.000000
    36  H    4.375823   6.004118   3.070819   2.555908   1.762444
    37  H    3.067488   2.468579   8.160919   9.103399   6.044433
    38  H    2.573873   3.070860   6.551444   7.622309   4.596897
    39  H    3.865864   3.620912   8.410043   9.200353   6.239122
    40  H    2.825312   2.545528   7.932318   8.442991   5.544445
    41  H    5.664139   7.346631   2.620147   3.006195   2.530230
    42  H    6.145922   7.789056   3.204558   2.498314   3.074480
    43  H    3.790421   4.605597   6.358406   7.278418   4.524677
    44  H    4.229190   4.770973   7.290539   7.863089   5.263855
    45  H    2.130424   3.658612   4.759745   5.368372   2.424196
    46  H    2.858018   3.873125   5.971544   6.165363   3.650052
    47  H    4.999204   6.153771   5.823548   6.099453   4.237403
    48  H    4.598662   6.022890   4.453342   5.147408   3.124930
                   36         37         38         39         40
    36  H    0.000000
    37  H    7.196197   0.000000
    38  H    5.975267   1.751955   0.000000
    39  H    7.251421   2.301269   2.690032   0.000000
    40  H    6.210240   2.704132   3.047953   1.752385   0.000000
    41  H    3.070479   7.584539   6.012685   7.114075   6.711480
    42  H    2.490680   8.514485   7.111259   8.004987   7.251836
    43  H    5.773795   3.586275   2.465992   2.489704   3.071899
    44  H    6.069141   4.240868   3.687935   2.381159   2.517875
    45  H    3.443592   4.053541   2.821437   3.865024   3.177436
    46  H    3.953227   4.638929   3.935577   3.784380   2.642457
    47  H    4.710627   6.157684   5.081501   4.756204   4.431950
    48  H    4.149270   5.793834   4.337960   4.923630   4.821526
                   41         42         43         44         45
    41  H    0.000000
    42  H    1.780622   0.000000
    43  H    4.880922   6.056189   0.000000
    44  H    5.430800   6.209403   1.756909   0.000000
    45  H    3.756134   4.468741   2.526999   3.064581   0.000000
    46  H    4.468162   4.700675   3.073460   2.502041   1.762340
    47  H    3.482558   4.050990   3.034350   2.488184   3.066120
    48  H    2.387248   3.639540   2.617007   3.167487   2.484830
                   46         47         48
    46  H    0.000000
    47  H    2.535285   0.000000
    48  H    3.070797   1.774977   0.000000
 Symmetry turned off by external request.
 Stoichiometry    C17H30O
 Framework group  C1[X(C17H30O)]
 Deg. of freedom   138
 Full point group                 C1      NOp   1
 Rotational constants (GHZ):      0.3205809      0.3070655      0.1694513
 Leave Link  202 at Sat Apr 25 21:21:41 2015, MaxMem=   524288000 cpu:         0.0
 (Enter /opt/g09/l301.exe)
 Standard basis: 6-311+G(d,p) (5D, 7F)
 Ernie: Thresh=  0.10000D-02 Tol=  0.10000D-05 Strict=F.
 AO basis set in the form of general basis input (Overlap normalization):
      1 0
 S   6 1.00       0.000000000000
      0.4563240000D+04  0.1966650249D-02
      0.6820240000D+03  0.1523060193D-01
      0.1549730000D+03  0.7612690966D-01
      0.4445530000D+02  0.2608010331D+00
      0.1302900000D+02  0.6164620782D+00
      0.1827730000D+01  0.2210060280D+00
 SP   3 1.00       0.000000000000
      0.2096420000D+02  0.1146600807D+00  0.4024869267D-01
      0.4803310000D+01  0.9199996477D+00  0.2375939567D+00
      0.1459330000D+01 -0.3030682134D-02  0.8158538515D+00
 SP   1 1.00       0.000000000000
      0.4834560000D+00  0.1000000000D+01  0.1000000000D+01
 SP   1 1.00       0.000000000000
      0.1455850000D+00  0.1000000000D+01  0.1000000000D+01
 SP   1 1.00       0.000000000000
      0.4380000000D-01  0.1000000000D+01  0.1000000000D+01
 D   1 1.00       0.000000000000
      0.6260000000D+00  0.1000000000D+01
 ****
      2 0
 S   6 1.00       0.000000000000
      0.4563240000D+04  0.1966650249D-02
      0.6820240000D+03  0.1523060193D-01
      0.1549730000D+03  0.7612690966D-01
      0.4445530000D+02  0.2608010331D+00
      0.1302900000D+02  0.6164620782D+00
      0.1827730000D+01  0.2210060280D+00
 SP   3 1.00       0.000000000000
      0.2096420000D+02  0.1146600807D+00  0.4024869267D-01
      0.4803310000D+01  0.9199996477D+00  0.2375939567D+00
      0.1459330000D+01 -0.3030682134D-02  0.8158538515D+00
 SP   1 1.00       0.000000000000
      0.4834560000D+00  0.1000000000D+01  0.1000000000D+01
 SP   1 1.00       0.000000000000
      0.1455850000D+00  0.1000000000D+01  0.1000000000D+01
 SP   1 1.00       0.000000000000
      0.4380000000D-01  0.1000000000D+01  0.1000000000D+01
 D   1 1.00       0.000000000000
      0.6260000000D+00  0.1000000000D+01
 ****
      3 0
 S   6 1.00       0.000000000000
      0.4563240000D+04  0.1966650249D-02
      0.6820240000D+03  0.1523060193D-01
      0.1549730000D+03  0.7612690966D-01
      0.4445530000D+02  0.2608010331D+00
      0.1302900000D+02  0.6164620782D+00
      0.1827730000D+01  0.2210060280D+00
 SP   3 1.00       0.000000000000
      0.2096420000D+02  0.1146600807D+00  0.4024869267D-01
      0.4803310000D+01  0.9199996477D+00  0.2375939567D+00
      0.1459330000D+01 -0.3030682134D-02  0.8158538515D+00
 SP   1 1.00       0.000000000000
      0.4834560000D+00  0.1000000000D+01  0.1000000000D+01
 SP   1 1.00       0.000000000000
      0.1455850000D+00  0.1000000000D+01  0.1000000000D+01
 SP   1 1.00       0.000000000000
      0.4380000000D-01  0.1000000000D+01  0.1000000000D+01
 D   1 1.00       0.000000000000
      0.6260000000D+00  0.1000000000D+01
 ****
      4 0
 S   6 1.00       0.000000000000
      0.4563240000D+04  0.1966650249D-02
      0.6820240000D+03  0.1523060193D-01
      0.1549730000D+03  0.7612690966D-01
      0.4445530000D+02  0.2608010331D+00
      0.1302900000D+02  0.6164620782D+00
      0.1827730000D+01  0.2210060280D+00
 SP   3 1.00       0.000000000000
      0.2096420000D+02  0.1146600807D+00  0.4024869267D-01
      0.4803310000D+01  0.9199996477D+00  0.2375939567D+00
      0.1459330000D+01 -0.3030682134D-02  0.8158538515D+00
 SP   1 1.00       0.000000000000
      0.4834560000D+00  0.1000000000D+01  0.1000000000D+01
 SP   1 1.00       0.000000000000
      0.1455850000D+00  0.1000000000D+01  0.1000000000D+01
 SP   1 1.00       0.000000000000
      0.4380000000D-01  0.1000000000D+01  0.1000000000D+01
 D   1 1.00       0.000000000000
      0.6260000000D+00  0.1000000000D+01
 ****
      5 0
 S   6 1.00       0.000000000000
      0.4563240000D+04  0.1966650249D-02
      0.6820240000D+03  0.1523060193D-01
      0.1549730000D+03  0.7612690966D-01
      0.4445530000D+02  0.2608010331D+00
      0.1302900000D+02  0.6164620782D+00
      0.1827730000D+01  0.2210060280D+00
 SP   3 1.00       0.000000000000
      0.2096420000D+02  0.1146600807D+00  0.4024869267D-01
      0.4803310000D+01  0.9199996477D+00  0.2375939567D+00
      0.1459330000D+01 -0.3030682134D-02  0.8158538515D+00
 SP   1 1.00       0.000000000000
      0.4834560000D+00  0.1000000000D+01  0.1000000000D+01
 SP   1 1.00       0.000000000000
      0.1455850000D+00  0.1000000000D+01  0.1000000000D+01
 SP   1 1.00       0.000000000000
      0.4380000000D-01  0.1000000000D+01  0.1000000000D+01
 D   1 1.00       0.000000000000
      0.6260000000D+00  0.1000000000D+01
 ****
      6 0
 S   6 1.00       0.000000000000
      0.4563240000D+04  0.1966650249D-02
      0.6820240000D+03  0.1523060193D-01
      0.1549730000D+03  0.7612690966D-01
      0.4445530000D+02  0.2608010331D+00
      0.1302900000D+02  0.6164620782D+00
      0.1827730000D+01  0.2210060280D+00
 SP   3 1.00       0.000000000000
      0.2096420000D+02  0.1146600807D+00  0.4024869267D-01
      0.4803310000D+01  0.9199996477D+00  0.2375939567D+00
      0.1459330000D+01 -0.3030682134D-02  0.8158538515D+00
 SP   1 1.00       0.000000000000
      0.4834560000D+00  0.1000000000D+01  0.1000000000D+01
 SP   1 1.00       0.000000000000
      0.1455850000D+00  0.1000000000D+01  0.1000000000D+01
 SP   1 1.00       0.000000000000
      0.4380000000D-01  0.1000000000D+01  0.1000000000D+01
 D   1 1.00       0.000000000000
      0.6260000000D+00  0.1000000000D+01
 ****
      7 0
 S   6 1.00       0.000000000000
      0.4563240000D+04  0.1966650249D-02
      0.6820240000D+03  0.1523060193D-01
      0.1549730000D+03  0.7612690966D-01
      0.4445530000D+02  0.2608010331D+00
      0.1302900000D+02  0.6164620782D+00
      0.1827730000D+01  0.2210060280D+00
 SP   3 1.00       0.000000000000
      0.2096420000D+02  0.1146600807D+00  0.4024869267D-01
      0.4803310000D+01  0.9199996477D+00  0.2375939567D+00
      0.1459330000D+01 -0.3030682134D-02  0.8158538515D+00
 SP   1 1.00       0.000000000000
      0.4834560000D+00  0.1000000000D+01  0.1000000000D+01
 SP   1 1.00       0.000000000000
      0.1455850000D+00  0.1000000000D+01  0.1000000000D+01
 SP   1 1.00       0.000000000000
      0.4380000000D-01  0.1000000000D+01  0.1000000000D+01
 D   1 1.00       0.000000000000
      0.6260000000D+00  0.1000000000D+01
 ****
      8 0
 S   6 1.00       0.000000000000
      0.4563240000D+04  0.1966650249D-02
      0.6820240000D+03  0.1523060193D-01
      0.1549730000D+03  0.7612690966D-01
      0.4445530000D+02  0.2608010331D+00
      0.1302900000D+02  0.6164620782D+00
      0.1827730000D+01  0.2210060280D+00
 SP   3 1.00       0.000000000000
      0.2096420000D+02  0.1146600807D+00  0.4024869267D-01
      0.4803310000D+01  0.9199996477D+00  0.2375939567D+00
      0.1459330000D+01 -0.3030682134D-02  0.8158538515D+00
 SP   1 1.00       0.000000000000
      0.4834560000D+00  0.1000000000D+01  0.1000000000D+01
 SP   1 1.00       0.000000000000
      0.1455850000D+00  0.1000000000D+01  0.1000000000D+01
 SP   1 1.00       0.000000000000
      0.4380000000D-01  0.1000000000D+01  0.1000000000D+01
 D   1 1.00       0.000000000000
      0.6260000000D+00  0.1000000000D+01
 ****
      9 0
 S   6 1.00       0.000000000000
      0.4563240000D+04  0.1966650249D-02
      0.6820240000D+03  0.1523060193D-01
      0.1549730000D+03  0.7612690966D-01
      0.4445530000D+02  0.2608010331D+00
      0.1302900000D+02  0.6164620782D+00
      0.1827730000D+01  0.2210060280D+00
 SP   3 1.00       0.000000000000
      0.2096420000D+02  0.1146600807D+00  0.4024869267D-01
      0.4803310000D+01  0.9199996477D+00  0.2375939567D+00
      0.1459330000D+01 -0.3030682134D-02  0.8158538515D+00
 SP   1 1.00       0.000000000000
      0.4834560000D+00  0.1000000000D+01  0.1000000000D+01
 SP   1 1.00       0.000000000000
      0.1455850000D+00  0.1000000000D+01  0.1000000000D+01
 SP   1 1.00       0.000000000000
      0.4380000000D-01  0.1000000000D+01  0.1000000000D+01
 D   1 1.00       0.000000000000
      0.6260000000D+00  0.1000000000D+01
 ****
     10 0
 S   6 1.00       0.000000000000
      0.4563240000D+04  0.1966650249D-02
      0.6820240000D+03  0.1523060193D-01
      0.1549730000D+03  0.7612690966D-01
      0.4445530000D+02  0.2608010331D+00
      0.1302900000D+02  0.6164620782D+00
      0.1827730000D+01  0.2210060280D+00
 SP   3 1.00       0.000000000000
      0.2096420000D+02  0.1146600807D+00  0.4024869267D-01
      0.4803310000D+01  0.9199996477D+00  0.2375939567D+00
      0.1459330000D+01 -0.3030682134D-02  0.8158538515D+00
 SP   1 1.00       0.000000000000
      0.4834560000D+00  0.1000000000D+01  0.1000000000D+01
 SP   1 1.00       0.000000000000
      0.1455850000D+00  0.1000000000D+01  0.1000000000D+01
 SP   1 1.00       0.000000000000
      0.4380000000D-01  0.1000000000D+01  0.1000000000D+01
 D   1 1.00       0.000000000000
      0.6260000000D+00  0.1000000000D+01
 ****
     11 0
 S   6 1.00       0.000000000000
      0.4563240000D+04  0.1966650249D-02
      0.6820240000D+03  0.1523060193D-01
      0.1549730000D+03  0.7612690966D-01
      0.4445530000D+02  0.2608010331D+00
      0.1302900000D+02  0.6164620782D+00
      0.1827730000D+01  0.2210060280D+00
 SP   3 1.00       0.000000000000
      0.2096420000D+02  0.1146600807D+00  0.4024869267D-01
      0.4803310000D+01  0.9199996477D+00  0.2375939567D+00
      0.1459330000D+01 -0.3030682134D-02  0.8158538515D+00
 SP   1 1.00       0.000000000000
      0.4834560000D+00  0.1000000000D+01  0.1000000000D+01
 SP   1 1.00       0.000000000000
      0.1455850000D+00  0.1000000000D+01  0.1000000000D+01
 SP   1 1.00       0.000000000000
      0.4380000000D-01  0.1000000000D+01  0.1000000000D+01
 D   1 1.00       0.000000000000
      0.6260000000D+00  0.1000000000D+01
 ****
     12 0
 S   6 1.00       0.000000000000
      0.4563240000D+04  0.1966650249D-02
      0.6820240000D+03  0.1523060193D-01
      0.1549730000D+03  0.7612690966D-01
      0.4445530000D+02  0.2608010331D+00
      0.1302900000D+02  0.6164620782D+00
      0.1827730000D+01  0.2210060280D+00
 SP   3 1.00       0.000000000000
      0.2096420000D+02  0.1146600807D+00  0.4024869267D-01
      0.4803310000D+01  0.9199996477D+00  0.2375939567D+00
      0.1459330000D+01 -0.3030682134D-02  0.8158538515D+00
 SP   1 1.00       0.000000000000
      0.4834560000D+00  0.1000000000D+01  0.1000000000D+01
 SP   1 1.00       0.000000000000
      0.1455850000D+00  0.1000000000D+01  0.1000000000D+01
 SP   1 1.00       0.000000000000
      0.4380000000D-01  0.1000000000D+01  0.1000000000D+01
 D   1 1.00       0.000000000000
      0.6260000000D+00  0.1000000000D+01
 ****
     13 0
 S   6 1.00       0.000000000000
      0.4563240000D+04  0.1966650249D-02
      0.6820240000D+03  0.1523060193D-01
      0.1549730000D+03  0.7612690966D-01
      0.4445530000D+02  0.2608010331D+00
      0.1302900000D+02  0.6164620782D+00
      0.1827730000D+01  0.2210060280D+00
 SP   3 1.00       0.000000000000
      0.2096420000D+02  0.1146600807D+00  0.4024869267D-01
      0.4803310000D+01  0.9199996477D+00  0.2375939567D+00
      0.1459330000D+01 -0.3030682134D-02  0.8158538515D+00
 SP   1 1.00       0.000000000000
      0.4834560000D+00  0.1000000000D+01  0.1000000000D+01
 SP   1 1.00       0.000000000000
      0.1455850000D+00  0.1000000000D+01  0.1000000000D+01
 SP   1 1.00       0.000000000000
      0.4380000000D-01  0.1000000000D+01  0.1000000000D+01
 D   1 1.00       0.000000000000
      0.6260000000D+00  0.1000000000D+01
 ****
     14 0
 S   6 1.00       0.000000000000
      0.4563240000D+04  0.1966650249D-02
      0.6820240000D+03  0.1523060193D-01
      0.1549730000D+03  0.7612690966D-01
      0.4445530000D+02  0.2608010331D+00
      0.1302900000D+02  0.6164620782D+00
      0.1827730000D+01  0.2210060280D+00
 SP   3 1.00       0.000000000000
      0.2096420000D+02  0.1146600807D+00  0.4024869267D-01
      0.4803310000D+01  0.9199996477D+00  0.2375939567D+00
      0.1459330000D+01 -0.3030682134D-02  0.8158538515D+00
 SP   1 1.00       0.000000000000
      0.4834560000D+00  0.1000000000D+01  0.1000000000D+01
 SP   1 1.00       0.000000000000
      0.1455850000D+00  0.1000000000D+01  0.1000000000D+01
 SP   1 1.00       0.000000000000
      0.4380000000D-01  0.1000000000D+01  0.1000000000D+01
 D   1 1.00       0.000000000000
      0.6260000000D+00  0.1000000000D+01
 ****
     15 0
 S   6 1.00       0.000000000000
      0.4563240000D+04  0.1966650249D-02
      0.6820240000D+03  0.1523060193D-01
      0.1549730000D+03  0.7612690966D-01
      0.4445530000D+02  0.2608010331D+00
      0.1302900000D+02  0.6164620782D+00
      0.1827730000D+01  0.2210060280D+00
 SP   3 1.00       0.000000000000
      0.2096420000D+02  0.1146600807D+00  0.4024869267D-01
      0.4803310000D+01  0.9199996477D+00  0.2375939567D+00
      0.1459330000D+01 -0.3030682134D-02  0.8158538515D+00
 SP   1 1.00       0.000000000000
      0.4834560000D+00  0.1000000000D+01  0.1000000000D+01
 SP   1 1.00       0.000000000000
      0.1455850000D+00  0.1000000000D+01  0.1000000000D+01
 SP   1 1.00       0.000000000000
      0.4380000000D-01  0.1000000000D+01  0.1000000000D+01
 D   1 1.00       0.000000000000
      0.6260000000D+00  0.1000000000D+01
 ****
     16 0
 S   6 1.00       0.000000000000
      0.4563240000D+04  0.1966650249D-02
      0.6820240000D+03  0.1523060193D-01
      0.1549730000D+03  0.7612690966D-01
      0.4445530000D+02  0.2608010331D+00
      0.1302900000D+02  0.6164620782D+00
      0.1827730000D+01  0.2210060280D+00
 SP   3 1.00       0.000000000000
      0.2096420000D+02  0.1146600807D+00  0.4024869267D-01
      0.4803310000D+01  0.9199996477D+00  0.2375939567D+00
      0.1459330000D+01 -0.3030682134D-02  0.8158538515D+00
 SP   1 1.00       0.000000000000
      0.4834560000D+00  0.1000000000D+01  0.1000000000D+01
 SP   1 1.00       0.000000000000
      0.1455850000D+00  0.1000000000D+01  0.1000000000D+01
 SP   1 1.00       0.000000000000
      0.4380000000D-01  0.1000000000D+01  0.1000000000D+01
 D   1 1.00       0.000000000000
      0.6260000000D+00  0.1000000000D+01
 ****
     17 0
 S   6 1.00       0.000000000000
      0.4563240000D+04  0.1966650249D-02
      0.6820240000D+03  0.1523060193D-01
      0.1549730000D+03  0.7612690966D-01
      0.4445530000D+02  0.2608010331D+00
      0.1302900000D+02  0.6164620782D+00
      0.1827730000D+01  0.2210060280D+00
 SP   3 1.00       0.000000000000
      0.2096420000D+02  0.1146600807D+00  0.4024869267D-01
      0.4803310000D+01  0.9199996477D+00  0.2375939567D+00
      0.1459330000D+01 -0.3030682134D-02  0.8158538515D+00
 SP   1 1.00       0.000000000000
      0.4834560000D+00  0.1000000000D+01  0.1000000000D+01
 SP   1 1.00       0.000000000000
      0.1455850000D+00  0.1000000000D+01  0.1000000000D+01
 SP   1 1.00       0.000000000000
      0.4380000000D-01  0.1000000000D+01  0.1000000000D+01
 D   1 1.00       0.000000000000
      0.6260000000D+00  0.1000000000D+01
 ****
     18 0
 S   6 1.00       0.000000000000
      0.8588500000D+04  0.1895150083D-02
      0.1297230000D+04  0.1438590063D-01
      0.2992960000D+03  0.7073200310D-01
      0.8737710000D+02  0.2400010105D+00
      0.2567890000D+02  0.5947970261D+00
      0.3740040000D+01  0.2808020123D+00
 SP   3 1.00       0.000000000000
      0.4211750000D+02  0.1138890124D+00  0.3651139738D-01
      0.9628370000D+01  0.9208111006D+00  0.2371529830D+00
      0.2853320000D+01 -0.3274470358D-02  0.8197019412D+00
 SP   1 1.00       0.000000000000
      0.9056610000D+00  0.1000000000D+01  0.1000000000D+01
 SP   1 1.00       0.000000000000
      0.2556110000D+00  0.1000000000D+01  0.1000000000D+01
 SP   1 1.00       0.000000000000
      0.8450000000D-01  0.1000000000D+01  0.1000000000D+01
 D   1 1.00       0.000000000000
      0.1292000000D+01  0.1000000000D+01
 ****
     19 0
 S   3 1.00       0.000000000000
      0.3386500000D+02  0.2549381454D-01
      0.5094790000D+01  0.1903731086D+00
      0.1158790000D+01  0.8521614860D+00
 S   1 1.00       0.000000000000
      0.3258400000D+00  0.1000000000D+01
 S   1 1.00       0.000000000000
      0.1027410000D+00  0.1000000000D+01
 P   1 1.00       0.000000000000
      0.7500000000D+00  0.1000000000D+01
 ****
     20 0
 S   3 1.00       0.000000000000
      0.3386500000D+02  0.2549381454D-01
      0.5094790000D+01  0.1903731086D+00
      0.1158790000D+01  0.8521614860D+00
 S   1 1.00       0.000000000000
      0.3258400000D+00  0.1000000000D+01
 S   1 1.00       0.000000000000
      0.1027410000D+00  0.1000000000D+01
 P   1 1.00       0.000000000000
      0.7500000000D+00  0.1000000000D+01
 ****
     21 0
 S   3 1.00       0.000000000000
      0.3386500000D+02  0.2549381454D-01
      0.5094790000D+01  0.1903731086D+00
      0.1158790000D+01  0.8521614860D+00
 S   1 1.00       0.000000000000
      0.3258400000D+00  0.1000000000D+01
 S   1 1.00       0.000000000000
      0.1027410000D+00  0.1000000000D+01
 P   1 1.00       0.000000000000
      0.7500000000D+00  0.1000000000D+01
 ****
     22 0
 S   3 1.00       0.000000000000
      0.3386500000D+02  0.2549381454D-01
      0.5094790000D+01  0.1903731086D+00
      0.1158790000D+01  0.8521614860D+00
 S   1 1.00       0.000000000000
      0.3258400000D+00  0.1000000000D+01
 S   1 1.00       0.000000000000
      0.1027410000D+00  0.1000000000D+01
 P   1 1.00       0.000000000000
      0.7500000000D+00  0.1000000000D+01
 ****
     23 0
 S   3 1.00       0.000000000000
      0.3386500000D+02  0.2549381454D-01
      0.5094790000D+01  0.1903731086D+00
      0.1158790000D+01  0.8521614860D+00
 S   1 1.00       0.000000000000
      0.3258400000D+00  0.1000000000D+01
 S   1 1.00       0.000000000000
      0.1027410000D+00  0.1000000000D+01
 P   1 1.00       0.000000000000
      0.7500000000D+00  0.1000000000D+01
 ****
     24 0
 S   3 1.00       0.000000000000
      0.3386500000D+02  0.2549381454D-01
      0.5094790000D+01  0.1903731086D+00
      0.1158790000D+01  0.8521614860D+00
 S   1 1.00       0.000000000000
      0.3258400000D+00  0.1000000000D+01
 S   1 1.00       0.000000000000
      0.1027410000D+00  0.1000000000D+01
 P   1 1.00       0.000000000000
      0.7500000000D+00  0.1000000000D+01
 ****
     25 0
 S   3 1.00       0.000000000000
      0.3386500000D+02  0.2549381454D-01
      0.5094790000D+01  0.1903731086D+00
      0.1158790000D+01  0.8521614860D+00
 S   1 1.00       0.000000000000
      0.3258400000D+00  0.1000000000D+01
 S   1 1.00       0.000000000000
      0.1027410000D+00  0.1000000000D+01
 P   1 1.00       0.000000000000
      0.7500000000D+00  0.1000000000D+01
 ****
     26 0
 S   3 1.00       0.000000000000
      0.3386500000D+02  0.2549381454D-01
      0.5094790000D+01  0.1903731086D+00
      0.1158790000D+01  0.8521614860D+00
 S   1 1.00       0.000000000000
      0.3258400000D+00  0.1000000000D+01
 S   1 1.00       0.000000000000
      0.1027410000D+00  0.1000000000D+01
 P   1 1.00       0.000000000000
      0.7500000000D+00  0.1000000000D+01
 ****
     27 0
 S   3 1.00       0.000000000000
      0.3386500000D+02  0.2549381454D-01
      0.5094790000D+01  0.1903731086D+00
      0.1158790000D+01  0.8521614860D+00
 S   1 1.00       0.000000000000
      0.3258400000D+00  0.1000000000D+01
 S   1 1.00       0.000000000000
      0.1027410000D+00  0.1000000000D+01
 P   1 1.00       0.000000000000
      0.7500000000D+00  0.1000000000D+01
 ****
     28 0
 S   3 1.00       0.000000000000
      0.3386500000D+02  0.2549381454D-01
      0.5094790000D+01  0.1903731086D+00
      0.1158790000D+01  0.8521614860D+00
 S   1 1.00       0.000000000000
      0.3258400000D+00  0.1000000000D+01
 S   1 1.00       0.000000000000
      0.1027410000D+00  0.1000000000D+01
 P   1 1.00       0.000000000000
      0.7500000000D+00  0.1000000000D+01
 ****
     29 0
 S   3 1.00       0.000000000000
      0.3386500000D+02  0.2549381454D-01
      0.5094790000D+01  0.1903731086D+00
      0.1158790000D+01  0.8521614860D+00
 S   1 1.00       0.000000000000
      0.3258400000D+00  0.1000000000D+01
 S   1 1.00       0.000000000000
      0.1027410000D+00  0.1000000000D+01
 P   1 1.00       0.000000000000
      0.7500000000D+00  0.1000000000D+01
 ****
     30 0
 S   3 1.00       0.000000000000
      0.3386500000D+02  0.2549381454D-01
      0.5094790000D+01  0.1903731086D+00
      0.1158790000D+01  0.8521614860D+00
 S   1 1.00       0.000000000000
      0.3258400000D+00  0.1000000000D+01
 S   1 1.00       0.000000000000
      0.1027410000D+00  0.1000000000D+01
 P   1 1.00       0.000000000000
      0.7500000000D+00  0.1000000000D+01
 ****
     31 0
 S   3 1.00       0.000000000000
      0.3386500000D+02  0.2549381454D-01
      0.5094790000D+01  0.1903731086D+00
      0.1158790000D+01  0.8521614860D+00
 S   1 1.00       0.000000000000
      0.3258400000D+00  0.1000000000D+01
 S   1 1.00       0.000000000000
      0.1027410000D+00  0.1000000000D+01
 P   1 1.00       0.000000000000
      0.7500000000D+00  0.1000000000D+01
 ****
     32 0
 S   3 1.00       0.000000000000
      0.3386500000D+02  0.2549381454D-01
      0.5094790000D+01  0.1903731086D+00
      0.1158790000D+01  0.8521614860D+00
 S   1 1.00       0.000000000000
      0.3258400000D+00  0.1000000000D+01
 S   1 1.00       0.000000000000
      0.1027410000D+00  0.1000000000D+01
 P   1 1.00       0.000000000000
      0.7500000000D+00  0.1000000000D+01
 ****
     33 0
 S   3 1.00       0.000000000000
      0.3386500000D+02  0.2549381454D-01
      0.5094790000D+01  0.1903731086D+00
      0.1158790000D+01  0.8521614860D+00
 S   1 1.00       0.000000000000
      0.3258400000D+00  0.1000000000D+01
 S   1 1.00       0.000000000000
      0.1027410000D+00  0.1000000000D+01
 P   1 1.00       0.000000000000
      0.7500000000D+00  0.1000000000D+01
 ****
     34 0
 S   3 1.00       0.000000000000
      0.3386500000D+02  0.2549381454D-01
      0.5094790000D+01  0.1903731086D+00
      0.1158790000D+01  0.8521614860D+00
 S   1 1.00       0.000000000000
      0.3258400000D+00  0.1000000000D+01
 S   1 1.00       0.000000000000
      0.1027410000D+00  0.1000000000D+01
 P   1 1.00       0.000000000000
      0.7500000000D+00  0.1000000000D+01
 ****
     35 0
 S   3 1.00       0.000000000000
      0.3386500000D+02  0.2549381454D-01
      0.5094790000D+01  0.1903731086D+00
      0.1158790000D+01  0.8521614860D+00
 S   1 1.00       0.000000000000
      0.3258400000D+00  0.1000000000D+01
 S   1 1.00       0.000000000000
      0.1027410000D+00  0.1000000000D+01
 P   1 1.00       0.000000000000
      0.7500000000D+00  0.1000000000D+01
 ****
     36 0
 S   3 1.00       0.000000000000
      0.3386500000D+02  0.2549381454D-01
      0.5094790000D+01  0.1903731086D+00
      0.1158790000D+01  0.8521614860D+00
 S   1 1.00       0.000000000000
      0.3258400000D+00  0.1000000000D+01
 S   1 1.00       0.000000000000
      0.1027410000D+00  0.1000000000D+01
 P   1 1.00       0.000000000000
[...]
 093,0.00005867,-0.00002228,-0.00002387,-0.00000259,0.00002055,-0.00002
 481,0.00004434,0.00001211,-0.00018818,-0.00003519,0.00000310,-0.000528
 45,-0.00156918,-0.00054773,0.00008589,0.00042355,-0.00026017,0.0000717
 6,-0.00109930,0.00056897,0.00035600,0.00027676,-0.00000408,0.00012571,
 0.00017380,-0.00037696,-0.00066322,-0.00030592,0.00008786,0.00232513,-
 0.00051908,-0.00103680,-0.00009237,0.00091337,-0.00016129,0.10829507,-
 0.22273108,0.04613801,0.00938237,-0.02298075,0.00529328,-0.00082937,0.
 00014075,0.00087087,-0.00000553,0.00000279,-0.00000882,0.00000875,0.00
 000568,-0.00000403,-0.00000612,-0.00001651,0.00000442,-0.00000987,0.00
 000503,-0.00000279,0.00003362,0.00002647,0.00002894,0.00001223,-0.0000
 2218,-0.00000404,-0.00001026,0.00001649,-0.00003372,0.00002004,-0.0000
 2492,-0.00000318,-0.00000776,-0.00000236,-0.00001141,0.00001472,-0.000
 02677,0.00000792,0.00001523,-0.00005350,0.00004906,0.00003177,0.000019
 87,0.00003105,-0.00105679,-0.00155228,-0.00047664,-0.00007298,-0.00007
 797,-0.00008592,0.00000041,-0.00002126,0.00003657,0.00021291,-0.000026
 46,0.00004558,0.00027031,0.00085658,-0.00039464,-0.00001258,0.00004471
 ,-0.00002738,0.00003412,0.00005949,-0.00002382,0.00006064,0.00002874,0
 .00004103,0.00011755,0.00014979,-0.00001284,0.00001285,0.00003327,-0.0
 0000943,-0.00001810,-0.00003266,0.00000360,-0.00005985,0.00011783,-0.0
 0005149,0.00023332,0.00013795,-0.00042337,-0.00070824,0.00114906,-0.00
 015926,-0.11488147,0.24952174,0.00004929,0.00002366,0.00000188,-0.0000
 4951,-0.00000154,0.00005086,-0.00003353,-0.00001494,-0.00008575,0.0000
 7868,-0.00012750,0.00004092,-0.00001635,0.00005543,0.00006202,0.000018
 48,0.00000386,-0.00000560,0.00032418,0.00006829,0.00002652,-0.00079552
 ,-0.00022516,0.00038092,0.00000009,-0.00013167,0.00000431,-0.00007106,
 0.00009502,-0.00003802,0.00014228,0.00026773,0.00064937,-0.00066500,0.
 00039120,0.00035378,0.00003529,-0.00019180,0.00005157,-0.00020520,0.00
 044151,-0.00001250,0.00853165,-0.01382208,0.00301098,-0.02700052,0.045
 94996,-0.06079814,0.00424074,-0.00910805,0.00116811,0.00051771,0.00013
 975,0.00002351,-0.00001264,-0.00000645,-0.00000039,0.00001769,0.000005
 20,-0.00001337,0.00000061,0.00001810,-0.00002167,0.00000324,-0.0000124
 8,-0.00000104,0.00001552,0.00002078,-0.00000285,-0.00001666,0.00002103
 ,-0.00001449,0.00000158,-0.00000846,-0.00003397,-0.00001708,-0.0000073
 3,-0.00002853,0.00001492,-0.00000217,-0.00000810,-0.00000779,-0.000009
 06,-0.00000502,-0.00003645,0.00012531,-0.00007076,-0.00005868,0.000030
 80,-0.00004795,0.00015750,-0.00069428,-0.00012993,0.00014810,0.0000520
 7,-0.00007260,-0.00003783,0.00000354,-0.00003633,-0.00003499,-0.000002
 55,-0.00001406,-0.00011502,0.00003089,0.00036556,0.00017660,0.00005775
 ,-0.00012685,-0.00001754,-0.00010144,-0.00020721,-0.00000802,0.0000835
 0,-0.00034734,-0.00016720,-0.00014604,-0.00008267,0.00001078,0.0001028
 7,-0.00002596,-0.00003466,-0.00005487,-0.00005568,-0.00001230,-0.00002
 368,-0.00005305,-0.00074188,-0.00047386,0.00067701,0.00331128,-0.00039
 394,-0.00059107,0.02880817,-0.04745667,0.06085735,-0.00002008,-0.00000
 937,0.00000296,0.00001807,-0.00000486,-0.00001630,0.00001924,-0.000004
 14,0.00000545,-0.00001723,0.00002286,-0.00000046,0.00000865,-0.0000151
 7,-0.00001908,0.00001248,-0.00000300,-0.00000354,-0.00006936,-0.000026
 26,-0.00000859,0.00013006,-0.00001082,0.00000657,-0.00005482,-0.000029
 24,0.00006112,0.00014583,0.00008455,-0.00000941,-0.00009164,-0.0000978
 0,-0.00014803,0.00186490,0.00058004,0.00073001,-0.00004250,-0.00024590
 ,-0.00006522,0.00018435,0.00073018,-0.00379742,0.00206370,-0.00202242,
 0.03111633,-0.05042608,0.00405795,-0.03298149,-0.00558444,-0.00079288,
 -0.01788415,0.00054616,0.00033939,0.00164799,0.00000032,0.00000608,0.0
 0000357,-0.00000677,-0.00000743,0.00001396,-0.00000392,-0.00000194,0.0
 0000751,0.00000187,0.00000537,0.00000261,0.00000809,-0.00000456,-0.000
 03303,-0.00000900,0.00000981,0.00000536,0.00000086,-0.00000003,0.00001
 939,0.00000065,0.00000424,0.00000923,-0.00000772,0.00000493,0.00000769
 ,0.00000105,-0.00000061,0.00000085,0.00000918,-0.00001384,0.00001475,0
 .00000176,-0.00000961,0.00001448,-0.00006749,-0.00006927,-0.00010147,0
 .00003254,-0.00000519,-0.00002287,0.00003344,-0.00000599,0.00002428,-0
 .00001856,0.00000837,-0.00000593,0.00003232,-0.00012819,-0.00003570,-0
 .00014909,0.00004511,0.00008853,0.00001115,-0.00001556,0.00005090,-0.0
 0006049,0.00016621,-0.00002552,0.00021980,0.00031018,-0.00028929,-0.00
 019688,-0.00025506,-0.00085695,0.00008295,0.00002867,0.00018115,-0.000
 06311,-0.00001194,0.00004061,-0.00527044,-0.00017732,0.00319101,0.0012
 2576,0.00014617,-0.00062113,-0.00278043,0.00067848,-0.01623947,0.05920
 717,0.00003760,0.00002096,0.00001101,-0.00001998,0.00000346,0.00003560
 ,-0.00001248,-0.00000571,-0.00004163,0.00000679,-0.00001247,-0.0000179
 8,-0.00001124,0.00001083,0.00002581,-0.00000079,0.00000653,0.00000865,
 0.00018775,0.00004070,-0.00001715,-0.00045182,0.00001736,0.00008789,0.
 00002417,0.00001306,-0.00005223,-0.00002722,-0.00011620,0.00020449,-0.
 00000818,-0.00005941,0.00023694,0.00033493,0.00031150,0.00094729,0.000
 00429,-0.00015074,-0.00005598,0.00032304,0.00140367,-0.00228741,-0.000
 10593,-0.00057471,-0.00029630,0.00433797,-0.04869666,0.01448018,-0.006
 34063,-0.00069213,-0.02624566,0.00102074,-0.00013456,0.00099773,-0.000
 00642,-0.00000605,-0.00000427,0.00000869,0.00001017,-0.00001846,-0.000
 00125,-0.00000236,-0.00001335,-0.00000390,-0.00001653,-0.00000512,-0.0
 0000034,0.00000822,0.00004066,0.00001220,-0.00001097,-0.00000394,-0.00
 000578,-0.00000084,-0.00002249,0.00000141,-0.00000616,-0.00000953,0.00
 000511,0.00000167,-0.00000511,0.00000080,-0.00000748,-0.00000271,-0.00
 002392,0.00006947,-0.00003956,-0.00002693,0.00004525,-0.00004472,0.000
 39393,-0.00000049,0.00024544,-0.00006039,-0.00009456,-0.00002930,-0.00
 000799,-0.00000871,0.00000197,0.00002490,-0.00000778,0.00000569,-0.000
 07008,0.00007737,0.00000720,0.00005897,0.00008641,-0.00005548,-0.00002
 799,-0.00005614,-0.00011650,0.00001873,0.00007285,-0.00021084,0.000011
 89,-0.00006172,-0.00013834,-0.00015865,0.00006369,-0.00019938,0.000084
 78,-0.00003030,0.00017635,-0.00005662,0.00001505,0.00001590,-0.0001780
 0,0.00081472,-0.00033572,-0.00033411,0.00013588,-0.00050738,0.00354081
 ,-0.00140486,0.02711155,-0.00002573,0.05170865,-0.00002659,-0.00001699
 ,-0.00001103,0.00001546,0.00000309,-0.00001851,0.00000324,0.00000888,0
 .00003909,-0.00001426,0.00001968,0.00000581,0.00000541,-0.00001316,-0.
 00002291,-0.00000322,-0.00001127,-0.00000709,-0.00014846,-0.00000106,0
 .00003820,0.00036526,0.00008438,-0.00000979,-0.00000552,0.00001707,0.0
 0003871,0.00003320,-0.00000368,-0.00010361,-0.00001299,-0.00003781,-0.
 00015043,-0.00074377,-0.00013720,0.00066810,-0.00011222,0.00001089,-0.
 00004406,0.00132596,0.00072689,-0.00194782,-0.00100699,0.00090519,-0.0
 1550580,-0.03481378,0.01303157,-0.29611751,-0.00348256,-0.00071876,-0.
 00899485,0.00044306,0.00000434,0.00187771,0.00000533,0.00000457,0.0000
 0178,-0.00000826,-0.00000190,0.00000632,0.00000478,-0.00000299,0.00000
 750,0.00000411,0.00001260,0.00000239,-0.00000463,-0.00001013,-0.000019
 39,-0.00000383,0.00000431,0.00000478,-0.00000051,0.00000036,0.00001620
 ,0.00000360,0.00000704,0.00000779,-0.00000517,0.00000375,0.00000815,0.
 00000052,0.00001091,0.00000152,0.00000769,-0.00006090,0.00002300,0.000
 02499,-0.00002027,0.00002834,-0.00019880,0.00007171,-0.00010437,0.0000
 5538,0.00008110,0.00002685,0.00001741,-0.00000379,0.00001603,-0.000006
 16,0.00000441,-0.00000344,-0.00003570,-0.00006457,-0.00002052,-0.00006
 333,0.00000847,0.00007169,-0.00000681,0.00002473,0.00007146,0.00004684
 ,-0.00011864,0.00012596,-0.00000960,-0.00007377,0.00040131,0.00065507,
 0.00064873,0.00043849,0.00002378,0.00003948,0.00009459,-0.00002927,0.0
 0000206,0.00005238,0.00277187,-0.00039741,0.00009930,0.00001875,-0.000
 39247,0.00060965,-0.00078223,0.00034440,-0.00574226,0.03583973,-0.0122
 8124,0.32298485,-0.00000587,-0.00000066,-0.00001219,-0.00000017,0.0000
 0531,0.00000757,-0.00000360,0.00001627,0.00000683,-0.00000047,0.000005
 54,-0.00000541,-0.00001052,-0.00000073,0.00000498,0.00004792,0.0000057
 7,-0.00000036,-0.00005272,-0.00000046,0.00002397,0.00004464,0.00002314
 ,-0.00009568,-0.00006530,-0.00004975,-0.00006535,0.00067373,-0.0002458
 8,0.00015061,0.00002411,-0.00005626,0.00004357,0.00025264,-0.00001335,
 -0.00014056,-0.00301981,-0.00345355,0.00253652,-0.02000010,0.02468598,
 -0.00376394,0.00161568,-0.00120068,0.00037705,0.00898066,-0.01679979,0
 .00276858,-0.11606539,0.11997410,-0.01850443,0.00314954,-0.00251071,-0
 .00216956,0.00000050,-0.00000208,0.00000235,-0.00000121,0.00000117,-0.
 00000341,0.00000211,0.00000153,-0.00000092,0.00000310,-0.00000075,0.00
 000126,-0.00001770,-0.00000457,-0.00000288,0.00000114,0.00000077,0.000
 00265,0.00000122,-0.00000751,0.00000683,0.00000160,0.00001751,0.000000
 83,0.00000032,0.00000638,0.00000698,-0.00001013,0.00000415,-0.00000614
 ,0.00001089,-0.00002460,0.00000714,0.00000451,0.00000420,-0.00000009,-
 0.00007293,0.00002103,0.00008024,-0.00004144,-0.00003412,0.00000702,0.
 00000974,-0.00000193,-0.00000134,0.00005072,0.00002454,-0.00000996,0.0
 0003080,0.00002475,-0.00003468,-0.00004866,0.00001889,0.00001943,-0.00
 002484,0.00002101,-0.00001294,-0.00001310,0.00001312,-0.00003418,0.000
 03709,0.00008673,0.00001170,0.00000929,0.00000643,0.00001408,0.0000861
 8,0.00007924,0.00003233,-0.00130781,0.00035619,-0.00027362,-0.00007417
 ,0.00012813,0.00001456,-0.00011700,0.00048062,-0.00024870,-0.00178465,
 -0.00339104,-0.00102841,0.00067361,0.00081235,0.00013418,0.13089652,-0
 .00000435,-0.00000580,0.00000761,0.00000252,0.00000914,0.00000367,-0.0
 0001123,0.00001004,0.00001968,-0.00002583,0.00003641,-0.00001349,-0.00
 000510,-0.00000646,0.00000012,0.00000533,0.00000595,0.00001650,-0.0001
 0402,-0.00000184,0.00002709,0.00022485,0.00004813,-0.00018412,-0.00000
 020,0.00001065,-0.00005660,0.00005235,-0.00014593,0.00008458,0.0002790
 9,0.00008031,0.00002973,-0.00021174,0.00023096,-0.00034427,-0.00064305
 ,-0.00041961,-0.00031603,-0.00165804,0.00131921,0.00205912,0.00215522,
 0.00133715,0.00021838,0.01194299,-0.02585766,0.00354363,0.11775090,-0.
 21895529,0.03110736,-0.00107299,0.00119448,-0.00078272,0.00000347,-0.0
 0000135,-0.00000597,-0.00000083,0.00000774,-0.00001231,0.00000556,-0.0
 0001104,0.00000039,-0.00000124,0.00000018,-0.00000751,0.00000053,-0.00
 001010,0.00002250,0.00001251,-0.00001351,-0.00000150,-0.00000433,0.000
 00440,-0.00000999,0.00001010,-0.00000711,0.00000251,-0.00000324,0.0000
 0016,-0.00000389,0.00001156,-0.00000932,0.00000250,0.00000354,-0.00005
 567,0.00001657,0.00000902,0.00001376,-0.00001022,-0.00019597,-0.000004
 43,0.00015339,-0.00007782,-0.00006370,0.00000059,-0.00000145,-0.000002
 94,0.00000698,0.00003313,0.00000395,0.00000233,-0.00001762,0.00009214,
 -0.00005635,0.00000103,-0.00000953,-0.00000826,-0.00007292,0.00008538,
 -0.00001145,0.00001080,0.00002006,-0.00005807,-0.00001583,0.00001706,0
 .00000538,0.00003327,-0.00001477,0.00001795,-0.00011308,-0.00003121,-0
 .00004182,-0.00010992,0.00001482,-0.00003952,-0.00009483,-0.00004873,0
 .00004622,-0.00123847,0.00043740,0.00022730,-0.00359302,-0.00295788,-0
 .00216929,0.00028038,0.00101383,-0.00018976,-0.12379585,0.24382054,-0.
 00000408,0.00000134,-0.00000251,0.00000664,-0.00000332,-0.00000547,0.0
 0000100,0.00000075,0.00000504,-0.00000778,0.00000326,0.00000091,0.0000
 1410,-0.00000788,-0.00002468,-0.00001390,-0.00001443,0.00000771,-0.000
 02251,-0.00000521,-0.00000821,0.00002940,-0.00001547,-0.00002547,0.000
 02593,0.00000909,0.00001217,-0.00023987,0.00015516,-0.00016684,0.00000
 677,-0.00001196,-0.00005138,0.00018661,-0.00008065,-0.00016981,0.00114
 619,0.00134939,-0.00093998,0.00953264,-0.01676957,0.00216652,0.0002634
 6,0.00061242,0.00022398,0.00443601,-0.00977352,0.00151887,-0.01896777,
 0.03165771,-0.05485751,-0.00039874,0.00186114,0.00018558,0.00000112,0.
 00000060,0.00000188,-0.00000386,-0.00000157,0.00000285,-0.00000115,0.0
 0000007,0.00000124,0.00000008,-0.00000018,0.00000125,-0.00000051,0.000
 00028,-0.00000333,0.00000073,0.00000195,0.00000425,-0.00000189,-0.0000
 0185,0.00001299,-0.00000385,0.00000143,0.00000632,-0.00000235,0.000002
 78,0.00000490,-0.00000116,0.00000443,0.00000052,0.00000396,-0.00000773
 ,0.00000497,0.00000367,0.00000032,0.00000247,-0.00003529,0.00000285,0.
 00003240,-0.00001769,-0.00001402,0.00000223,0.00002572,0.00000186,0.00
 002069,-0.00004054,-0.00000338,0.00000908,-0.00001746,-0.00015894,-0.0
 0007655,-0.00004840,-0.00003418,0.00005053,-0.00000613,0.00000702,0.00
 000362,-0.00000485,0.00000418,-0.00000255,0.00004765,0.00006640,0.0000
 0030,-0.00003515,-0.00004625,-0.00003316,0.00028586,0.00013031,0.00027
 026,0.00045273,-0.00000353,0.00054081,-0.00014248,0.00015206,-0.000086
 09,-0.00001368,0.00018853,0.00025215,-0.00106069,-0.00168668,0.0003840
 5,0.00074854,0.00006833,0.00037576,0.02060176,-0.03350698,0.05352828,-
 0.00000396,-0.00000262,0.00001129,0.00000372,0.00000027,-0.00000956,0.
 00000158,-0.00000407,0.00000405,-0.00000710,0.00001429,-0.00000127,0.0
 0000072,-0.00000162,-0.00000286,0.00000564,0.00001819,0.00001169,-0.00
 003882,0.00000328,0.00000564,0.00009279,0.00002084,-0.00002121,-0.0000
 2657,-0.00002511,-0.00002894,0.00007216,-0.00013387,-0.00006829,-0.000
 01617,-0.00001326,-0.00005186,-0.00004632,-0.00018437,0.00025675,-0.00
 047640,-0.00019803,-0.00052647,0.01138676,-0.00172835,0.02507617,0.000
 95588,0.00074835,-0.00136302,-0.00479677,0.00112361,-0.01804396,-0.062
 44646,0.00934760,-0.05791767,-0.00615593,-0.00239608,0.00618269,0.0000
 0033,0.00000159,-0.00000184,-0.00000087,0.00000224,-0.00000030,0.00000
 085,-0.00000444,0.00000125,-0.00000198,0.00000401,-0.00000061,0.000005
 73,-0.00000102,0.00000838,0.00000255,-0.00000517,-0.00000051,-0.000000
 71,0.00000767,-0.00000568,0.00000318,-0.00001024,0.00000076,-0.0000010
 8,-0.00000740,-0.00000533,0.00000948,-0.00001369,0.00000187,-0.0000010
 0,-0.00001897,0.00000640,0.00001034,-0.00000225,0.00000286,-0.00004867
 ,0.00003089,0.00001499,-0.00000559,0.00000799,0.00000983,-0.00002084,0
 .00001246,-0.00001119,0.00001179,-0.00000411,0.00000179,0.00000751,0.0
 0010851,0.00000748,0.00009013,-0.00010119,-0.00002691,-0.00001090,-0.0
 0000141,0.00001466,0.00001457,-0.00002723,0.00002526,-0.00002788,-0.00
 001919,0.00005213,0.00011760,0.00013106,0.00018066,-0.00142943,0.00004
 931,0.00013575,0.00038727,0.00004786,-0.00013729,-0.00028414,-0.000264
 18,0.00073079,0.00000022,-0.00004032,-0.00003579,0.00075379,0.00021857
 ,0.00081893,-0.00159590,-0.00328547,-0.00028094,-0.00387067,0.00024480
 ,-0.01672882,0.06737957,-0.00001364,-0.00000340,-0.00001053,0.00001013
 ,-0.00000433,-0.00001342,0.00000626,0.00000247,0.00001204,-0.00000240,
 -0.00000348,0.00000597,0.00001430,-0.00000994,-0.00002972,-0.00000510,
 -0.00001005,-0.00000356,-0.00004015,-0.00000520,-0.00000549,0.00006787
 ,0.00000402,-0.00000535,0.00000893,-0.00002701,0.00005770,0.00009235,0
 .00017171,-0.00022903,-0.00001996,0.00000445,-0.00007014,0.00005213,-0
 .00016421,-0.00003164,0.00015033,-0.00000518,0.00006497,0.00109582,-0.
 00329352,0.00225458,0.00114028,0.00076970,-0.00050674,-0.00724962,0.00
 063014,-0.02718760,0.00839006,-0.04873637,0.02167681,-0.00183996,0.002
 01933,0.00109760,0.00000149,0.00000201,0.00000491,-0.00000629,-0.00000
 491,0.00000807,-0.00000075,0.00000438,0.00000409,0.00000273,0.00000419
 ,0.00000500,-0.00000607,-0.00000309,-0.00001780,-0.00000499,0.00000706
 ,0.00000642,0.00000141,-0.00000435,0.00002174,-0.00000600,0.00001078,0
 .00000785,-0.00000149,0.00000058,0.00000660,-0.00000710,0.00001213,-0.
 00000057,0.00000709,-0.00001141,0.00000803,0.00000894,-0.00001261,0.00
 001513,-0.00004491,0.00002624,-0.00003461,0.00002194,0.00002523,0.0000
 1370,0.00002322,0.00000938,0.00000570,-0.00003629,0.00000189,0.0000050
 2,-0.00003682,-0.00022079,-0.00001584,-0.00008064,-0.00007253,0.000061
 04,0.00000942,0.00000776,0.00002588,-0.00000220,-0.00003262,0.00005854
 ,0.00002854,0.00001806,0.00009607,0.00010282,0.00005876,0.00015342,-0.
 00004392,0.00031246,-0.00019718,-0.00004249,-0.00002943,0.00000318,-0.
 00021174,0.00015804,0.00060258,-0.00006957,-0.00003019,0.00013431,0.00
 093122,0.00126102,0.00008551,-0.00351483,-0.00379377,-0.00152285,0.004
 76939,-0.00117995,0.02586369,-0.00364974,0.05213658,-0.00001860,-0.000
 01297,-0.00001635,0.00001199,0.00000302,-0.00001092,0.00000406,-0.0000
 0100,0.00002970,-0.00001030,0.00000717,0.00000199,0.00001086,-0.000011
 28,-0.00003328,0.00003337,-0.00002010,0.00001186,-0.00004042,-0.000004
 81,-0.00001618,0.00007846,0.00000763,-0.00001950,-0.00002532,-0.000080
 04,-0.00001526,0.00025481,-0.00002751,0.00018599,-0.00003388,-0.000013
 26,-0.00007927,-0.00004967,-0.00003478,0.00039547,-0.00083823,-0.00025
 107,-0.00002083,-0.01092682,0.00194330,-0.01526213,0.00052047,0.000239
 77,0.00040611,-0.00222010,0.00018679,-0.00908370,-0.05310677,0.0213222
 9,-0.28710510,0.00590660,0.00071362,-0.00321505,0.00000492,0.00000457,
 0.00000278,-0.00000927,-0.00000144,0.00000488,0.00000381,-0.00000129,0
 .00000468,0.00000517,0.00000647,0.00000160,-0.00000643,-0.00000848,-0.
 00001440,-0.00000296,0.00000765,0.00000855,-0.00000473,-0.00000584,0.0
 0002622,-0.00000163,0.00001109,0.00000947,-0.00000797,0.00001386,0.000
 01422,-0.00000054,0.00000155,-0.00000457,0.00000461,-0.00001744,0.0000
 0778,0.00000996,-0.00000525,0.00001354,-0.00006081,0.00001931,-0.00000
 204,0.00000404,0.00000650,0.00001300,0.00004767,-0.00001218,0.00004440
 ,-0.00002175,0.00000498,-0.00000467,0.00002123,-0.00021875,-0.00013002
 ,-0.00013136,0.00014822,0.00010330,-0.00000194,-0.00001568,0.00001929,
 0.00001025,-0.00001264,0.00003390,-0.00007021,-0.00006138,0.00001192,0
 .00018081,0.00013496,0.00001686,0.00045709,0.00013393,0.00134911,-0.00
 025432,0.00023453,0.00053902,-0.00063869,-0.00006498,0.00050306,0.0000
 1799,-0.00002522,-0.00001707,0.00030407,-0.00031690,0.00056442,-0.0006
 6952,-0.00165091,0.00067967,-0.00044826,0.00020805,-0.00318105,0.06170
 827,-0.02248407,0.31322863\\0.00000003,0.00000099,0.00000498,-0.000004
 18,-0.00000356,0.00000477,-0.00000365,0.00000041,-0.00000090,0.0000021
 4,-0.00000341,-0.00000181,0.00000458,-0.00000278,0.00000036,0.00000034
 ,-0.00000117,-0.00000066,0.00000323,-0.00000055,-0.00000103,-0.0000036
 8,-0.00000075,0.00000554,0.00000027,-0.00000473,0.00000462,0.00000111,
 0.00000305,-0.00000070,0.00000237,0.00000229,0.00000328,0.00000115,-0.
 00000030,0.00000108,-0.00000481,0.00000121,-0.00000424,0.00000440,-0.0
 0000048,-0.00000512,-0.00000081,0.00000599,-0.00000359,-0.00000018,0.0
 0000255,-0.00000008,-0.00000309,0.00000016,0.00000250,0.00000105,-0.00
 000157,0.00000197,0.00000009,-0.00000208,-0.00000171,0.00000073,0.0000
 0002,-0.00000080,-0.00000153,0.00000252,-0.00000074,-0.00000012,0.0000
 0023,0.00000315,-0.00000293,0.00000168,-0.00000077,-0.00000061,-0.0000
 0035,0.00000046,-0.00000006,0.00000045,0.00000086,-0.00000224,0.000002
 53,-0.00000017,-0.00000052,-0.00000117,0.00000055,-0.00000060,-0.00000
 107,-0.00000078,-0.00000248,0.00000089,0.00000208,-0.00000086,0.000001
 28,0.00000101,0.00000116,0.00000074,-0.00000046,-0.00000034,-0.0000001
 0,-0.00000083,0.00000001,-0.00000047,-0.00000497,0.00000102,0.00000090
 ,-0.00000269,-0.00000019,-0.00000152,-0.00000004,0.00000018,-0.0000009
 7,-0.00000077,-0.00000046,0.00000034,0.00000051,-0.00000118,0.00000094
 ,-0.00000194,-0.00000006,0.00000155,0.00000071,-0.00000023,0.00000070,
 -0.00000043,0.00000085,-0.00000036,0.00000127,0.00000303,-0.00000040,-
 0.00000284,0.00000076,0.00000084,0.00000172,0.00000250,-0.00000240,0.0
 0000068,0.00000165,-0.00000108,0.00000005,-0.00000031,-0.00000053,-0.0
 0000099,0.00000154,-0.00000102,-0.00000117,0.00000092,0.00000055,-0.00
 000193\\\@


 GROWING OLD ISN'T SO BAD -- WHEN YOU CONSIDER THE ALTERNATIVE.

                     -- MAURICE CHEVALIER
 Job cpu time:       0 days 23 hours 21 minutes 27.8 seconds.
 File lengths (MBytes):  RWF=   1335 Int=      0 D2E=      0 Chk=     25 Scr=      1
 Normal termination of Gaussian 09 at Sun Apr 26 03:51:15 2015.
