 Entering Gaussian System, Link 0=g09
 Input=0_0freq-b971_56-81-5.gau
 Output=0_0freq-b971_56-81-5.log
 Initial command:
 /opt/g09/l1.exe "/scratch/pb556/g09_run/add_hco//Gau-24491.inp" -scrdir="/scratch/pb556/g09_run/add_hco//"
 Entering Link 1 = /opt/g09/l1.exe PID=     24500.
  
 Copyright (c) 1988,1990,1992,1993,1995,1998,2003,2009,2013,
            Gaussian, Inc.  All Rights Reserved.
  
 This is part of the Gaussian(R) 09 program.  It is based on
 the Gaussian(R) 03 system (copyright 2003, Gaussian, Inc.),
 the Gaussian(R) 98 system (copyright 1998, Gaussian, Inc.),
 the Gaussian(R) 94 system (copyright 1995, Gaussian, Inc.),
 the Gaussian 92(TM) system (copyright 1992, Gaussian, Inc.),
 the Gaussian 90(TM) system (copyright 1990, Gaussian, Inc.),
 the Gaussian 88(TM) system (copyright 1988, Gaussian, Inc.),
 the Gaussian 86(TM) system (copyright 1986, Carnegie Mellon
 University), and the Gaussian 82(TM) system (copyright 1983,
 Carnegie Mellon University). Gaussian is a federally registered
 trademark of Gaussian, Inc.
  
 This software contains proprietary and confidential information,
 including trade secrets, belonging to Gaussian, Inc.
  
 This software is provided under written license and may be
 used, copied, transmitted, or stored only in accord with that
 written license.
  
 The following legend is applicable only to US Government
 contracts under FAR:
  
                    RESTRICTED RIGHTS LEGEND
  
 Use, reproduction and disclosure by the US Government is
 subject to restrictions as set forth in subparagraphs (a)
 and (c) of the Commercial Computer Software - Restricted
 Rights clause in FAR 52.227-19.
  
 Gaussian, Inc.
 340 Quinnipiac St., Bldg. 40, Wallingford CT 06492
  
  
 ---------------------------------------------------------------
 Warning -- This program may not be used in any manner that
 competes with the business of Gaussian, Inc. or will provide
 assistance to any competitor of Gaussian, Inc.  The licensee
 of this program is prohibited from giving any competitor of
 Gaussian, Inc. access to this program.  By using this program,
 the user acknowledges that Gaussian, Inc. is engaged in the
 business of creating and licensing software in the field of
 computational chemistry and represents and warrants to the
 licensee that it is not a competitor of Gaussian, Inc. and that
 it will not use this program in any manner prohibited above.
 ---------------------------------------------------------------
  

 Cite this work as:
 Gaussian 09, Revision D.01,
 M. J. Frisch, G. W. Trucks, H. B. Schlegel, G. E. Scuseria, 
 M. A. Robb, J. R. Cheeseman, G. Scalmani, V. Barone, B. Mennucci, 
 G. A. Petersson, H. Nakatsuji, M. Caricato, X. Li, H. P. Hratchian, 
 A. F. Izmaylov, J. Bloino, G. Zheng, J. L. Sonnenberg, M. Hada, 
 M. Ehara, K. Toyota, R. Fukuda, J. Hasegawa, M. Ishida, T. Nakajima, 
 Y. Honda, O. Kitao, H. Nakai, T. Vreven, J. A. Montgomery, Jr., 
 J. E. Peralta, F. Ogliaro, M. Bearpark, J. J. Heyd, E. Brothers, 
 K. N. Kudin, V. N. Staroverov, T. Keith, R. Kobayashi, J. Normand, 
 K. Raghavachari, A. Rendell, J. C. Burant, S. S. Iyengar, J. Tomasi, 
 M. Cossi, N. Rega, J. M. Millam, M. Klene, J. E. Knox, J. B. Cross, 
 V. Bakken, C. Adamo, J. Jaramillo, R. Gomperts, R. E. Stratmann, 
 O. Yazyev, A. J. Austin, R. Cammi, C. Pomelli, J. W. Ochterski, 
 R. L. Martin, K. Morokuma, V. G. Zakrzewski, G. A. Voth, 
 P. Salvador, J. J. Dannenberg, S. Dapprich, A. D. Daniels, 
 O. Farkas, J. B. Foresman, J. V. Ortiz, J. Cioslowski, 
 and D. J. Fox, Gaussian, Inc., Wallingford CT, 2013.
 
 ******************************************
 Gaussian 09:  ES64L-G09RevD.01 24-Apr-2013
                26-Apr-2015 
 ******************************************
 %NProcShared=8
 Will use up to    8 processors via shared memory.
 %Mem=500MW
 ----------------------------------------------------------------------
 #p rB971/6-311+G(d,p) Opt=(Tight, CalcAll) Freq GFInput Population=Non
 e Integral(Grid=UltraFine) Guess=MIX NoSymmetry
 ----------------------------------------------------------------------
 1/7=10,10=4,14=-1,18=20,19=15,26=4,38=1/1,3;
 2/9=110,12=2,15=1,17=6,18=5,40=1/2;
 3/5=4,6=6,7=111,11=2,16=1,24=10,25=1,30=1,71=2,74=-20,75=-5,116=1,140=1/1,2,3;
 4/13=-1/1;
 5/5=2,38=5/2;
 8/6=4,10=90,11=11/1;
 11/6=1,8=1,9=11,15=111,16=1,31=1/1,2,10;
 10/6=1,31=1/2;
 7/10=1,25=1,30=1/1,2,3,16;
 1/7=10,10=4,14=-1,18=20,19=15,26=4/3(3);
 2/9=110,15=1/2;
 7/8=1,9=1,25=1,30=1,44=-1/16;
 99//99;
 2/9=110,15=1/2;
 3/5=4,6=6,7=111,11=2,16=1,25=1,30=1,71=2,74=-20,75=-5,116=1,140=1/1,2,3;
 4/5=5,16=3,69=1/1;
 5/5=2,38=5/2;
 8/6=4,10=90,11=11/1;
 11/6=1,8=1,9=11,15=111,16=1,31=1/1,2,10;
 10/6=1,31=1/2;
 7/10=1,25=1,30=1/1,2,3,16;
 1/7=10,10=4,14=-1,18=20,19=15,26=4/3(-8);
 2/9=110,15=1/2;
 7/8=1,9=1,25=1,30=1,44=-1/16;
 99//99;
 Leave Link    1 at Sun Apr 26 13:12:31 2015, MaxMem=   524288000 cpu:         0.5
 (Enter /opt/g09/l101.exe)
 ---------------------
 freq-b971_56-81-5.gau
 ---------------------
 Symbolic Z-matrix:
 Charge =  0 Multiplicity = 1
 C                     3.31822   1.75804   0.95846 
 C                     2.25926   1.29942   1.96129 
 C                     1.28947   2.40384   2.38229 
 O                     1.52977   0.1772    1.43077 
 O                     4.22237   0.71784   0.63624 
 O                     0.35988   1.94743   3.3471 
 H                     2.82181   2.14198   0.04896 
 H                     3.91139   2.57491   1.38223 
 H                     2.75671   0.8996    2.85146 
 H                     1.8379    3.23494   2.83752 
 H                     0.76836   2.79572   1.49016 
 H                     1.06554   0.46912   0.63651 
 H                     3.70067  -0.08283   0.50867 
 H                     0.06035   1.0761    3.06324 
 
 NAtoms=     14 NQM=       14 NQMF=       0 NMMI=      0 NMMIF=      0
                NMic=       0 NMicF=      0.
                    Isotopes and Nuclear Properties:
 (Nuclear quadrupole moments (NQMom) in fm**2, nuclear magnetic moments (NMagM)
  in nuclear magnetons)

  Atom         1           2           3           4           5           6           7           8           9          10
 IAtWgt=          12          12          12          16          16          16           1           1           1           1
 AtmWgt=  12.0000000  12.0000000  12.0000000  15.9949146  15.9949146  15.9949146   1.0078250   1.0078250   1.0078250   1.0078250
 NucSpn=           0           0           0           0           0           0           1           1           1           1
 AtZEff=   0.0000000   0.0000000   0.0000000   0.0000000   0.0000000   0.0000000   0.0000000   0.0000000   0.0000000   0.0000000
 NQMom=    0.0000000   0.0000000   0.0000000   0.0000000   0.0000000   0.0000000   0.0000000   0.0000000   0.0000000   0.0000000
 NMagM=    0.0000000   0.0000000   0.0000000   0.0000000   0.0000000   0.0000000   2.7928460   2.7928460   2.7928460   2.7928460
 AtZNuc=   6.0000000   6.0000000   6.0000000   8.0000000   8.0000000   8.0000000   1.0000000   1.0000000   1.0000000   1.0000000

  Atom        11          12          13          14
 IAtWgt=           1           1           1           1
 AtmWgt=   1.0078250   1.0078250   1.0078250   1.0078250
 NucSpn=           1           1           1           1
 AtZEff=   0.0000000   0.0000000   0.0000000   0.0000000
 NQMom=    0.0000000   0.0000000   0.0000000   0.0000000
 NMagM=    2.7928460   2.7928460   2.7928460   2.7928460
 AtZNuc=   1.0000000   1.0000000   1.0000000   1.0000000
 Leave Link  101 at Sun Apr 26 13:12:31 2015, MaxMem=   524288000 cpu:         1.9
 (Enter /opt/g09/l103.exe)

 GradGradGradGradGradGradGradGradGradGradGradGradGradGradGradGradGradGrad
 Berny optimization.
 Initialization pass.
                           ----------------------------
                           !    Initial Parameters    !
                           ! (Angstroms and Degrees)  !
 --------------------------                            --------------------------
 ! Name  Definition              Value          Derivative Info.                !
 --------------------------------------------------------------------------------
 ! R1    R(1,2)                  1.5289         calculate D2E/DX2 analytically  !
 ! R2    R(1,5)                  1.4154         calculate D2E/DX2 analytically  !
 ! R3    R(1,7)                  1.105          calculate D2E/DX2 analytically  !
 ! R4    R(1,8)                  1.0949         calculate D2E/DX2 analytically  !
 ! R5    R(2,3)                  1.5289         calculate D2E/DX2 analytically  !
 ! R6    R(2,4)                  1.4398         calculate D2E/DX2 analytically  !
 ! R7    R(2,9)                  1.0953         calculate D2E/DX2 analytically  !
 ! R8    R(3,6)                  1.4154         calculate D2E/DX2 analytically  !
 ! R9    R(3,10)                 1.0949         calculate D2E/DX2 analytically  !
 ! R10   R(3,11)                 1.105          calculate D2E/DX2 analytically  !
 ! R11   R(4,12)                 0.9652         calculate D2E/DX2 analytically  !
 ! R12   R(5,13)                 0.9641         calculate D2E/DX2 analytically  !
 ! R13   R(6,14)                 0.9641         calculate D2E/DX2 analytically  !
 ! A1    A(2,1,5)              111.7978         calculate D2E/DX2 analytically  !
 ! A2    A(2,1,7)              109.4479         calculate D2E/DX2 analytically  !
 ! A3    A(2,1,8)              110.1935         calculate D2E/DX2 analytically  !
 ! A4    A(5,1,7)              110.7904         calculate D2E/DX2 analytically  !
 ! A5    A(5,1,8)              106.8789         calculate D2E/DX2 analytically  !
 ! A6    A(7,1,8)              107.6216         calculate D2E/DX2 analytically  !
 ! A7    A(1,2,3)              113.7836         calculate D2E/DX2 analytically  !
 ! A8    A(1,2,4)              110.0634         calculate D2E/DX2 analytically  !
 ! A9    A(1,2,9)              109.1479         calculate D2E/DX2 analytically  !
 ! A10   A(3,2,4)              110.0671         calculate D2E/DX2 analytically  !
 ! A11   A(3,2,9)              109.1459         calculate D2E/DX2 analytically  !
 ! A12   A(4,2,9)              104.1849         calculate D2E/DX2 analytically  !
 ! A13   A(2,3,6)              111.8001         calculate D2E/DX2 analytically  !
 ! A14   A(2,3,10)             110.188          calculate D2E/DX2 analytically  !
 ! A15   A(2,3,11)             109.4512         calculate D2E/DX2 analytically  !
 ! A16   A(6,3,10)             106.8783         calculate D2E/DX2 analytically  !
 ! A17   A(6,3,11)             110.7918         calculate D2E/DX2 analytically  !
 ! A18   A(10,3,11)            107.6204         calculate D2E/DX2 analytically  !
 ! A19   A(2,4,12)             108.1299         calculate D2E/DX2 analytically  !
 ! A20   A(1,5,13)             107.1448         calculate D2E/DX2 analytically  !
 ! A21   A(3,6,14)             107.1444         calculate D2E/DX2 analytically  !
 ! D1    D(5,1,2,3)            177.7999         calculate D2E/DX2 analytically  !
 ! D2    D(5,1,2,4)            -58.134          calculate D2E/DX2 analytically  !
 ! D3    D(5,1,2,9)             55.6303         calculate D2E/DX2 analytically  !
 ! D4    D(7,1,2,3)            -59.0642         calculate D2E/DX2 analytically  !
 ! D5    D(7,1,2,4)             65.0018         calculate D2E/DX2 analytically  !
 ! D6    D(7,1,2,9)            178.7661         calculate D2E/DX2 analytically  !
 ! D7    D(8,1,2,3)             59.0961         calculate D2E/DX2 analytically  !
 ! D8    D(8,1,2,4)           -176.8379         calculate D2E/DX2 analytically  !
 ! D9    D(8,1,2,9)            -63.0735         calculate D2E/DX2 analytically  !
 ! D10   D(2,1,5,13)            43.2162         calculate D2E/DX2 analytically  !
 ! D11   D(7,1,5,13)           -79.1552         calculate D2E/DX2 analytically  !
 ! D12   D(8,1,5,13)           163.8704         calculate D2E/DX2 analytically  !
 ! D13   D(1,2,3,6)           -177.797          calculate D2E/DX2 analytically  !
 ! D14   D(1,2,3,10)           -59.0962         calculate D2E/DX2 analytically  !
 ! D15   D(1,2,3,11)            59.0614         calculate D2E/DX2 analytically  !
 ! D16   D(4,2,3,6)             58.1389         calculate D2E/DX2 analytically  !
 ! D17   D(4,2,3,10)           176.8398         calculate D2E/DX2 analytically  !
 ! D18   D(4,2,3,11)           -65.0027         calculate D2E/DX2 analytically  !
 ! D19   D(9,2,3,6)            -55.6263         calculate D2E/DX2 analytically  !
 ! D20   D(9,2,3,10)            63.0745         calculate D2E/DX2 analytically  !
 ! D21   D(9,2,3,11)          -178.7679         calculate D2E/DX2 analytically  !
 ! D22   D(1,2,4,12)           -63.0835         calculate D2E/DX2 analytically  !
 ! D23   D(3,2,4,12)            63.1093         calculate D2E/DX2 analytically  !
 ! D24   D(9,2,4,12)          -179.9874         calculate D2E/DX2 analytically  !
 ! D25   D(2,3,6,14)           -43.2405         calculate D2E/DX2 analytically  !
 ! D26   D(10,3,6,14)         -163.8889         calculate D2E/DX2 analytically  !
 ! D27   D(11,3,6,14)           79.1378         calculate D2E/DX2 analytically  !
 --------------------------------------------------------------------------------
 Trust Radius=3.00D-01 FncErr=1.00D-07 GrdErr=1.00D-06
 Number of steps in this run=     71 maximum allowed number of steps=    100.
 GradGradGradGradGradGradGradGradGradGradGradGradGradGradGradGradGradGrad

 Leave Link  103 at Sun Apr 26 13:12:31 2015, MaxMem=   524288000 cpu:         0.1
 (Enter /opt/g09/l202.exe)
                          Input orientation:                          
 ---------------------------------------------------------------------
 Center     Atomic      Atomic             Coordinates (Angstroms)
 Number     Number       Type             X           Y           Z
 ---------------------------------------------------------------------
      1          6           0        3.318220    1.758040    0.958460
      2          6           0        2.259260    1.299420    1.961290
      3          6           0        1.289470    2.403840    2.382290
      4          8           0        1.529770    0.177200    1.430770
      5          8           0        4.222370    0.717840    0.636240
      6          8           0        0.359880    1.947430    3.347100
      7          1           0        2.821810    2.141980    0.048960
      8          1           0        3.911390    2.574910    1.382230
      9          1           0        2.756710    0.899600    2.851460
     10          1           0        1.837900    3.234940    2.837520
     11          1           0        0.768360    2.795720    1.490160
     12          1           0        1.065540    0.469120    0.636510
     13          1           0        3.700670   -0.082830    0.508670
     14          1           0        0.060350    1.076100    3.063240
 ---------------------------------------------------------------------
                    Distance matrix (angstroms):
                    1          2          3          4          5
     1  C    0.000000
     2  C    1.528855   0.000000
     3  C    2.561284   1.528881   0.000000
     4  O    2.433246   1.439786   2.433323   0.000000
     5  O    1.415390   2.438810   3.806992   2.858962   0.000000
     6  O    3.806999   2.438858   1.415382   2.859139   4.876421
     7  H    1.104999   2.164111   2.803759   2.727476   2.081980
     8  H    1.094855   2.166038   2.811379   3.379864   2.025319
     9  H    2.153059   1.095315   2.153056   2.011369   2.662404
    10  H    2.811307   2.166001   1.094868   3.379891   4.106960
    11  H    2.803796   2.164177   1.104998   2.727622   4.120309
    12  H    2.615250   1.967081   2.615537   0.965182   3.166613
    13  H    1.933231   2.469490   3.938003   2.372908   0.964115
    14  H    3.938129   2.469690   1.933216   2.373220   4.831262
                    6          7          8          9         10
     6  O    0.000000
     7  H    4.120276   0.000000
     8  H    4.107027   1.775450   0.000000
     9  H    2.662405   3.066228   2.509698   0.000000
    10  H    2.025314   3.152572   2.617799   2.509625   0.000000
    11  H    2.081989   2.592507   3.152625   3.066259   1.775446
    12  H    3.167121   2.495628   3.617915   2.819818   3.618113
    13  H    4.831099   2.435879   2.805547   2.710147   4.461060
    14  H    0.964111   4.224647   4.461248   2.710417   2.805570
                   11         12         13         14
    11  H    0.000000
    12  H    2.496017   0.000000
    13  H    4.224667   2.695348   0.000000
    14  H    2.435765   2.695895   4.595745   0.000000
 Symmetry turned off by external request.
 Stoichiometry    C3H8O3
 Framework group  C1[X(C3H8O3)]
 Deg. of freedom    36
 Full point group                 C1      NOp   1
 Rotational constants (GHZ):      7.8917094      1.9544569      1.6874048
 Leave Link  202 at Sun Apr 26 13:12:31 2015, MaxMem=   524288000 cpu:         0.0
 (Enter /opt/g09/l301.exe)
 Standard basis: 6-311+G(d,p) (5D, 7F)
 Ernie: Thresh=  0.10000D-02 Tol=  0.10000D-05 Strict=F.
 AO basis set in the form of general basis input (Overlap normalization):
      1 0
 S   6 1.00       0.000000000000
      0.4563240000D+04  0.1966650249D-02
      0.6820240000D+03  0.1523060193D-01
      0.1549730000D+03  0.7612690966D-01
      0.4445530000D+02  0.2608010331D+00
      0.1302900000D+02  0.6164620782D+00
      0.1827730000D+01  0.2210060280D+00
 SP   3 1.00       0.000000000000
      0.2096420000D+02  0.1146600807D+00  0.4024869267D-01
      0.4803310000D+01  0.9199996477D+00  0.2375939567D+00
      0.1459330000D+01 -0.3030682134D-02  0.8158538515D+00
 SP   1 1.00       0.000000000000
      0.4834560000D+00  0.1000000000D+01  0.1000000000D+01
 SP   1 1.00       0.000000000000
      0.1455850000D+00  0.1000000000D+01  0.1000000000D+01
 SP   1 1.00       0.000000000000
      0.4380000000D-01  0.1000000000D+01  0.1000000000D+01
 D   1 1.00       0.000000000000
      0.6260000000D+00  0.1000000000D+01
 ****
      2 0
 S   6 1.00       0.000000000000
      0.4563240000D+04  0.1966650249D-02
      0.6820240000D+03  0.1523060193D-01
      0.1549730000D+03  0.7612690966D-01
      0.4445530000D+02  0.2608010331D+00
      0.1302900000D+02  0.6164620782D+00
      0.1827730000D+01  0.2210060280D+00
 SP   3 1.00       0.000000000000
      0.2096420000D+02  0.1146600807D+00  0.4024869267D-01
      0.4803310000D+01  0.9199996477D+00  0.2375939567D+00
      0.1459330000D+01 -0.3030682134D-02  0.8158538515D+00
 SP   1 1.00       0.000000000000
      0.4834560000D+00  0.1000000000D+01  0.1000000000D+01
 SP   1 1.00       0.000000000000
      0.1455850000D+00  0.1000000000D+01  0.1000000000D+01
 SP   1 1.00       0.000000000000
      0.4380000000D-01  0.1000000000D+01  0.1000000000D+01
 D   1 1.00       0.000000000000
      0.6260000000D+00  0.1000000000D+01
 ****
      3 0
 S   6 1.00       0.000000000000
      0.4563240000D+04  0.1966650249D-02
      0.6820240000D+03  0.1523060193D-01
      0.1549730000D+03  0.7612690966D-01
      0.4445530000D+02  0.2608010331D+00
      0.1302900000D+02  0.6164620782D+00
      0.1827730000D+01  0.2210060280D+00
 SP   3 1.00       0.000000000000
      0.2096420000D+02  0.1146600807D+00  0.4024869267D-01
      0.4803310000D+01  0.9199996477D+00  0.2375939567D+00
      0.1459330000D+01 -0.3030682134D-02  0.8158538515D+00
 SP   1 1.00       0.000000000000
      0.4834560000D+00  0.1000000000D+01  0.1000000000D+01
 SP   1 1.00       0.000000000000
      0.1455850000D+00  0.1000000000D+01  0.1000000000D+01
 SP   1 1.00       0.000000000000
      0.4380000000D-01  0.1000000000D+01  0.1000000000D+01
 D   1 1.00       0.000000000000
      0.6260000000D+00  0.1000000000D+01
 ****
      4 0
 S   6 1.00       0.000000000000
      0.8588500000D+04  0.1895150083D-02
      0.1297230000D+04  0.1438590063D-01
      0.2992960000D+03  0.7073200310D-01
      0.8737710000D+02  0.2400010105D+00
      0.2567890000D+02  0.5947970261D+00
      0.3740040000D+01  0.2808020123D+00
 SP   3 1.00       0.000000000000
      0.4211750000D+02  0.1138890124D+00  0.3651139738D-01
      0.9628370000D+01  0.9208111006D+00  0.2371529830D+00
      0.2853320000D+01 -0.3274470358D-02  0.8197019412D+00
 SP   1 1.00       0.000000000000
      0.9056610000D+00  0.1000000000D+01  0.1000000000D+01
 SP   1 1.00       0.000000000000
      0.2556110000D+00  0.1000000000D+01  0.1000000000D+01
 SP   1 1.00       0.000000000000
      0.8450000000D-01  0.1000000000D+01  0.1000000000D+01
 D   1 1.00       0.000000000000
      0.1292000000D+01  0.1000000000D+01
 ****
      5 0
 S   6 1.00       0.000000000000
      0.8588500000D+04  0.1895150083D-02
      0.1297230000D+04  0.1438590063D-01
      0.2992960000D+03  0.7073200310D-01
      0.8737710000D+02  0.2400010105D+00
      0.2567890000D+02  0.5947970261D+00
      0.3740040000D+01  0.2808020123D+00
 SP   3 1.00       0.000000000000
      0.4211750000D+02  0.1138890124D+00  0.3651139738D-01
      0.9628370000D+01  0.9208111006D+00  0.2371529830D+00
      0.2853320000D+01 -0.3274470358D-02  0.8197019412D+00
 SP   1 1.00       0.000000000000
      0.9056610000D+00  0.1000000000D+01  0.1000000000D+01
 SP   1 1.00       0.000000000000
      0.2556110000D+00  0.1000000000D+01  0.1000000000D+01
 SP   1 1.00       0.000000000000
      0.8450000000D-01  0.1000000000D+01  0.1000000000D+01
 D   1 1.00       0.000000000000
      0.1292000000D+01  0.1000000000D+01
 ****
      6 0
 S   6 1.00       0.000000000000
      0.8588500000D+04  0.1895150083D-02
      0.1297230000D+04  0.1438590063D-01
      0.2992960000D+03  0.7073200310D-01
      0.8737710000D+02  0.2400010105D+00
      0.2567890000D+02  0.5947970261D+00
      0.3740040000D+01  0.2808020123D+00
 SP   3 1.00       0.000000000000
      0.4211750000D+02  0.1138890124D+00  0.3651139738D-01
      0.9628370000D+01  0.9208111006D+00  0.2371529830D+00
      0.2853320000D+01 -0.3274470358D-02  0.8197019412D+00
 SP   1 1.00       0.000000000000
      0.9056610000D+00  0.1000000000D+01  0.1000000000D+01
 SP   1 1.00       0.000000000000
      0.2556110000D+00  0.1000000000D+01  0.1000000000D+01
 SP   1 1.00       0.000000000000
      0.8450000000D-01  0.1000000000D+01  0.1000000000D+01
 D   1 1.00       0.000000000000
      0.1292000000D+01  0.1000000000D+01
 ****
      7 0
 S   3 1.00       0.000000000000
      0.3386500000D+02  0.2549381454D-01
      0.5094790000D+01  0.1903731086D+00
      0.1158790000D+01  0.8521614860D+00
 S   1 1.00       0.000000000000
      0.3258400000D+00  0.1000000000D+01
 S   1 1.00       0.000000000000
      0.1027410000D+00  0.1000000000D+01
 P   1 1.00       0.000000000000
      0.7500000000D+00  0.1000000000D+01
 ****
      8 0
 S   3 1.00       0.000000000000
      0.3386500000D+02  0.2549381454D-01
      0.5094790000D+01  0.1903731086D+00
      0.1158790000D+01  0.8521614860D+00
 S   1 1.00       0.000000000000
      0.3258400000D+00  0.1000000000D+01
 S   1 1.00       0.000000000000
      0.1027410000D+00  0.1000000000D+01
 P   1 1.00       0.000000000000
      0.7500000000D+00  0.1000000000D+01
 ****
      9 0
 S   3 1.00       0.000000000000
      0.3386500000D+02  0.2549381454D-01
      0.5094790000D+01  0.1903731086D+00
      0.1158790000D+01  0.8521614860D+00
 S   1 1.00       0.000000000000
      0.3258400000D+00  0.1000000000D+01
 S   1 1.00       0.000000000000
      0.1027410000D+00  0.1000000000D+01
 P   1 1.00       0.000000000000
      0.7500000000D+00  0.1000000000D+01
 ****
     10 0
 S   3 1.00       0.000000000000
      0.3386500000D+02  0.2549381454D-01
      0.5094790000D+01  0.1903731086D+00
      0.1158790000D+01  0.8521614860D+00
 S   1 1.00       0.000000000000
      0.3258400000D+00  0.1000000000D+01
 S   1 1.00       0.000000000000
      0.1027410000D+00  0.1000000000D+01
 P   1 1.00       0.000000000000
      0.7500000000D+00  0.1000000000D+01
 ****
     11 0
 S   3 1.00       0.000000000000
      0.3386500000D+02  0.2549381454D-01
      0.5094790000D+01  0.1903731086D+00
      0.1158790000D+01  0.8521614860D+00
 S   1 1.00       0.000000000000
      0.3258400000D+00  0.1000000000D+01
 S   1 1.00       0.000000000000
      0.1027410000D+00  0.1000000000D+01
 P   1 1.00       0.000000000000
      0.7500000000D+00  0.1000000000D+01
 ****
     12 0
 S   3 1.00       0.000000000000
      0.3386500000D+02  0.2549381454D-01
      0.5094790000D+01  0.1903731086D+00
      0.1158790000D+01  0.8521614860D+00
 S   1 1.00       0.000000000000
      0.3258400000D+00  0.1000000000D+01
 S   1 1.00       0.000000000000
      0.1027410000D+00  0.1000000000D+01
 P   1 1.00       0.000000000000
      0.7500000000D+00  0.1000000000D+01
 ****
     13 0
 S   3 1.00       0.000000000000
      0.3386500000D+02  0.2549381454D-01
      0.5094790000D+01  0.1903731086D+00
      0.1158790000D+01  0.8521614860D+00
 S   1 1.00       0.000000000000
      0.3258400000D+00  0.1000000000D+01
 S   1 1.00       0.000000000000
      0.1027410000D+00  0.1000000000D+01
 P   1 1.00       0.000000000000
      0.7500000000D+00  0.1000000000D+01
 ****
     14 0
 S   3 1.00       0.000000000000
      0.3386500000D+02  0.2549381454D-01
      0.5094790000D+01  0.1903731086D+00
      0.1158790000D+01  0.8521614860D+00
 S   1 1.00       0.000000000000
      0.3258400000D+00  0.1000000000D+01
 S   1 1.00       0.000000000000
      0.1027410000D+00  0.1000000000D+01
 P   1 1.00       0.000000000000
      0.7500000000D+00  0.1000000000D+01
 ****

   180 basis functions,   280 primitive gaussians,   186 cartesian basis functions
    25 alpha electrons       25 beta electrons
       nuclear repulsion energy       260.5025949416 Hartrees.
 IExCor= 1614 DFT=T Ex+Corr=B971 ExCW=0 ScaHFX=  0.210000
 ScaDFX=  1.000000  1.000000  1.000000  1.000000 ScalE2=  1.000000  1.000000
 IRadAn=      5 IRanWt=     -1 IRanGd=            0 ICorTp=0 IEmpDi=  4
 NAtoms=   14 NActive=   14 NUniq=   14 SFac= 1.00D+00 NAtFMM=   60 NAOKFM=F Big=F
 Integral buffers will be    131072 words long.
 Raffenetti 2 integral format.
 Two-electron integral symmetry is turned off.
 Leave Link  301 at Sun Apr 26 13:12:31 2015, MaxMem=   524288000 cpu:         0.4
 (Enter /opt/g09/l302.exe)
 NPDir=0 NMtPBC=     1 NCelOv=     1 NCel=       1 NClECP=     1 NCelD=      1
         NCelK=      1 NCelE2=     1 NClLst=     1 CellRange=     0.0.
 One-electron integrals computed using PRISM.
 NBasis=   180 RedAO= T EigKep=  4.77D-05  NBF=   180
 NBsUse=   180 1.00D-06 EigRej= -1.00D+00 NBFU=   180
 Precomputing XC quadrature grid using
 IXCGrd= 4 IRadAn=           5 IRanWt=          -1 IRanGd=           0 AccXCQ= 0.00D+00.
 Generated NRdTot=       0 NPtTot=           0 NUsed=           0 NTot=          32
 NSgBfM=   186   186   186   186   186 MxSgAt=    14 MxSgA2=    14.
 Leave Link  302 at Sun Apr 26 13:12:32 2015, MaxMem=   524288000 cpu:         2.0
 (Enter /opt/g09/l303.exe)
 DipDrv:  MaxL=1.
 Leave Link  303 at Sun Apr 26 13:12:32 2015, MaxMem=   524288000 cpu:         0.3
 (Enter /opt/g09/l401.exe)
 ExpMin= 4.38D-02 ExpMax= 8.59D+03 ExpMxC= 1.30D+03 IAcc=3 IRadAn=         5 AccDes= 0.00D+00
 Harris functional with IExCor= 1614 and IRadAn=       5 diagonalized for initial guess.
 HarFok:  IExCor= 1614 AccDes= 0.00D+00 IRadAn=         5 IDoV= 1 UseB2=F ITyADJ=14
 ICtDFT=  3500011 ScaDFX=  1.000000  1.000000  1.000000  1.000000
 FoFCou: FMM=F IPFlag=           0 FMFlag=      100000 FMFlg1=           0
         NFxFlg=           0 DoJE=T BraDBF=F KetDBF=T FulRan=T
         wScrn=  0.000000 ICntrl=     500 IOpCl=  0 I1Cent=   200000004 NGrid=           0
         NMat0=    1 NMatS0=      1 NMatT0=    0 NMatD0=    1 NMtDS0=    0 NMtDT0=    0
 Symmetry not used in FoFCou.
 Harris En= -335.863556103909    
 JPrj=0 DoOrth=F DoCkMO=T.
 Mixing orbitals, IMix= 1 IMixAn=  0 NRI=1 NE=   25 Coef=  7.07106781D-01  7.07106781D-01
 Leave Link  401 at Sun Apr 26 13:12:33 2015, MaxMem=   524288000 cpu:        10.1
 (Enter /opt/g09/l502.exe)
 Closed shell SCF:
 Using DIIS extrapolation, IDIIS=  1040.
 Two-electron integral symmetry not used.
 Keep R1 ints in memory in canonical form, NReq=136084673.
 IVT=      124970 IEndB=      124970 NGot=   524288000 MDV=   391472836
 LenX=   391472836 LenY=   391437799
 Requested convergence on RMS density matrix=1.00D-08 within 128 cycles.
 Requested convergence on MAX density matrix=1.00D-06.
 Requested convergence on             energy=1.00D-06.
 No special actions if energy rises.
 FoFCou: FMM=F IPFlag=           0 FMFlag=           0 FMFlg1=           0
         NFxFlg=           0 DoJE=F BraDBF=F KetDBF=F FulRan=T
         wScrn=  0.000000 ICntrl=     600 IOpCl=  0 I1Cent=           0 NGrid=           0
         NMat0=    1 NMatS0=  16290 NMatT0=    0 NMatD0=    1 NMtDS0=    0 NMtDT0=    0
 Symmetry not used in FoFCou.

 Cycle   1  Pass 1  IDiag  1:
 E= -344.430429373255    
 DIIS: error= 1.04D-01 at cycle   1 NSaved=   1.
 NSaved= 1 IEnMin= 1 EnMin= -344.430429373255     IErMin= 1 ErrMin= 1.04D-01
 ErrMax= 1.04D-01  0.00D+00 EMaxC= 1.00D-01 BMatC= 6.92D-01 BMatP= 6.92D-01
 IDIUse=3 WtCom= 0.00D+00 WtEn= 1.00D+00
 Coeff-Com:  0.100D+01
 Coeff-En:   0.100D+01
 Coeff:      0.100D+01
 Gap=     0.032 Goal=   None    Shift=    0.000
 GapD=    0.032 DampG=0.250 DampE=0.250 DampFc=0.2500 IDamp=-1.
 Damping current iteration by 2.50D-01
 RMSDP=3.61D-02 MaxDP=2.13D+00              OVMax= 6.02D-01

 Cycle   2  Pass 1  IDiag  1:
 E= -344.533490771860     Delta-E=       -0.103061398605 Rises=F Damp=T
 DIIS: error= 7.50D-02 at cycle   2 NSaved=   2.
 NSaved= 2 IEnMin= 2 EnMin= -344.533490771860     IErMin= 2 ErrMin= 7.50D-02
 ErrMax= 7.50D-02  0.00D+00 EMaxC= 1.00D-01 BMatC= 3.17D-01 BMatP= 6.92D-01
 IDIUse=3 WtCom= 2.50D-01 WtEn= 7.50D-01
 Coeff-Com: -0.141D+01 0.241D+01
 Coeff-En:   0.000D+00 0.100D+01
 Coeff:     -0.354D+00 0.135D+01
 Gap=     0.284 Goal=   None    Shift=    0.000
 RMSDP=2.70D-02 MaxDP=1.54D+00 DE=-1.03D-01 OVMax= 6.61D-02

 Cycle   3  Pass 1  IDiag  1:
 E= -344.782059849132     Delta-E=       -0.248569077272 Rises=F Damp=F
 DIIS: error= 6.66D-03 at cycle   3 NSaved=   3.
 NSaved= 3 IEnMin= 3 EnMin= -344.782059849132     IErMin= 3 ErrMin= 6.66D-03
 ErrMax= 6.66D-03  0.00D+00 EMaxC= 1.00D-01 BMatC= 1.19D-02 BMatP= 3.17D-01
 IDIUse=3 WtCom= 9.33D-01 WtEn= 6.66D-02
 Coeff-Com:  0.450D+00-0.559D+00 0.111D+01
 Coeff-En:   0.000D+00 0.000D+00 0.100D+01
 Coeff:      0.420D+00-0.522D+00 0.110D+01
 Gap=     0.261 Goal=   None    Shift=    0.000
 RMSDP=1.60D-03 MaxDP=1.06D-01 DE=-2.49D-01 OVMax= 4.04D-02

 Cycle   4  Pass 1  IDiag  1:
 E= -344.789940684745     Delta-E=       -0.007880835613 Rises=F Damp=F
 DIIS: error= 4.02D-03 at cycle   4 NSaved=   4.
 NSaved= 4 IEnMin= 4 EnMin= -344.789940684745     IErMin= 4 ErrMin= 4.02D-03
 ErrMax= 4.02D-03  0.00D+00 EMaxC= 1.00D-01 BMatC= 2.97D-03 BMatP= 1.19D-02
 IDIUse=3 WtCom= 9.60D-01 WtEn= 4.02D-02
 Coeff-Com:  0.163D+00-0.207D+00 0.494D+00 0.551D+00
 Coeff-En:   0.000D+00 0.000D+00 0.110D+00 0.890D+00
 Coeff:      0.156D+00-0.199D+00 0.478D+00 0.564D+00
 Gap=     0.271 Goal=   None    Shift=    0.000
 RMSDP=4.89D-04 MaxDP=3.35D-02 DE=-7.88D-03 OVMax= 1.17D-02

 Cycle   5  Pass 1  IDiag  1:
 E= -344.792509370254     Delta-E=       -0.002568685509 Rises=F Damp=F
 DIIS: error= 1.04D-03 at cycle   5 NSaved=   5.
 NSaved= 5 IEnMin= 5 EnMin= -344.792509370254     IErMin= 5 ErrMin= 1.04D-03
 ErrMax= 1.04D-03  0.00D+00 EMaxC= 1.00D-01 BMatC= 2.59D-04 BMatP= 2.97D-03
 IDIUse=3 WtCom= 9.90D-01 WtEn= 1.04D-02
 Coeff-Com: -0.223D-01 0.318D-01 0.570D-01 0.233D+00 0.700D+00
 Coeff-En:   0.000D+00 0.000D+00 0.000D+00 0.000D+00 0.100D+01
 Coeff:     -0.220D-01 0.315D-01 0.564D-01 0.231D+00 0.703D+00
 Gap=     0.270 Goal=   None    Shift=    0.000
 RMSDP=1.15D-04 MaxDP=3.43D-03 DE=-2.57D-03 OVMax= 3.10D-03

 Cycle   6  Pass 1  IDiag  1:
 E= -344.792712858866     Delta-E=       -0.000203488612 Rises=F Damp=F
 DIIS: error= 2.94D-04 at cycle   6 NSaved=   6.
 NSaved= 6 IEnMin= 6 EnMin= -344.792712858866     IErMin= 6 ErrMin= 2.94D-04
 ErrMax= 2.94D-04  0.00D+00 EMaxC= 1.00D-01 BMatC= 1.76D-05 BMatP= 2.59D-04
 IDIUse=3 WtCom= 9.97D-01 WtEn= 2.94D-03
 Coeff-Com: -0.195D-01 0.269D-01 0.606D-02 0.928D-01 0.360D+00 0.534D+00
 Coeff-En:   0.000D+00 0.000D+00 0.000D+00 0.000D+00 0.000D+00 0.100D+01
 Coeff:     -0.195D-01 0.268D-01 0.604D-02 0.925D-01 0.359D+00 0.535D+00
 Gap=     0.270 Goal=   None    Shift=    0.000
 RMSDP=4.68D-05 MaxDP=3.35D-03 DE=-2.03D-04 OVMax= 9.00D-04

 Cycle   7  Pass 1  IDiag  1:
 E= -344.792724655479     Delta-E=       -0.000011796612 Rises=F Damp=F
 DIIS: error= 8.44D-05 at cycle   7 NSaved=   7.
 NSaved= 7 IEnMin= 7 EnMin= -344.792724655479     IErMin= 7 ErrMin= 8.44D-05
 ErrMax= 8.44D-05  0.00D+00 EMaxC= 1.00D-01 BMatC= 1.89D-06 BMatP= 1.76D-05
 IDIUse=1 WtCom= 1.00D+00 WtEn= 0.00D+00
 Coeff-Com: -0.392D-02 0.513D-02-0.681D-02 0.148D-02 0.427D-01 0.262D+00
 Coeff-Com:  0.699D+00
 Coeff:     -0.392D-02 0.513D-02-0.681D-02 0.148D-02 0.427D-01 0.262D+00
 Coeff:      0.699D+00
 Gap=     0.270 Goal=   None    Shift=    0.000
 RMSDP=1.53D-05 MaxDP=7.35D-04 DE=-1.18D-05 OVMax= 4.96D-04

 Cycle   8  Pass 1  IDiag  1:
 E= -344.792726122074     Delta-E=       -0.000001466596 Rises=F Damp=F
 DIIS: error= 2.31D-05 at cycle   8 NSaved=   8.
 NSaved= 8 IEnMin= 8 EnMin= -344.792726122074     IErMin= 8 ErrMin= 2.31D-05
 ErrMax= 2.31D-05  0.00D+00 EMaxC= 1.00D-01 BMatC= 1.02D-07 BMatP= 1.89D-06
 IDIUse=1 WtCom= 1.00D+00 WtEn= 0.00D+00
 Coeff-Com: -0.179D-04-0.106D-03-0.341D-02-0.612D-02-0.815D-02 0.713D-01
 Coeff-Com:  0.284D+00 0.662D+00
 Coeff:     -0.179D-04-0.106D-03-0.341D-02-0.612D-02-0.815D-02 0.713D-01
 Coeff:      0.284D+00 0.662D+00
 Gap=     0.270 Goal=   None    Shift=    0.000
 RMSDP=4.21D-06 MaxDP=1.88D-04 DE=-1.47D-06 OVMax= 1.06D-04

 Cycle   9  Pass 1  IDiag  1:
 E= -344.792726211776     Delta-E=       -0.000000089702 Rises=F Damp=F
 DIIS: error= 5.43D-06 at cycle   9 NSaved=   9.
 NSaved= 9 IEnMin= 9 EnMin= -344.792726211776     IErMin= 9 ErrMin= 5.43D-06
 ErrMax= 5.43D-06  0.00D+00 EMaxC= 1.00D-01 BMatC= 7.08D-09 BMatP= 1.02D-07
 IDIUse=1 WtCom= 1.00D+00 WtEn= 0.00D+00
 Coeff-Com:  0.233D-03-0.357D-03-0.888D-03-0.219D-02-0.477D-02 0.134D-01
 Coeff-Com:  0.734D-01 0.272D+00 0.649D+00
 Coeff:      0.233D-03-0.357D-03-0.888D-03-0.219D-02-0.477D-02 0.134D-01
 Coeff:      0.734D-01 0.272D+00 0.649D+00
 Gap=     0.270 Goal=   None    Shift=    0.000
 RMSDP=1.12D-06 MaxDP=8.27D-05 DE=-8.97D-08 OVMax= 2.05D-05

 Cycle  10  Pass 1  IDiag  1:
 E= -344.792726217742     Delta-E=       -0.000000005966 Rises=F Damp=F
 DIIS: error= 1.39D-06 at cycle  10 NSaved=  10.
 NSaved=10 IEnMin=10 EnMin= -344.792726217742     IErMin=10 ErrMin= 1.39D-06
 ErrMax= 1.39D-06  0.00D+00 EMaxC= 1.00D-01 BMatC= 5.05D-10 BMatP= 7.08D-09
 IDIUse=1 WtCom= 1.00D+00 WtEn= 0.00D+00
 Coeff-Com:  0.503D-04-0.714D-04-0.342D-04-0.151D-03-0.569D-03-0.174D-02
 Coeff-Com:  0.117D-02 0.356D-01 0.240D+00 0.726D+00
 Coeff:      0.503D-04-0.714D-04-0.342D-04-0.151D-03-0.569D-03-0.174D-02
 Coeff:      0.117D-02 0.356D-01 0.240D+00 0.726D+00
 Gap=     0.270 Goal=   None    Shift=    0.000
 RMSDP=4.55D-07 MaxDP=2.95D-05 DE=-5.97D-09 OVMax= 5.08D-06

 Cycle  11  Pass 1  IDiag  1:
 E= -344.792726218168     Delta-E=       -0.000000000426 Rises=F Damp=F
 DIIS: error= 6.25D-07 at cycle  11 NSaved=  11.
 NSaved=11 IEnMin=11 EnMin= -344.792726218168     IErMin=11 ErrMin= 6.25D-07
 ErrMax= 6.25D-07  0.00D+00 EMaxC= 1.00D-01 BMatC= 6.90D-11 BMatP= 5.05D-10
 IDIUse=1 WtCom= 1.00D+00 WtEn= 0.00D+00
 Coeff-Com:  0.103D-04-0.135D-04 0.294D-04 0.415D-04-0.406D-04-0.166D-02
 Coeff-Com: -0.361D-02 0.255D-02 0.841D-01 0.369D+00 0.550D+00
 Coeff:      0.103D-04-0.135D-04 0.294D-04 0.415D-04-0.406D-04-0.166D-02
 Coeff:     -0.361D-02 0.255D-02 0.841D-01 0.369D+00 0.550D+00
 Gap=     0.270 Goal=   None    Shift=    0.000
 RMSDP=5.82D-08 MaxDP=1.63D-06 DE=-4.26D-10 OVMax= 1.70D-06

 Cycle  12  Pass 1  IDiag  1:
 E= -344.792726218213     Delta-E=       -0.000000000044 Rises=F Damp=F
 DIIS: error= 1.85D-07 at cycle  12 NSaved=  12.
 NSaved=12 IEnMin=12 EnMin= -344.792726218213     IErMin=12 ErrMin= 1.85D-07
 ErrMax= 1.85D-07  0.00D+00 EMaxC= 1.00D-01 BMatC= 7.67D-12 BMatP= 6.90D-11
 IDIUse=1 WtCom= 1.00D+00 WtEn= 0.00D+00
 Coeff-Com: -0.147D-05 0.270D-05 0.202D-04 0.416D-04 0.447D-04-0.675D-03
 Coeff-Com: -0.221D-02-0.343D-02 0.137D-01 0.107D+00 0.292D+00 0.593D+00
 Coeff:     -0.147D-05 0.270D-05 0.202D-04 0.416D-04 0.447D-04-0.675D-03
 Coeff:     -0.221D-02-0.343D-02 0.137D-01 0.107D+00 0.292D+00 0.593D+00
 Gap=     0.270 Goal=   None    Shift=    0.000
 RMSDP=3.29D-08 MaxDP=1.87D-06 DE=-4.45D-11 OVMax= 4.60D-07

 Cycle  13  Pass 1  IDiag  1:
 E= -344.792726218221     Delta-E=       -0.000000000008 Rises=F Damp=F
 DIIS: error= 1.48D-08 at cycle  13 NSaved=  13.
 NSaved=13 IEnMin=13 EnMin= -344.792726218221     IErMin=13 ErrMin= 1.48D-08
 ErrMax= 1.48D-08  0.00D+00 EMaxC= 1.00D-01 BMatC= 5.86D-14 BMatP= 7.67D-12
 IDIUse=1 WtCom= 1.00D+00 WtEn= 0.00D+00
 Coeff-Com: -0.414D-06 0.681D-06 0.254D-05 0.547D-05 0.528D-05-0.571D-04
 Coeff-Com: -0.270D-03-0.633D-03-0.525D-03 0.599D-02 0.329D-01 0.117D+00
 Coeff-Com:  0.846D+00
 Coeff:     -0.414D-06 0.681D-06 0.254D-05 0.547D-05 0.528D-05-0.571D-04
 Coeff:     -0.270D-03-0.633D-03-0.525D-03 0.599D-02 0.329D-01 0.117D+00
 Coeff:      0.846D+00
 Gap=     0.270 Goal=   None    Shift=    0.000
 RMSDP=4.41D-09 MaxDP=1.12D-07 DE=-8.19D-12 OVMax= 6.12D-08

 SCF Done:  E(RB971) =  -344.792726218     A.U. after   13 cycles
            NFock= 13  Conv=0.44D-08     -V/T= 2.0031
 KE= 3.437101111492D+02 PE=-1.330716728249D+03 EE= 3.817112959400D+02
 Leave Link  502 at Sun Apr 26 13:13:02 2015, MaxMem=   524288000 cpu:       181.0
 (Enter /opt/g09/l801.exe)
 DoSCS=F DFT=T ScalE2(SS,OS)=  1.000000  1.000000
 Range of M.O.s used for correlation:     1   180
 NBasis=   180 NAE=    25 NBE=    25 NFC=     0 NFV=     0
 NROrb=    180 NOA=    25 NOB=    25 NVA=   155 NVB=   155

 **** Warning!!: The largest alpha MO coefficient is  0.44889229D+02

 Leave Link  801 at Sun Apr 26 13:13:03 2015, MaxMem=   524288000 cpu:         0.3
 (Enter /opt/g09/l1101.exe)
 Using compressed storage, NAtomX=    14.
 Will process     15 centers per pass.
 Leave Link 1101 at Sun Apr 26 13:13:03 2015, MaxMem=   524288000 cpu:         2.0
 (Enter /opt/g09/l1102.exe)
 Symmetrizing basis deriv contribution to polar:
 IMax=3 JMax=2 DiffMx= 0.00D+00
 Leave Link 1102 at Sun Apr 26 13:13:03 2015, MaxMem=   524288000 cpu:         0.3
 (Enter /opt/g09/l1110.exe)
 Forming Gx(P) for the SCF density, NAtomX=    14.
 Integral derivatives from FoFJK, PRISM(SPDF).
 Do as many integral derivatives as possible in FoFJK.
 G2DrvN: MDV=     524287784.
 G2DrvN: will do    15 centers at a time, making    1 passes.
 Calling FoFCou, ICntrl=  3107 FMM=F I1Cent=   0 AccDes= 0.00D+00.
 FoFJK:  IHMeth= 1 ICntrl=    3107 DoSepK=F KAlg= 0 I1Cent=   0 FoldK=F
 IRaf=         0 NMat=   1 IRICut=       1 DoRegI=T DoRafI=F ISym2E= 0.
 FoFCou: FMM=F IPFlag=           0 FMFlag=      100000 FMFlg1=           0
         NFxFlg=           0 DoJE=F BraDBF=F KetDBF=F FulRan=T
         wScrn=  0.000000 ICntrl=    3107 IOpCl=  0 I1Cent=           0 NGrid=           0
         NMat0=    1 NMatS0=      1 NMatT0=    0 NMatD0=    1 NMtDS0=    0 NMtDT0=    0
 Symmetry not used in FoFCou.
 End of G2Drv F.D. properties file   721 does not exist.
 End of G2Drv F.D. properties file   722 does not exist.
 End of G2Drv F.D. properties file   788 does not exist.
 Leave Link 1110 at Sun Apr 26 13:13:59 2015, MaxMem=   524288000 cpu:       451.2
 (Enter /opt/g09/l1002.exe)
 Minotr:  Closed shell wavefunction.
          IDoAtm=11111111111111
          Direct CPHF calculation.
          Differentiating once with respect to electric field.
                with respect to dipole field.
          Differentiating once with respect to nuclear coordinates.
          Requested convergence is 1.0D-08 RMS, and 1.0D-07 maximum.
          Secondary convergence is 1.0D-12 RMS, and 1.0D-12 maximum.
          NewPWx=T KeepS1=F KeepF1=F KeepIn=T MapXYZ=F SortEE=F KeepMc=T.
          MDV=     524287676 using IRadAn=       1.
 Generate precomputed XC quadrature information.
 Keep R1 ints in memory in canonical form, NReq=135965776.
 FoFCou: FMM=F IPFlag=           0 FMFlag=           0 FMFlg1=           0
         NFxFlg=           0 DoJE=F BraDBF=F KetDBF=F FulRan=T
         wScrn=  0.000000 ICntrl=     600 IOpCl=  0 I1Cent=           0 NGrid=           0
         NMat0=    1 NMatS0=  16290 NMatT0=    0 NMatD0=    1 NMtDS0=    0 NMtDT0=    0
 Symmetry not used in FoFCou.
          Solving linear equations simultaneously, MaxMat=       0.
          There are    45 degrees of freedom in the 1st order CPHF.  IDoFFX=6 NUNeed=     3.
     42 vectors produced by pass  0 Test12= 8.61D-15 2.22D-09 XBig12= 2.97D+01 1.37D+00.
 AX will form    42 AO Fock derivatives at one time.
     42 vectors produced by pass  1 Test12= 8.61D-15 2.22D-09 XBig12= 3.09D+00 2.64D-01.
     42 vectors produced by pass  2 Test12= 8.61D-15 2.22D-09 XBig12= 4.56D-02 3.31D-02.
     42 vectors produced by pass  3 Test12= 8.61D-15 2.22D-09 XBig12= 1.24D-04 1.87D-03.
     42 vectors produced by pass  4 Test12= 8.61D-15 2.22D-09 XBig12= 2.54D-07 8.81D-05.
     30 vectors produced by pass  5 Test12= 8.61D-15 2.22D-09 XBig12= 3.20D-10 2.70D-06.
      4 vectors produced by pass  6 Test12= 8.61D-15 2.22D-09 XBig12= 3.20D-13 6.95D-08.
      2 vectors produced by pass  7 Test12= 8.61D-15 2.22D-09 XBig12= 3.28D-16 2.77D-09.
 InvSVY:  IOpt=1 It=  1 EMax= 1.15D-14
 Solved reduced A of dimension   246 with    45 vectors.
 FullF1:  Do perturbations    1 to     3.
 Isotropic polarizability for W=    0.000000       51.47 Bohr**3.
 End of Minotr F.D. properties file   721 does not exist.
 End of Minotr F.D. properties file   722 does not exist.
 End of Minotr F.D. properties file   788 does not exist.
 Leave Link 1002 at Sun Apr 26 13:15:01 2015, MaxMem=   524288000 cpu:       486.7
 (Enter /opt/g09/l701.exe)
 Compute integral second derivatives.
 ... and contract with generalized density number  0.
 Leave Link  701 at Sun Apr 26 13:15:02 2015, MaxMem=   524288000 cpu:         2.3
 (Enter /opt/g09/l702.exe)
 L702 exits ... SP integral derivatives will be done elsewhere.
 Leave Link  702 at Sun Apr 26 13:15:02 2015, MaxMem=   524288000 cpu:         0.3
 (Enter /opt/g09/l703.exe)
 Compute integral second derivatives, UseDBF=F ICtDFT=           0.
 Integral derivatives from FoFJK, PRISM(SPDF).
 Calling FoFJK, ICntrl=    100127 FMM=F ISym2X=0 I1Cent= 0 IOpClX= 0 NMat=1 NMatS=1 NMatT=0.
 FoFJK:  IHMeth= 1 ICntrl=  100127 DoSepK=F KAlg= 0 I1Cent=   0 FoldK=F
 IRaf=         0 NMat=   1 IRICut=       1 DoRegI=T DoRafI=F ISym2E= 0.
 FoFCou: FMM=F IPFlag=           0 FMFlag=      100000 FMFlg1=         800
         NFxFlg=           0 DoJE=F BraDBF=F KetDBF=F FulRan=T
         wScrn=  0.000000 ICntrl=  100127 IOpCl=  0 I1Cent=           0 NGrid=           0
         NMat0=    1 NMatS0=      1 NMatT0=    0 NMatD0=    1 NMtDS0=    0 NMtDT0=    0
 Symmetry not used in FoFCou.
 Leave Link  703 at Sun Apr 26 13:16:41 2015, MaxMem=   524288000 cpu:       791.0
 (Enter /opt/g09/l716.exe)
 Dipole        =-4.18743418D-01 2.14188904D-01-6.93693585D-01
 Polarizability= 5.33421845D+01-7.20589454D-01 5.10952433D+01
                -4.08219236D+00 1.39523040D+00 4.99870714D+01
 -------------------------------------------------------------------
 Center     Atomic                   Forces (Hartrees/Bohr)
 Number     Number              X              Y              Z
 -------------------------------------------------------------------
      1        6          -0.000002890    0.000003073    0.000000839
      2        6          -0.000001498   -0.000002613    0.000005187
      3        6           0.000008126    0.000005487    0.000001854
      4        8          -0.000001629    0.000001350   -0.000005915
      5        8           0.000004266   -0.000002802   -0.000001724
      6        8          -0.000002968   -0.000004465    0.000000187
      7        1           0.000000388    0.000001043    0.000000284
      8        1           0.000000219    0.000003902    0.000001576
      9        1          -0.000000679    0.000002703   -0.000002566
     10        1          -0.000003506   -0.000003430   -0.000001777
     11        1          -0.000002577   -0.000000723   -0.000001011
     12        1           0.000002470   -0.000003028    0.000002807
     13        1           0.000000577   -0.000000101    0.000000254
     14        1          -0.000000300   -0.000000397    0.000000006
 -------------------------------------------------------------------
 Cartesian Forces:  Max     0.000008126 RMS     0.000002862
 FormGI is forming the generalized inverse of G from B-inverse, IUseBI=4.
 Leave Link  716 at Sun Apr 26 13:16:41 2015, MaxMem=   524288000 cpu:         0.3
 (Enter /opt/g09/l103.exe)

 GradGradGradGradGradGradGradGradGradGradGradGradGradGradGradGradGradGrad
 Berny optimization.
 Red2BG is reusing G-inverse.
 Internal  Forces:  Max     0.000006221 RMS     0.000001521
 Search for a local minimum.
 Step number   1 out of a maximum of   71
 All quantities printed in internal units (Hartrees-Bohrs-Radians)
 RMS Force = .15212D-05 SwitMx=.10000D-02 MixMth= 2
 Mixed Optimization -- En-DIIS/RFO-DIIS
 Second derivative matrix not updated -- analytic derivatives used.
 ITU=  0
     Eigenvalues ---    0.00218   0.00334   0.00436   0.00852   0.01050
     Eigenvalues ---    0.03610   0.04793   0.04931   0.05142   0.05498
     Eigenvalues ---    0.06255   0.06465   0.10106   0.10297   0.12015
     Eigenvalues ---    0.13077   0.13564   0.16318   0.16486   0.17990
     Eigenvalues ---    0.19322   0.22056   0.23738   0.27907   0.29592
     Eigenvalues ---    0.30326   0.30660   0.32524   0.33067   0.33409
     Eigenvalues ---    0.35068   0.38135   0.39331   0.52202   0.52724
     Eigenvalues ---    0.52789
 RFO step:  Lambda= 0.00000000D+00 EMin= 2.18121825D-03
 Linear search not attempted -- first point.
 Iteration  1 RMS(Cart)=  0.00002282 RMS(Int)=  0.00000000
 Iteration  2 RMS(Cart)=  0.00000000 RMS(Int)=  0.00000000
 ITry= 1 IFail=0 DXMaxC= 6.43D-05 DCOld= 1.00D+10 DXMaxT= 3.00D-01 DXLimC= 3.00D+00 Rises=F
 Variable       Old X    -DE/DX   Delta X   Delta X   Delta X     New X
                                 (Linear)    (Quad)   (Total)
    R1        2.88912   0.00000   0.00000   0.00001   0.00001   2.88912
    R2        2.67470   0.00001   0.00000   0.00002   0.00002   2.67472
    R3        2.08815   0.00000   0.00000   0.00000   0.00000   2.08814
    R4        2.06898   0.00000   0.00000   0.00001   0.00001   2.06899
    R5        2.88917   0.00000   0.00000   0.00000   0.00000   2.88916
    R6        2.72080   0.00000   0.00000   0.00000   0.00000   2.72080
    R7        2.06985   0.00000   0.00000  -0.00001  -0.00001   2.06984
    R8        2.67468   0.00000   0.00000   0.00001   0.00001   2.67470
    R9        2.06900   0.00000   0.00000  -0.00001  -0.00001   2.06899
   R10        2.08814   0.00000   0.00000   0.00000   0.00000   2.08815
   R11        1.82393   0.00000   0.00000  -0.00001  -0.00001   1.82392
   R12        1.82191   0.00000   0.00000   0.00000   0.00000   1.82192
   R13        1.82191   0.00000   0.00000   0.00000   0.00000   1.82190
    A1        1.95124   0.00000   0.00000  -0.00001  -0.00001   1.95123
    A2        1.91023   0.00000   0.00000   0.00001   0.00001   1.91023
    A3        1.92324   0.00000   0.00000   0.00000   0.00000   1.92324
    A4        1.93366   0.00000   0.00000  -0.00001  -0.00001   1.93365
    A5        1.86539   0.00000   0.00000   0.00001   0.00001   1.86540
    A6        1.87835   0.00000   0.00000   0.00000   0.00000   1.87835
    A7        1.98590   0.00000   0.00000   0.00000   0.00000   1.98590
    A8        1.92097   0.00000   0.00000   0.00000   0.00000   1.92097
    A9        1.90499   0.00000   0.00000  -0.00001  -0.00001   1.90498
   A10        1.92103   0.00000   0.00000   0.00001   0.00001   1.92104
   A11        1.90496   0.00000   0.00000  -0.00001  -0.00001   1.90495
   A12        1.81837   0.00000   0.00000   0.00001   0.00001   1.81838
   A13        1.95128   0.00000   0.00000  -0.00001  -0.00001   1.95127
   A14        1.92314   0.00000   0.00000   0.00001   0.00001   1.92315
   A15        1.91028   0.00000   0.00000   0.00000   0.00000   1.91029
   A16        1.86538   0.00000   0.00000   0.00000   0.00000   1.86538
   A17        1.93368   0.00000   0.00000  -0.00001  -0.00001   1.93367
   A18        1.87833   0.00000   0.00000   0.00001   0.00001   1.87834
   A19        1.88722   0.00000   0.00000   0.00002   0.00002   1.88724
   A20        1.87003   0.00000   0.00000  -0.00001  -0.00001   1.87002
   A21        1.87002   0.00000   0.00000   0.00000   0.00000   1.87002
    D1        3.10319   0.00000   0.00000   0.00003   0.00003   3.10322
    D2       -1.01463   0.00000   0.00000   0.00004   0.00004  -1.01459
    D3        0.97093   0.00000   0.00000   0.00004   0.00004   0.97097
    D4       -1.03087   0.00000   0.00000   0.00002   0.00002  -1.03085
    D5        1.13450   0.00000   0.00000   0.00003   0.00003   1.13452
    D6        3.12006   0.00000   0.00000   0.00003   0.00003   3.12009
    D7        1.03142   0.00000   0.00000   0.00002   0.00002   1.03144
    D8       -3.08640   0.00000   0.00000   0.00003   0.00003  -3.08638
    D9       -1.10084   0.00000   0.00000   0.00003   0.00003  -1.10081
   D10        0.75426   0.00000   0.00000  -0.00008  -0.00008   0.75418
   D11       -1.38152   0.00000   0.00000  -0.00008  -0.00008  -1.38160
   D12        2.86008   0.00000   0.00000  -0.00008  -0.00008   2.86000
   D13       -3.10314   0.00000   0.00000   0.00002   0.00002  -3.10313
   D14       -1.03142   0.00000   0.00000   0.00002   0.00002  -1.03140
   D15        1.03082   0.00000   0.00000   0.00004   0.00004   1.03085
   D16        1.01472   0.00000   0.00000   0.00001   0.00001   1.01473
   D17        3.08644   0.00000   0.00000   0.00002   0.00002   3.08645
   D18       -1.13451   0.00000   0.00000   0.00003   0.00003  -1.13448
   D19       -0.97086   0.00000   0.00000   0.00000   0.00000  -0.97086
   D20        1.10086   0.00000   0.00000   0.00000   0.00000   1.10086
   D21       -3.12009   0.00000   0.00000   0.00002   0.00002  -3.12007
   D22       -1.10101   0.00000   0.00000   0.00001   0.00001  -1.10100
   D23        1.10146   0.00000   0.00000   0.00002   0.00002   1.10148
   D24       -3.14137   0.00000   0.00000   0.00002   0.00002  -3.14136
   D25       -0.75469   0.00000   0.00000  -0.00004  -0.00004  -0.75472
   D26       -2.86040   0.00000   0.00000  -0.00004  -0.00004  -2.86044
   D27        1.38121   0.00000   0.00000  -0.00005  -0.00005   1.38117
         Item               Value     Threshold  Converged?
 Maximum Force            0.000006     0.000015     YES
 RMS     Force            0.000002     0.000010     YES
 Maximum Displacement     0.000064     0.000060     NO 
 RMS     Displacement     0.000023     0.000040     YES
 Predicted change in Energy=-3.254923D-10
 Lowest energy point so far.  Saving SCF results.
 GradGradGradGradGradGradGradGradGradGradGradGradGradGradGradGradGradGrad

 Leave Link  103 at Sun Apr 26 13:16:41 2015, MaxMem=   524288000 cpu:         0.1
 (Enter /opt/g09/l202.exe)
                          Input orientation:                          
 ---------------------------------------------------------------------
 Center     Atomic      Atomic             Coordinates (Angstroms)
 Number     Number       Type             X           Y           Z
 ---------------------------------------------------------------------
      1          6           0        3.318226    1.758048    0.958460
      2          6           0        2.259260    1.299425    1.961286
      3          6           0        1.289472    2.403843    2.382290
      4          8           0        1.529780    0.177201    1.430760
      5          8           0        4.222356    0.717825    0.636214
      6          8           0        0.359894    1.947420    3.347115
      7          1           0        2.821825    2.142013    0.048966
      8          1           0        3.911411    2.574906    1.382244
      9          1           0        2.756712    0.899616    2.851454
     10          1           0        1.837891    3.234947    2.837507
     11          1           0        0.768334    2.795707    1.490166
     12          1           0        1.065559    0.469102    0.636493
     13          1           0        3.700636   -0.082844    0.508703
     14          1           0        0.060344    1.076102    3.063242
 ---------------------------------------------------------------------
                    Distance matrix (angstroms):
                    1          2          3          4          5
     1  C    0.000000
     2  C    1.528857   0.000000
     3  C    2.561285   1.528879   0.000000
     4  O    2.433246   1.439787   2.433329   0.000000
     5  O    1.415400   2.438815   3.806999   2.858941   0.000000
     6  O    3.807002   2.438854   1.415389   2.859147   4.876422
     7  H    1.104998   2.164117   2.803758   2.727494   2.081984
     8  H    1.094860   2.166044   2.811390   3.379869   2.025339
     9  H    2.153051   1.095310   2.153045   2.011372   2.662413
    10  H    2.811305   2.166001   1.094861   3.379893   4.106977
    11  H    2.803818   2.164180   1.105001   2.727618   4.120327
    12  H    2.615255   1.967088   2.615562   0.965177   3.166580
    13  H    1.933236   2.469459   3.937975   2.372853   0.964116
    14  H    3.938141   2.469699   1.933222   2.373239   4.831270
                    6          7          8          9         10
     6  O    0.000000
     7  H    4.120286   0.000000
     8  H    4.107034   1.775450   0.000000
     9  H    2.662388   3.066223   2.509682   0.000000
    10  H    2.025315   3.152553   2.617810   2.509620   0.000000
    11  H    2.081987   2.592528   3.152671   3.066253   1.775447
    12  H    3.167152   2.495655   3.617932   2.819821   3.618129
    13  H    4.831056   2.435909   2.805554   2.710111   4.461040
    14  H    0.964110   4.224667   4.461265   2.710425   2.805573
                   11         12         13         14
    11  H    0.000000
    12  H    2.496035   0.000000
    13  H    4.224656   2.695293   0.000000
    14  H    2.435746   2.695926   4.595710   0.000000
 Symmetry turned off by external request.
 Stoichiometry    C3H8O3
 Framework group  C1[X(C3H8O3)]
 Deg. of freedom    36
 Full point group                 C1      NOp   1
 Rotational constants (GHZ):      7.8916939      1.9544568      1.6874037
 Leave Link  202 at Sun Apr 26 13:16:41 2015, MaxMem=   524288000 cpu:         0.0
 (Enter /opt/g09/l301.exe)
 Standard basis: 6-311+G(d,p) (5D, 7F)
 Ernie: Thresh=  0.10000D-02 Tol=  0.10000D-05 Strict=F.
   180 basis functions,   280 primitive gaussians,   186 cartesian basis functions
    25 alpha electrons       25 beta electrons
       nuclear repulsion energy       260.5023740196 Hartrees.
 IExCor= 1614 DFT=T Ex+Corr=B971 ExCW=0 ScaHFX=  0.210000
 ScaDFX=  1.000000  1.000000  1.000000  1.000000 ScalE2=  1.000000  1.000000
 IRadAn=      5 IRanWt=     -1 IRanGd=            0 ICorTp=0 IEmpDi=  4
 NAtoms=   14 NActive=   14 NUniq=   14 SFac= 1.00D+00 NAtFMM=   60 NAOKFM=F Big=F
 Integral buffers will be    131072 words long.
 Raffenetti 2 integral format.
 Two-electron integral symmetry is turned off.
 Leave Link  301 at Sun Apr 26 13:16:41 2015, MaxMem=   524288000 cpu:         0.4
 (Enter /opt/g09/l302.exe)
 NPDir=0 NMtPBC=     1 NCelOv=     1 NCel=       1 NClECP=     1 NCelD=      1
         NCelK=      1 NCelE2=     1 NClLst=     1 CellRange=     0.0.
 One-electron integrals computed using PRISM.
 NBasis=   180 RedAO= T EigKep=  4.77D-05  NBF=   180
 NBsUse=   180 1.00D-06 EigRej= -1.00D+00 NBFU=   180
 Precomputing XC quadrature grid using
 IXCGrd= 4 IRadAn=           5 IRanWt=          -1 IRanGd=           0 AccXCQ= 0.00D+00.
 Generated NRdTot=       0 NPtTot=           0 NUsed=           0 NTot=          32
 NSgBfM=   186   186   186   186   186 MxSgAt=    14 MxSgA2=    14.
 Leave Link  302 at Sun Apr 26 13:16:42 2015, MaxMem=   524288000 cpu:         2.0
 (Enter /opt/g09/l303.exe)
 DipDrv:  MaxL=1.
 Leave Link  303 at Sun Apr 26 13:16:42 2015, MaxMem=   524288000 cpu:         0.3
 (Enter /opt/g09/l401.exe)
 Initial guess from the checkpoint file:  "/scratch/pb556/g09_run/add_hco//Gau-24500.chk"
 B after Tr=    -0.000016    0.000015    0.000004
         Rot=    1.000000   -0.000002   -0.000002    0.000001 Ang=   0.00 deg.
 Guess basis will be translated and rotated to current coordinates.
 JPrj=2 DoOrth=T DoCkMO=T.
 Leave Link  401 at Sun Apr 26 13:16:42 2015, MaxMem=   524288000 cpu:         1.0
 (Enter /opt/g09/l502.exe)
 Closed shell SCF:
 Using DIIS extrapolation, IDIIS=  1040.
 Two-electron integral symmetry not used.
 Keep R1 ints in memory in canonical form, NReq=136084673.
 IVT=      124970 IEndB=      124970 NGot=   524288000 MDV=   391472836
 LenX=   391472836 LenY=   391437799
 Requested convergence on RMS density matrix=1.00D-08 within 128 cycles.
 Requested convergence on MAX density matrix=1.00D-06.
 Requested convergence on             energy=1.00D-06.
 No special actions if energy rises.
 FoFCou: FMM=F IPFlag=           0 FMFlag=           0 FMFlg1=           0
         NFxFlg=           0 DoJE=F BraDBF=F KetDBF=F FulRan=T
         wScrn=  0.000000 ICntrl=     600 IOpCl=  0 I1Cent=           0 NGrid=           0
         NMat0=    1 NMatS0=  16290 NMatT0=    0 NMatD0=    1 NMtDS0=    0 NMtDT0=    0
 Symmetry not used in FoFCou.

 Cycle   1  Pass 1  IDiag  1:
 E= -344.792726217248    
 DIIS: error= 1.92D-06 at cycle   1 NSaved=   1.
 NSaved= 1 IEnMin= 1 EnMin= -344.792726217248     IErMin= 1 ErrMin= 1.92D-06
 ErrMax= 1.92D-06  0.00D+00 EMaxC= 1.00D-01 BMatC= 9.57D-10 BMatP= 9.57D-10
 IDIUse=1 WtCom= 1.00D+00 WtEn= 0.00D+00
 Coeff-Com:  0.100D+01
 Coeff:      0.100D+01
 Gap=     0.500 Goal=   None    Shift=    0.000
 RMSDP=5.06D-07 MaxDP=1.55D-05              OVMax= 1.05D-05

 Cycle   2  Pass 1  IDiag  1:
 E= -344.792726218527     Delta-E=       -0.000000001279 Rises=F Damp=F
 DIIS: error= 2.66D-07 at cycle   2 NSaved=   2.
 NSaved= 2 IEnMin= 2 EnMin= -344.792726218527     IErMin= 2 ErrMin= 2.66D-07
 ErrMax= 2.66D-07  0.00D+00 EMaxC= 1.00D-01 BMatC= 2.18D-11 BMatP= 9.57D-10
 IDIUse=1 WtCom= 1.00D+00 WtEn= 0.00D+00
 Coeff-Com: -0.378D-01 0.104D+01
 Coeff:     -0.378D-01 0.104D+01
 Gap=     0.270 Goal=   None    Shift=    0.000
 RMSDP=6.10D-08 MaxDP=1.31D-06 DE=-1.28D-09 OVMax= 1.52D-06

 Cycle   3  Pass 1  IDiag  1:
 E= -344.792726218528     Delta-E=       -0.000000000001 Rises=F Damp=F
 DIIS: error= 2.11D-07 at cycle   3 NSaved=   3.
 NSaved= 3 IEnMin= 3 EnMin= -344.792726218528     IErMin= 3 ErrMin= 2.11D-07
 ErrMax= 2.11D-07  0.00D+00 EMaxC= 1.00D-01 BMatC= 1.84D-11 BMatP= 2.18D-11
 IDIUse=1 WtCom= 1.00D+00 WtEn= 0.00D+00
 Coeff-Com: -0.326D-01 0.512D+00 0.520D+00
 Coeff:     -0.326D-01 0.512D+00 0.520D+00
 Gap=     0.270 Goal=   None    Shift=    0.000
 RMSDP=3.13D-08 MaxDP=1.03D-06 DE=-1.02D-12 OVMax= 8.16D-07

 Cycle   4  Pass 1  IDiag  1:
 E= -344.792726218542     Delta-E=       -0.000000000014 Rises=F Damp=F
 DIIS: error= 8.03D-08 at cycle   4 NSaved=   4.
 NSaved= 4 IEnMin= 4 EnMin= -344.792726218542     IErMin= 4 ErrMin= 8.03D-08
 ErrMax= 8.03D-08  0.00D+00 EMaxC= 1.00D-01 BMatC= 1.62D-12 BMatP= 1.84D-11
 IDIUse=1 WtCom= 1.00D+00 WtEn= 0.00D+00
 Coeff-Com: -0.990D-02 0.140D+00 0.266D+00 0.603D+00
 Coeff:     -0.990D-02 0.140D+00 0.266D+00 0.603D+00
 Gap=     0.270 Goal=   None    Shift=    0.000
 RMSDP=1.02D-08 MaxDP=4.90D-07 DE=-1.43D-11 OVMax= 2.31D-07

 Cycle   5  Pass 1  IDiag  1:
 E= -344.792726218549     Delta-E=       -0.000000000007 Rises=F Damp=F
 DIIS: error= 1.82D-08 at cycle   5 NSaved=   5.
 NSaved= 5 IEnMin= 5 EnMin= -344.792726218549     IErMin= 5 ErrMin= 1.82D-08
 ErrMax= 1.82D-08  0.00D+00 EMaxC= 1.00D-01 BMatC= 1.20D-13 BMatP= 1.62D-12
 IDIUse=1 WtCom= 1.00D+00 WtEn= 0.00D+00
 Coeff-Com: -0.297D-02 0.377D-01 0.106D+00 0.315D+00 0.544D+00
 Coeff:     -0.297D-02 0.377D-01 0.106D+00 0.315D+00 0.544D+00
 Gap=     0.270 Goal=   None    Shift=    0.000
 RMSDP=1.98D-09 MaxDP=6.00D-08 DE=-6.82D-12 OVMax= 5.95D-08

 SCF Done:  E(RB971) =  -344.792726219     A.U. after    5 cycles
            NFock=  5  Conv=0.20D-08     -V/T= 2.0031
 KE= 3.437100932379D+02 PE=-1.330716274917D+03 EE= 3.817110814410D+02
 Leave Link  502 at Sun Apr 26 13:16:55 2015, MaxMem=   524288000 cpu:        81.7
 (Enter /opt/g09/l801.exe)
 DoSCS=F DFT=T ScalE2(SS,OS)=  1.000000  1.000000
 Range of M.O.s used for correlation:     1   180
 NBasis=   180 NAE=    25 NBE=    25 NFC=     0 NFV=     0
 NROrb=    180 NOA=    25 NOB=    25 NVA=   155 NVB=   155

 **** Warning!!: The largest alpha MO coefficient is  0.44889880D+02

 Leave Link  801 at Sun Apr 26 13:16:55 2015, MaxMem=   524288000 cpu:         0.3
 (Enter /opt/g09/l1101.exe)
 Using compressed storage, NAtomX=    14.
 Will process     15 centers per pass.
 Leave Link 1101 at Sun Apr 26 13:16:55 2015, MaxMem=   524288000 cpu:         2.0
 (Enter /opt/g09/l1102.exe)
 Symmetrizing basis deriv contribution to polar:
 IMax=3 JMax=2 DiffMx= 0.00D+00
 Leave Link 1102 at Sun Apr 26 13:16:55 2015, MaxMem=   524288000 cpu:         0.3
 (Enter /opt/g09/l1110.exe)
 Forming Gx(P) for the SCF density, NAtomX=    14.
 Integral derivatives from FoFJK, PRISM(SPDF).
 Do as many integral derivatives as possible in FoFJK.
 G2DrvN: MDV=     524287784.
 G2DrvN: will do    15 centers at a time, making    1 passes.
 Calling FoFCou, ICntrl=  3107 FMM=F I1Cent=   0 AccDes= 0.00D+00.
 FoFJK:  IHMeth= 1 ICntrl=    3107 DoSepK=F KAlg= 0 I1Cent=   0 FoldK=F
 IRaf=         0 NMat=   1 IRICut=       1 DoRegI=T DoRafI=F ISym2E= 0.
 FoFCou: FMM=F IPFlag=           0 FMFlag=      100000 FMFlg1=           0
         NFxFlg=           0 DoJE=F BraDBF=F KetDBF=F FulRan=T
         wScrn=  0.000000 ICntrl=    3107 IOpCl=  0 I1Cent=           0 NGrid=           0
         NMat0=    1 NMatS0=      1 NMatT0=    0 NMatD0=    1 NMtDS0=    0 NMtDT0=    0
 Symmetry not used in FoFCou.
 End of G2Drv F.D. properties file   721 does not exist.
 End of G2Drv F.D. properties file   722 does not exist.
 End of G2Drv F.D. properties file   788 does not exist.
 Leave Link 1110 at Sun Apr 26 13:17:52 2015, MaxMem=   524288000 cpu:       450.9
 (Enter /opt/g09/l1002.exe)
 Minotr:  Closed shell wavefunction.
          IDoAtm=11111111111111
          Direct CPHF calculation.
          Differentiating once with respect to electric field.
                with respect to dipole field.
          Differentiating once with respect to nuclear coordinates.
          Requested convergence is 1.0D-08 RMS, and 1.0D-07 maximum.
          Secondary convergence is 1.0D-12 RMS, and 1.0D-12 maximum.
          NewPWx=T KeepS1=F KeepF1=F KeepIn=T MapXYZ=F SortEE=F KeepMc=T.
          MDV=     524287676 using IRadAn=       1.
 Generate precomputed XC quadrature information.
 Keep R1 ints in memory in canonical form, NReq=135965776.
 FoFCou: FMM=F IPFlag=           0 FMFlag=           0 FMFlg1=           0
         NFxFlg=           0 DoJE=F BraDBF=F KetDBF=F FulRan=T
         wScrn=  0.000000 ICntrl=     600 IOpCl=  0 I1Cent=           0 NGrid=           0
         NMat0=    1 NMatS0=  16290 NMatT0=    0 NMatD0=    1 NMtDS0=    0 NMtDT0=    0
 Symmetry not used in FoFCou.
          Solving linear equations simultaneously, MaxMat=       0.
          There are    45 degrees of freedom in the 1st order CPHF.  IDoFFX=6 NUNeed=     3.
     42 vectors produced by pass  0 Test12= 8.61D-15 2.22D-09 XBig12= 2.97D+01 1.37D+00.
 AX will form    42 AO Fock derivatives at one time.
     42 vectors produced by pass  1 Test12= 8.61D-15 2.22D-09 XBig12= 3.09D+00 2.64D-01.
     42 vectors produced by pass  2 Test12= 8.61D-15 2.22D-09 XBig12= 4.56D-02 3.31D-02.
     42 vectors produced by pass  3 Test12= 8.61D-15 2.22D-09 XBig12= 1.24D-04 1.87D-03.
     42 vectors produced by pass  4 Test12= 8.61D-15 2.22D-09 XBig12= 2.54D-07 8.81D-05.
     30 vectors produced by pass  5 Test12= 8.61D-15 2.22D-09 XBig12= 3.20D-10 2.70D-06.
      4 vectors produced by pass  6 Test12= 8.61D-15 2.22D-09 XBig12= 3.20D-13 6.95D-08.
      2 vectors produced by pass  7 Test12= 8.61D-15 2.22D-09 XBig12= 3.28D-16 2.77D-09.
 InvSVY:  IOpt=1 It=  1 EMax= 6.22D-15
 Solved reduced A of dimension   246 with    45 vectors.
 FullF1:  Do perturbations    1 to     3.
 Isotropic polarizability for W=    0.000000       51.47 Bohr**3.
 End of Minotr F.D. properties file   721 does not exist.
 End of Minotr F.D. properties file   722 does not exist.
 End of Minotr F.D. properties file   788 does not exist.
 Leave Link 1002 at Sun Apr 26 13:18:53 2015, MaxMem=   524288000 cpu:       486.5
 (Enter /opt/g09/l701.exe)
 Compute integral second derivatives.
 ... and contract with generalized density number  0.
 Leave Link  701 at Sun Apr 26 13:18:53 2015, MaxMem=   524288000 cpu:         2.3
 (Enter /opt/g09/l702.exe)
 L702 exits ... SP integral derivatives will be done elsewhere.
 Leave Link  702 at Sun Apr 26 13:18:53 2015, MaxMem=   524288000 cpu:         0.3
 (Enter /opt/g09/l703.exe)
 Compute integral second derivatives, UseDBF=F ICtDFT=           0.
 Integral derivatives from FoFJK, PRISM(SPDF).
 Calling FoFJK, ICntrl=    100127 FMM=F ISym2X=0 I1Cent= 0 IOpClX= 0 NMat=1 NMatS=1 NMatT=0.
 FoFJK:  IHMeth= 1 ICntrl=  100127 DoSepK=F KAlg= 0 I1Cent=   0 FoldK=F
 IRaf=         0 NMat=   1 IRICut=       1 DoRegI=T DoRafI=F ISym2E= 0.
 FoFCou: FMM=F IPFlag=           0 FMFlag=      100000 FMFlg1=         800
         NFxFlg=           0 DoJE=F BraDBF=F KetDBF=F FulRan=T
         wScrn=  0.000000 ICntrl=  100127 IOpCl=  0 I1Cent=           0 NGrid=           0
         NMat0=    1 NMatS0=      1 NMatT0=    0 NMatD0=    1 NMtDS0=    0 NMtDT0=    0
 Symmetry not used in FoFCou.
 Leave Link  703 at Sun Apr 26 13:20:32 2015, MaxMem=   524288000 cpu:       791.1
 (Enter /opt/g09/l716.exe)
 Dipole        =-4.18778677D-01 2.14215974D-01-6.93661368D-01
 Polarizability= 5.33422048D+01-7.20582102D-01 5.10952437D+01
                -4.08231848D+00 1.39526050D+00 4.99870576D+01
 -------------------------------------------------------------------
 Center     Atomic                   Forces (Hartrees/Bohr)
 Number     Number              X              Y              Z
 -------------------------------------------------------------------
      1        6           0.000000048    0.000000732    0.000000329
      2        6           0.000000051    0.000000004    0.000000002
      3        6          -0.000000624   -0.000000585   -0.000000028
      4        8           0.000000764   -0.000000260   -0.000000406
      5        8           0.000000665    0.000001281    0.000000329
      6        8          -0.000000607   -0.000001246   -0.000000348
      7        1           0.000000063    0.000000676    0.000000270
      8        1          -0.000000464    0.000000985    0.000000623
      9        1           0.000000048    0.000000097    0.000000014
     10        1          -0.000001150   -0.000000376    0.000000264
     11        1          -0.000000607   -0.000000669   -0.000000073
     12        1           0.000000789   -0.000000348   -0.000000458
     13        1           0.000001109    0.000001040    0.000000053
     14        1          -0.000000084   -0.000001332   -0.000000572
 -------------------------------------------------------------------
 Cartesian Forces:  Max     0.000001332 RMS     0.000000623
 FormGI is forming the generalized inverse of G from B-inverse, IUseBI=4.
 Leave Link  716 at Sun Apr 26 13:20:33 2015, MaxMem=   524288000 cpu:         0.3
 (Enter /opt/g09/l103.exe)

 GradGradGradGradGradGradGradGradGradGradGradGradGradGradGradGradGradGrad
 Berny optimization.
 Using GEDIIS/GDIIS optimizer.
 Red2BG is reusing G-inverse.
 Internal  Forces:  Max     0.000000012 RMS     0.000000004
 Search for a local minimum.
 Step number   2 out of a maximum of   71
 All quantities printed in internal units (Hartrees-Bohrs-Radians)
 RMS Force = .38107D-08 SwitMx=.10000D-02 MixMth= 2
 Mixed Optimization -- En-DIIS/RFO-DIIS
 Swapping is turned off.
 Second derivative matrix not updated -- analytic derivatives used.
 DE= -3.28D-10 DEPred=-3.25D-10 R= 1.01D+00
 Trust test= 1.01D+00 RLast= 1.97D-04 DXMaxT set to 3.00D-01
 ITU=  0  0
     Eigenvalues ---    0.00218   0.00334   0.00436   0.00852   0.01050
     Eigenvalues ---    0.03610   0.04793   0.04931   0.05142   0.05498
     Eigenvalues ---    0.06255   0.06465   0.10106   0.10297   0.12015
     Eigenvalues ---    0.13077   0.13564   0.16318   0.16485   0.17990
     Eigenvalues ---    0.19322   0.22056   0.23738   0.27907   0.29592
     Eigenvalues ---    0.30325   0.30660   0.32525   0.33068   0.33409
     Eigenvalues ---    0.35069   0.38134   0.39330   0.52204   0.52723
     Eigenvalues ---    0.52790
 En-DIIS/RFO-DIIS IScMMF=        0 using points:     2    1
 RFO step:  Lambda=-2.02141887D-15.
 NNeg= 0 NP= 2 Switch=  2.50D-03 Rises=F DC=  3.28D-10 SmlDif=  1.00D-05
 RMS Error=  0.1258924436D-07 NUsed= 2 EDIIS=F
 DidBck=F Rises=F RFO-DIIS coefs:    0.99898    0.00102
 Iteration  1 RMS(Cart)=  0.00000015 RMS(Int)=  0.00000000
 ITry= 1 IFail=0 DXMaxC= 4.50D-07 DCOld= 1.00D+10 DXMaxT= 3.00D-01 DXLimC= 3.00D+00 Rises=F
 Variable       Old X    -DE/DX   Delta X   Delta X   Delta X     New X
                                 (Linear)    (Quad)   (Total)
    R1        2.88912   0.00000   0.00000   0.00000   0.00000   2.88912
    R2        2.67472   0.00000   0.00000   0.00000   0.00000   2.67472
    R3        2.08814   0.00000   0.00000   0.00000   0.00000   2.08814
    R4        2.06899   0.00000   0.00000   0.00000   0.00000   2.06899
    R5        2.88916   0.00000   0.00000   0.00000   0.00000   2.88916
    R6        2.72080   0.00000   0.00000   0.00000   0.00000   2.72080
    R7        2.06984   0.00000   0.00000   0.00000   0.00000   2.06984
    R8        2.67470   0.00000   0.00000   0.00000   0.00000   2.67470
    R9        2.06899   0.00000   0.00000   0.00000   0.00000   2.06899
   R10        2.08815   0.00000   0.00000   0.00000   0.00000   2.08815
   R11        1.82392   0.00000   0.00000   0.00000   0.00000   1.82392
   R12        1.82192   0.00000   0.00000   0.00000   0.00000   1.82192
   R13        1.82190   0.00000   0.00000   0.00000   0.00000   1.82190
    A1        1.95123   0.00000   0.00000   0.00000   0.00000   1.95123
    A2        1.91023   0.00000   0.00000   0.00000   0.00000   1.91023
    A3        1.92324   0.00000   0.00000   0.00000   0.00000   1.92324
    A4        1.93365   0.00000   0.00000   0.00000   0.00000   1.93365
    A5        1.86540   0.00000   0.00000   0.00000   0.00000   1.86540
    A6        1.87835   0.00000   0.00000   0.00000   0.00000   1.87835
    A7        1.98590   0.00000   0.00000   0.00000   0.00000   1.98590
    A8        1.92097   0.00000   0.00000   0.00000   0.00000   1.92097
    A9        1.90498   0.00000   0.00000   0.00000   0.00000   1.90498
   A10        1.92104   0.00000   0.00000   0.00000   0.00000   1.92104
   A11        1.90495   0.00000   0.00000   0.00000   0.00000   1.90495
   A12        1.81838   0.00000   0.00000   0.00000   0.00000   1.81838
   A13        1.95127   0.00000   0.00000   0.00000   0.00000   1.95127
   A14        1.92315   0.00000   0.00000   0.00000   0.00000   1.92315
   A15        1.91029   0.00000   0.00000   0.00000   0.00000   1.91029
   A16        1.86538   0.00000   0.00000   0.00000   0.00000   1.86538
   A17        1.93367   0.00000   0.00000   0.00000   0.00000   1.93367
   A18        1.87834   0.00000   0.00000   0.00000   0.00000   1.87834
   A19        1.88724   0.00000   0.00000   0.00000   0.00000   1.88724
   A20        1.87002   0.00000   0.00000   0.00000   0.00000   1.87002
   A21        1.87002   0.00000   0.00000   0.00000   0.00000   1.87002
    D1        3.10322   0.00000   0.00000   0.00000   0.00000   3.10322
    D2       -1.01459   0.00000   0.00000   0.00000   0.00000  -1.01459
    D3        0.97097   0.00000   0.00000   0.00000   0.00000   0.97097
    D4       -1.03085   0.00000   0.00000   0.00000   0.00000  -1.03085
    D5        1.13452   0.00000   0.00000   0.00000   0.00000   1.13452
    D6        3.12009   0.00000   0.00000   0.00000   0.00000   3.12009
    D7        1.03144   0.00000   0.00000   0.00000   0.00000   1.03144
    D8       -3.08638   0.00000   0.00000   0.00000   0.00000  -3.08638
    D9       -1.10081   0.00000   0.00000   0.00000   0.00000  -1.10081
   D10        0.75418   0.00000   0.00000   0.00000   0.00000   0.75419
   D11       -1.38160   0.00000   0.00000   0.00000   0.00000  -1.38160
   D12        2.86000   0.00000   0.00000   0.00000   0.00000   2.86000
   D13       -3.10313   0.00000   0.00000   0.00000   0.00000  -3.10313
   D14       -1.03140   0.00000   0.00000   0.00000   0.00000  -1.03140
   D15        1.03085   0.00000   0.00000   0.00000   0.00000   1.03085
   D16        1.01473   0.00000   0.00000   0.00000   0.00000   1.01473
   D17        3.08645   0.00000   0.00000   0.00000   0.00000   3.08645
   D18       -1.13448   0.00000   0.00000   0.00000   0.00000  -1.13448
   D19       -0.97086   0.00000   0.00000   0.00000   0.00000  -0.97086
   D20        1.10086   0.00000   0.00000   0.00000   0.00000   1.10086
   D21       -3.12007   0.00000   0.00000   0.00000   0.00000  -3.12007
   D22       -1.10100   0.00000   0.00000   0.00000   0.00000  -1.10100
   D23        1.10148   0.00000   0.00000   0.00000   0.00000   1.10148
   D24       -3.14136   0.00000   0.00000   0.00000   0.00000  -3.14136
   D25       -0.75472   0.00000   0.00000   0.00000   0.00000  -0.75472
   D26       -2.86044   0.00000   0.00000   0.00000   0.00000  -2.86044
   D27        1.38117   0.00000   0.00000   0.00000   0.00000   1.38117
         Item               Value     Threshold  Converged?
 Maximum Force            0.000000     0.000015     YES
 RMS     Force            0.000000     0.000010     YES
 Maximum Displacement     0.000000     0.000060     YES
 RMS     Displacement     0.000000     0.000040     YES
 Predicted change in Energy=-4.833912D-15
 Optimization completed.
    -- Stationary point found.
                           ----------------------------
                           !   Optimized Parameters   !
                           ! (Angstroms and Degrees)  !
 --------------------------                            --------------------------
 ! Name  Definition              Value          Derivative Info.                !
 --------------------------------------------------------------------------------
 ! R1    R(1,2)                  1.5289         -DE/DX =    0.0                 !
 ! R2    R(1,5)                  1.4154         -DE/DX =    0.0                 !
 ! R3    R(1,7)                  1.105          -DE/DX =    0.0                 !
 ! R4    R(1,8)                  1.0949         -DE/DX =    0.0                 !
 ! R5    R(2,3)                  1.5289         -DE/DX =    0.0                 !
 ! R6    R(2,4)                  1.4398         -DE/DX =    0.0                 !
 ! R7    R(2,9)                  1.0953         -DE/DX =    0.0                 !
 ! R8    R(3,6)                  1.4154         -DE/DX =    0.0                 !
 ! R9    R(3,10)                 1.0949         -DE/DX =    0.0                 !
 ! R10   R(3,11)                 1.105          -DE/DX =    0.0                 !
 ! R11   R(4,12)                 0.9652         -DE/DX =    0.0                 !
 ! R12   R(5,13)                 0.9641         -DE/DX =    0.0                 !
 ! R13   R(6,14)                 0.9641         -DE/DX =    0.0                 !
 ! A1    A(2,1,5)              111.7974         -DE/DX =    0.0                 !
 ! A2    A(2,1,7)              109.4482         -DE/DX =    0.0                 !
 ! A3    A(2,1,8)              110.1935         -DE/DX =    0.0                 !
 ! A4    A(5,1,7)              110.7901         -DE/DX =    0.0                 !
 ! A5    A(5,1,8)              106.8795         -DE/DX =    0.0                 !
 ! A6    A(7,1,8)              107.6213         -DE/DX =    0.0                 !
 ! A7    A(1,2,3)              113.7837         -DE/DX =    0.0                 !
 ! A8    A(1,2,4)              110.0632         -DE/DX =    0.0                 !
 ! A9    A(1,2,9)              109.1474         -DE/DX =    0.0                 !
 ! A10   A(3,2,4)              110.0676         -DE/DX =    0.0                 !
 ! A11   A(3,2,9)              109.1455         -DE/DX =    0.0                 !
 ! A12   A(4,2,9)              104.1854         -DE/DX =    0.0                 !
 ! A13   A(2,3,6)              111.7995         -DE/DX =    0.0                 !
 ! A14   A(2,3,10)             110.1886         -DE/DX =    0.0                 !
 ! A15   A(2,3,11)             109.4515         -DE/DX =    0.0                 !
 ! A16   A(6,3,10)             106.8784         -DE/DX =    0.0                 !
 ! A17   A(6,3,11)             110.791          -DE/DX =    0.0                 !
 ! A18   A(10,3,11)            107.6208         -DE/DX =    0.0                 !
 ! A19   A(2,4,12)             108.1308         -DE/DX =    0.0                 !
 ! A20   A(1,5,13)             107.1444         -DE/DX =    0.0                 !
 ! A21   A(3,6,14)             107.1445         -DE/DX =    0.0                 !
 ! D1    D(5,1,2,3)            177.8014         -DE/DX =    0.0                 !
 ! D2    D(5,1,2,4)            -58.132          -DE/DX =    0.0                 !
 ! D3    D(5,1,2,9)             55.6326         -DE/DX =    0.0                 !
 ! D4    D(7,1,2,3)            -59.0632         -DE/DX =    0.0                 !
 ! D5    D(7,1,2,4)             65.0034         -DE/DX =    0.0                 !
 ! D6    D(7,1,2,9)            178.768          -DE/DX =    0.0                 !
 ! D7    D(8,1,2,3)             59.097          -DE/DX =    0.0                 !
 ! D8    D(8,1,2,4)           -176.8363         -DE/DX =    0.0                 !
 ! D9    D(8,1,2,9)            -63.0717         -DE/DX =    0.0                 !
 ! D10   D(2,1,5,13)            43.2116         -DE/DX =    0.0                 !
 ! D11   D(7,1,5,13)           -79.1597         -DE/DX =    0.0                 !
 ! D12   D(8,1,5,13)           163.866          -DE/DX =    0.0                 !
 ! D13   D(1,2,3,6)           -177.7961         -DE/DX =    0.0                 !
 ! D14   D(1,2,3,10)           -59.0951         -DE/DX =    0.0                 !
 ! D15   D(1,2,3,11)            59.0636         -DE/DX =    0.0                 !
 ! D16   D(4,2,3,6)             58.1396         -DE/DX =    0.0                 !
 ! D17   D(4,2,3,10)           176.8406         -DE/DX =    0.0                 !
 ! D18   D(4,2,3,11)           -65.0007         -DE/DX =    0.0                 !
 ! D19   D(9,2,3,6)            -55.6263         -DE/DX =    0.0                 !
 ! D20   D(9,2,3,10)            63.0747         -DE/DX =    0.0                 !
 ! D21   D(9,2,3,11)          -178.7666         -DE/DX =    0.0                 !
 ! D22   D(1,2,4,12)           -63.0829         -DE/DX =    0.0                 !
 ! D23   D(3,2,4,12)            63.1102         -DE/DX =    0.0                 !
 ! D24   D(9,2,4,12)          -179.9865         -DE/DX =    0.0                 !
 ! D25   D(2,3,6,14)           -43.2425         -DE/DX =    0.0                 !
 ! D26   D(10,3,6,14)         -163.8914         -DE/DX =    0.0                 !
 ! D27   D(11,3,6,14)           79.1351         -DE/DX =    0.0                 !
 --------------------------------------------------------------------------------
 Lowest energy point so far.  Saving SCF results.
[...]
 ! D15   D(1,2,3,11)            59.0636         -DE/DX =    0.0                 !
 ! D16   D(4,2,3,6)             58.1396         -DE/DX =    0.0                 !
 ! D17   D(4,2,3,10)           176.8406         -DE/DX =    0.0                 !
 ! D18   D(4,2,3,11)           -65.0007         -DE/DX =    0.0                 !
 ! D19   D(9,2,3,6)            -55.6263         -DE/DX =    0.0                 !
 ! D20   D(9,2,3,10)            63.0747         -DE/DX =    0.0                 !
 ! D21   D(9,2,3,11)          -178.7666         -DE/DX =    0.0                 !
 ! D22   D(1,2,4,12)           -63.0829         -DE/DX =    0.0                 !
 ! D23   D(3,2,4,12)            63.1102         -DE/DX =    0.0                 !
 ! D24   D(9,2,4,12)          -179.9865         -DE/DX =    0.0                 !
 ! D25   D(2,3,6,14)           -43.2425         -DE/DX =    0.0                 !
 ! D26   D(10,3,6,14)         -163.8914         -DE/DX =    0.0                 !
 ! D27   D(11,3,6,14)           79.1351         -DE/DX =    0.0                 !
 --------------------------------------------------------------------------------
 GradGradGradGradGradGradGradGradGradGradGradGradGradGradGradGradGradGrad

 Leave Link  103 at Sun Apr 26 13:24:17 2015, MaxMem=   524288000 cpu:         0.1
 (Enter /opt/g09/l9999.exe)
 1\1\GINC-BELLINI\Freq\RB971\6-311+G(d,p)\C3H8O3\PB556\26-Apr-2015\0\\#
 P Geom=AllCheck Guess=TCheck SCRF=Check GenChk RB971/6-311+G(d,p) Freq
 \\freq-b971_56-81-5.gau\\0,1\C,3.3182260196,1.7580481377,0.9584599187\
 C,2.2592600706,1.2994246805,1.9612862795\C,1.2894724525,2.4038427317,2
 .3822895903\O,1.529779685,0.177200887,1.4307599793\O,4.2223556343,0.71
 78247707,0.6362143943\O,0.3598941586,1.9474196799,3.3471147932\H,2.821
 825498,2.1420125892,0.0489658419\H,3.9114110867,2.5749059349,1.3822437
 513\H,2.7567119985,0.8996164207,2.8514537311\H,1.8378913854,3.23494686
 22,2.8375067598\H,0.7683339957,2.7957068736,1.4901663851\H,1.065558536
 ,0.4691016299,0.6364933732\H,3.7006359587,-0.0828435238,0.5087030349\H
 ,0.0603435204,1.0761023258,3.0632421673\\Version=ES64L-G09RevD.01\HF=-
 344.7927262\RMSD=8.822e-10\RMSF=6.225e-07\ZeroPoint=0.1187056\Thermal=
 0.1259072\Dipole=-0.4187786,0.2142158,-0.6936614\DipoleDeriv=0.4742339
 ,-0.276802,-0.0304803,-0.3021806,0.5103758,0.0278099,-0.0244558,0.0804
 886,0.3723418,0.3553213,0.2295388,0.0607888,0.1773599,0.5012159,0.1341
 874,0.084383,0.2084782,0.2654301,0.510393,0.0990522,-0.1960576,0.06061
 51,0.2715921,-0.1821198,-0.1731726,-0.1440169,0.5750976,-0.6960043,-0.
 1990847,0.1034774,-0.1566934,-0.7042387,-0.2236989,0.084325,-0.2838476
 ,-0.4560017,-0.616689,0.2723478,0.143971,0.3265177,-0.6643613,-0.07993
 58,0.1860744,-0.0718734,-0.5862646,-0.7890924,-0.0030501,0.2857295,-0.
 0427484,-0.4415695,0.1727523,0.2370107,0.1438247,-0.6364201,-0.0886433
 ,0.0998941,-0.0929035,0.0603475,-0.0295302,0.0372248,-0.0818038,0.0870
 988,-0.1183514,-0.0098216,-0.0802919,-0.0229376,-0.0346729,-0.0632017,
 -0.0526752,-0.0327138,-0.0741344,0.0280133,0.0021486,0.0015689,-0.0405
 706,0.0193461,-0.0173777,0.0491291,-0.0486084,0.0237833,-0.0500012,-0.
 0094484,-0.0798767,-0.0121012,-0.0756317,-0.0503264,-0.0274839,-0.0249
 232,-0.076999,0.0147258,-0.035604,0.0427289,-0.0584808,0.0108279,-0.00
 09157,0.0492051,-0.0371365,0.1011544,-0.1999345,0.3107547,0.006508,-0.
 0617153,0.0439896,0.2089422,0.1275882,-0.0787192,0.0741517,0.2060585,0
 .2402707,-0.0864291,-0.0471513,-0.0359441,0.2526344,-0.0062377,-0.0597
 413,0.0043577,0.336035,0.3521808,-0.0261042,-0.0315685,-0.0511327,0.22
 67607,-0.0257453,-0.0305183,-0.0724659,0.2492715\Polar=53.3422055,-0.7
 205818,51.0952443,-4.0823186,1.3952606,49.9870581\PG=C01 [X(C3H8O3)]\N
 Imag=0\\0.50084133,0.04893837,0.55768300,0.06796353,0.01947524,0.52497
 887,-0.11243566,-0.01018055,0.04512858,0.50051768,-0.02674722,-0.08540
 968,0.03838630,-0.04732377,0.47096270,0.03743421,0.02061820,-0.1323790
 6,0.04834698,-0.06259225,0.57900593,-0.01543348,0.01362715,0.00648854,
 -0.11761382,0.06441119,0.00979747,0.50192994,0.00189593,0.01551340,-0.
 00205195,0.04026428,-0.12996851,-0.00482856,0.05233050,0.55547410,0.01
 679476,-0.01356047,-0.00594999,0.00552609,-0.01183054,-0.08267238,0.06
 673056,0.01728222,0.52625507,-0.02462486,-0.03037842,-0.01324865,-0.09
 505134,-0.05686103,-0.02659583,0.00425491,0.00796373,0.00587377,0.2406
 6160,-0.01914576,-0.02854495,-0.01310904,-0.03059108,-0.15146671,-0.00
 134064,-0.02500055,-0.04179480,-0.02152405,0.02096561,0.30352821,0.009
 82168,0.01209744,0.00636987,-0.03849615,-0.03873644,-0.09559952,-0.007
 34921,-0.01578213,-0.00920921,0.24471103,-0.07947526,0.44738430,-0.147
 63116,0.04106268,0.01457455,-0.02960722,0.03069638,0.01235414,-0.00087
 989,-0.00673387,0.00171161,0.00106181,0.00189808,0.00036344,0.37448467
 ,0.08703933,-0.16876167,-0.03282498,0.00489977,-0.00585071,-0.00604389
 ,-0.00163694,0.00164419,0.00115774,-0.00413820,0.00501172,0.00286495,0
 .10688035,0.57178798,0.02245407,-0.02138509,-0.06862970,0.02339980,-0.
 02670769,-0.00840049,0.00166111,0.00545084,-0.00088102,-0.00122005,0.0
 0068654,0.00335152,-0.01083638,0.10108780,0.07322371,0.00194072,0.0068
 8298,-0.00138852,-0.03253283,-0.01374070,0.03100062,-0.13016735,-0.025
 95681,0.07877674,0.00515239,-0.00046894,-0.00172249,-0.00383874,0.0019
 4921,0.00348915,0.22668139,0.00116961,-0.00387020,-0.00045623,0.011222
 82,0.00659125,-0.01575747,-0.05577401,-0.10371860,0.04306758,0.0041736
 8,0.00271413,-0.00320092,0.00130754,0.00076230,-0.00088808,0.19841586,
 0.52845775,-0.00105714,-0.00387210,0.00181271,0.02034812,0.00611664,-0
 .01789907,0.06355253,0.00864474,-0.15116490,0.00047123,0.00090443,0.00
 162413,0.00298061,-0.00117680,-0.00155114,-0.09499136,0.09692137,0.264
 44748,-0.08982353,0.02389365,-0.08387665,0.00854254,-0.00880378,0.0204
 1511,0.00109015,-0.00049548,-0.00030229,0.00276491,0.00187948,0.000364
 61,-0.01699659,0.02214851,-0.01171057,-0.00034732,0.00009015,-0.000168
 01,0.10492080,0.02407236,-0.07143678,0.05836181,0.00266487,-0.00222220
 ,0.01118124,0.00037968,-0.00072028,-0.00016739,0.00122025,0.00117160,-
 0.00037169,0.02358759,-0.01880459,0.01614887,-0.00042301,0.00017694,-0
 .00019731,-0.04170441,0.08288069,-0.08362953,0.05877433,-0.21697772,-0
 .01203151,0.00550180,-0.02311273,-0.00154993,0.00181236,-0.00067350,0.
 00048833,-0.00117912,0.00348011,0.00456984,-0.00136745,0.01472940,0.00
 081230,-0.00069994,0.00067577,0.09064231,-0.06854323,0.23267497,-0.134
 44584,-0.11438031,-0.05889080,-0.00919725,-0.01317189,-0.01330892,-0.0
 0035890,-0.00048886,-0.00038295,-0.00442167,-0.00387834,0.00373976,0.0
 1263628,0.02539434,0.01055188,0.00041618,0.00065163,0.00015434,-0.0063
 0846,-0.00932446,-0.00460978,0.14227662,-0.10385525,-0.17937044,-0.069
 46574,-0.00604809,-0.00643328,-0.00413585,0.00001846,-0.00070244,-0.00
 035623,-0.00149961,0.00006381,0.00099301,-0.00781715,-0.03025630,-0.01
 126342,0.00003193,0.00035822,0.00032203,0.00473640,0.00877640,0.003759
 22,0.10999195,0.20974098,-0.05682099,-0.07203156,-0.09078895,0.0095441
 0,0.01438388,0.01041108,-0.00008738,-0.00050184,0.00022716,0.00512549,
 0.00381851,-0.00120035,-0.00083168,-0.01010353,-0.00067330,-0.00053800
 ,0.00000852,0.00014251,-0.01721913,-0.01897183,-0.01024550,0.05901016,
 0.08291580,0.09255532,0.00960097,-0.00933210,0.02073249,-0.09927859,0.
 04350682,-0.08984017,-0.00985848,0.01119156,-0.01663210,-0.01262303,-0
 .00014721,-0.01986753,0.00169597,-0.00030198,-0.00229967,0.00266519,-0
 .00188374,-0.00000636,-0.00280150,-0.00087914,0.00376931,0.00090509,0.
 00027707,-0.00084605,0.11306093,0.00555631,-0.00432752,0.00916778,0.04
 956350,-0.08488124,0.08641757,0.01191503,-0.01091474,0.02094267,-0.019
 60183,0.00397371,-0.02911984,-0.00036111,0.00105977,-0.00160420,-0.002
 56625,0.00216742,-0.00100300,-0.00152954,-0.00005941,0.00116651,0.0001
 8913,0.00000279,-0.00008434,-0.04201143,0.09916359,-0.00844831,0.01118
 003,-0.01879259,-0.09258537,0.07777718,-0.21727932,0.00546388,-0.00330
 426,0.00724900,-0.01104004,-0.00139248,-0.01374433,-0.00097637,-0.0012
 2285,0.00332304,-0.00099233,-0.00032480,0.00124786,0.00292847,0.001197
 70,-0.00150786,0.00037533,0.00000422,0.00056047,0.10461481,-0.08079399
 ,0.23872903,-0.00010650,-0.00056222,0.00024207,0.01285371,0.01201337,0
 .00773263,-0.10938746,-0.08934629,-0.05612790,-0.00095730,0.00628360,0
 .00259573,0.00032755,-0.00030048,-0.00041307,-0.01602081,-0.02460538,-
 0.00150796,-0.00004467,-0.00004779,0.00007564,-0.00030200,0.00028133,0
 .00045863,0.00052393,-0.00056465,-0.00057449,0.12397765,-0.00070725,-0
 .00047368,-0.00010214,-0.01342203,-0.01432359,-0.01058976,-0.09169893,
 -0.19380325,-0.08450291,0.00250257,-0.00479541,-0.00222423,0.00040682,
 0.00055110,0.00025955,-0.00975424,-0.01081722,0.00033233,0.00015853,0.
 00001216,0.00006591,0.00062554,0.00065653,-0.00012447,-0.00017566,0.00
 042726,0.00070853,0.10830089,0.21270628,-0.00021685,-0.00046553,-0.000
 24546,-0.00680819,-0.00300465,-0.00374385,-0.06191758,-0.09361404,-0.1
 0153013,0.00185064,-0.00304657,0.00019459,0.00023978,0.00044913,0.0000
 3845,0.01821116,0.02533065,0.00854342,0.00007784,-0.00005589,0.0000741
 8,0.00073581,0.00002593,0.00000476,0.00042964,0.00012357,0.00051897,0.
 05446338,0.08966686,0.10798685,0.00043735,0.00081990,-0.00193845,-0.01
 311005,0.00664711,-0.02009630,-0.11160624,0.03957666,-0.09695062,0.002
 01373,-0.00161975,0.00156049,0.00010343,-0.00039933,0.00093200,0.00946
 751,-0.01171178,0.02823756,0.00002260,-0.00019403,0.00108418,0.0000137
 7,0.00003539,0.00005424,-0.00178671,0.00313397,0.00224239,-0.00694309,
 0.00585386,-0.01167878,0.12008045,-0.00090616,-0.00066430,0.00140360,0
 .01636658,-0.00930407,0.01930775,0.03907235,-0.07900127,0.05687160,-0.
 00069722,0.00296853,0.00075336,-0.00003575,0.00016362,-0.00092020,-0.0
 0140060,-0.00275031,0.01505883,0.00002875,0.00049359,-0.00074402,0.000
 01024,0.00002703,-0.00010141,0.00267788,-0.00277884,-0.00130667,-0.012
 32917,0.00944300,-0.01848298,-0.04327208,0.08233674,-0.00030343,0.0006
 3731,-0.00007946,0.00272945,-0.00521146,0.00562501,-0.09704200,0.05692
 262,-0.18765197,0.00131437,0.00118552,0.00242989,0.00001966,-0.0002048
 8,0.00023770,0.00662100,0.01582880,-0.02778822,0.00003596,-0.00024940,
 0.00067373,0.00016233,0.00011027,0.00000056,0.00131396,-0.00155140,0.0
 0019677,-0.00966167,0.00472517,-0.01027637,0.09572239,-0.07246413,0.21
 807991,-0.00014862,0.00147330,-0.00141908,-0.01293434,0.00738504,-0.02
 049925,0.00283183,-0.00030432,0.00204882,-0.12236597,0.05150925,-0.190
 11976,-0.00005880,0.00017391,0.00117090,-0.00123953,0.00047061,-0.0000
 3314,-0.00020828,-0.00062102,0.00104545,0.00094777,0.00007793,0.000470
 45,-0.00115881,-0.00394582,-0.00083551,-0.00046716,0.00028066,0.000077
 26,0.00037303,-0.00028443,-0.00060009,0.13555034,-0.00131944,0.0021394
 1,-0.00140503,-0.01892527,0.00717091,-0.03066566,-0.00114726,0.0023538
 6,-0.00328812,0.07756679,-0.09232675,0.15003953,0.00068041,-0.00093656
 ,-0.00032498,-0.00008385,-0.00066764,0.00085842,0.00044852,-0.00039970
 ,0.00125874,0.00026177,-0.00023053,0.00036983,-0.00314521,-0.00393765,
 -0.00238562,0.00038068,-0.00018905,0.00072760,0.00094508,-0.00071568,0
 .00130323,-0.05648359,0.08726405,0.00165548,-0.00020788,0.00405003,-0.
 00855937,0.00684890,-0.01622546,0.00063453,0.00069937,0.00086268,-0.20
 194193,0.11289157,-0.34452164,0.00021352,0.00038953,-0.00091747,0.0009
 4488,0.00020940,-0.00000593,-0.00110591,0.00007597,-0.00006167,0.00049
 551,0.00016844,-0.00055450,-0.00119724,-0.00352548,0.00057600,-0.00007
 612,0.00052417,0.00081917,0.00050356,-0.00079378,-0.00032527,0.2084564
 4,-0.11681273,0.35749533,0.01244065,0.02889954,0.00544298,0.00112410,0
 .00491269,0.00402466,-0.00030782,-0.00062587,-0.00048658,0.00292690,-0
 .00216393,-0.00357025,-0.19207387,-0.24174006,-0.03663455,-0.00023982,
 -0.00041692,-0.00005664,-0.00091484,0.00117687,-0.00038485,-0.00239635
 ,0.00358463,0.00166194,-0.00007034,-0.00024811,-0.00019160,0.00019893,
 -0.00034564,-0.00026373,0.00001440,0.00009917,0.00002719,-0.00186162,0
 .00060335,-0.00003411,0.18145322,-0.01533996,-0.03143513,-0.00717558,-
 0.00168021,0.00197932,-0.00010462,-0.00032645,-0.00122162,-0.00028563,
 -0.00028727,-0.00000889,0.00092994,-0.19210370,-0.35586383,-0.06021225
 ,-0.00076302,0.00014999,0.00065239,-0.00087421,0.00010995,0.00011485,0
 .00435653,-0.00259914,0.00024844,0.00023409,0.00008649,-0.00021138,0.0
 0014665,0.00001641,0.00000217,-0.00000735,0.00003876,0.00002320,0.0005
 4092,0.00018116,-0.00022005,0.20595068,0.38838405,-0.00508579,-0.01090
 779,-0.00319677,-0.00064938,-0.00272082,0.00053616,0.00007888,-0.00072
 175,-0.00029788,-0.00131412,0.00103674,-0.00125136,-0.02418938,-0.0527
 4205,-0.01371102,-0.00047773,0.00036893,0.00021791,-0.00016863,0.00147
 869,0.00039340,0.00226869,-0.00297854,-0.00055985,0.00035854,-0.000047
 90,-0.00097509,0.00002513,0.00017709,0.00010697,-0.00026245,0.00023938
 ,-0.00004995,-0.00088552,0.00064021,0.00076664,0.02999720,0.06624774,0
 .01809130,-0.00061137,-0.00076398,0.00018942,-0.00127693,-0.00292420,-
 0.00076537,-0.01449339,-0.02927117,-0.00657992,0.00120792,0.00047954,-
 0.00203133,0.00077656,0.00003157,-0.00054464,-0.06193697,-0.12311008,-
 0.01792378,0.00010421,0.00009225,-0.00028176,0.00023477,0.00018501,0.0
 0001824,-0.00087461,0.00047082,0.00001914,-0.00365278,-0.00202512,0.00
 479963,0.00091982,0.00067046,-0.00033913,0.00074017,0.00021803,0.00001
 079,-0.00029353,0.00015329,0.00030456,0.07915614,-0.00065089,-0.001041
 46,-0.00020406,0.00318920,0.00315583,-0.00146606,-0.00617021,-0.013140
 05,-0.00380647,-0.00092905,-0.00049420,0.00123228,0.00053174,-0.000507
 03,-0.00032770,-0.15212256,-0.41955403,-0.12356195,0.00002344,0.000021
 65,0.00008004,-0.00023725,-0.00003364,0.00017400,-0.00001097,0.0000183
 9,0.00007440,0.00034947,0.00058947,0.00234375,0.00019235,-0.00025680,-
 0.00105485,-0.00027244,0.00029419,-0.00024742,0.00031360,0.00018248,-0
 .00006993,0.15579359,0.43076521,-0.00056171,-0.00035211,-0.00017177,0.
 00410686,0.00178913,0.00173371,0.01353860,0.02999240,0.00543708,-0.004
 47425,0.00054385,0.00069200,-0.00019334,-0.00026270,-0.00013968,-0.039
 74540,-0.16040783,-0.08030252,0.00008689,0.00011245,-0.00012257,-0.000
 30135,-0.00009914,0.00012059,-0.00052964,-0.00008795,-0.00010194,0.002
 76801,0.00108390,-0.00249156,0.00058978,0.00117867,-0.00107232,0.00112
 305,-0.00031542,-0.00195789,0.00046833,-0.00000922,-0.00007045,0.02312
 417,0.12683396,0.07844732\\-0.00000006,-0.00000074,-0.00000033,-0.0000
 0006,0.,0.,0.00000062,0.00000058,0.00000002,-0.00000076,0.00000026,0.0
 0000041,-0.00000066,-0.00000128,-0.00000033,0.00000061,0.00000124,0.00
 000034,-0.00000006,-0.00000068,-0.00000027,0.00000047,-0.00000098,-0.0
 0000062,-0.00000005,-0.00000010,-0.00000002,0.00000115,0.00000037,-0.0
 0000026,0.00000061,0.00000067,0.00000008,-0.00000079,0.00000035,0.0000
 0046,-0.00000111,-0.00000104,-0.00000005,0.00000009,0.00000134,0.00000
 057\\\@


                                                                                    A
                                                                                  AA
                                                                                 AAA
                                                                                AAAA
                                                                               AAAAA
                                                                              AAAAAA   KKKKKKKK
                                                                             AAAAAAA   KKKKKKKK
                                                                            AAAAAAAA   KKKKKKKK
                                       ZZZZZZZZZZZZZZZZZZZZ                AAAA  AAA   KKKKKKKK
                                       ZZZZZZZZZZZZZZZZZZZ                AAAA   AAA   KKKKKKKK          K
                                       ZZZZZZZZZZZZZZZZZZ                AAAA    AAA   KKKKKKKK         KKK
                                       ZZZZZZZZZZZZZZZZZ                AAAA     AAA   KKKKKKKK        KKKKK
                                       ZZZZZZZZZZZZZZZZ                AAAA      AAA   KKKKKKKK       KKKKKKK
                                                ZZZZZZ                AAAA       AAA   KKKKKKKK      KKKKKKK
                                               ZZZZZZ                AAAA        AAA   KKKKKKKK     KKKKKKK
                                              ZZZZZZ                AAAA         AAA   KKKKKKKK    KKKKKKK
                                             ZZZZZZ                AAAA          AAA   KKKKKKKK   KKKKKKK
                                            ZZZZZZ                AAAAAAAAAAAAAAAAAA   KKKKKKKK  KKKKKKK
                                           ZZZZZZ                AAAAAAAAAAAAAAAAAAA   KKKKKKKK KKKKKKK
                                          ZZZZZZ                AAAAAAAAAAAAAAAAAAAA   KKKKKKKKKKKKKKK
                                         ZZZZZZ                AAAAAAAAAAAAAAAAAAAAA   KKKKKKKKKKKKKK
                                        ZZZZZZ                AAAAAA        AAAAAAAA   KKKKKKKKKKKKK
                                       ZZZZZZ                AAAAAA         AAAAAAAA   KKKKKKKKKKKK
                                      ZZZZZZ                AAAAAA          AAAAAAAA   KKKKKKKKKKK
                                     ZZZZZZ                AAAAAA           AAAAAAAA   KKKKKKKKKKKK
                                    ZZZZZZ                AAAAAA            AAAAAAAA   KKKKKKKKKKKKK
                                   ZZZZZZ                AAAAAA             AAAAAAAA   KKKKKKKKKKKKKK
                                  ZZZZZZ                AAAAAA              AAAAAAAA   KKKKKKKKKKKKKKK
                                 ZZZZZZ                AAAAAA               AAAAAAAA   KKKKK KKKKKKKKKK
                                ZZZZZZ                AAAAAA                AAAAAAAA   KKKKK  KKKKKKKKKK
                               ZZZZZZ                AAAAAA                            KKKKK   KKKKKKKKKK
                              ZZZZZZ                AAAAAA                             KKKKK    KKKKKKKKKK
                             ZZZZZZ                                                    KKKKK     KKKKKKKKKK
                            ZZZZZZ                                                     KKKKK      KKKKKKKKKK
                           ZZZZZZ                                                      KKKKK       KKKKKKKKKK
                          ZZZZZZ                                                       KKKKK        KKKKKKKKKK
                         ZZZZZZZZZZZZZZZZZZZZZZZZZZZZZZZZZZZZZZZZ                      KKKKK         KKKKKKKKKK
                        ZZZZZZZZZZZZZZZZZZZZZZZZZZZZZZZZZZZZZZZZZ                      KKKKK          KKKKKKKKKK
                       ZZZZZZZZZZZZZZZZZZZZZZZZZZZZZZZZZZZZZZZZZZ                      KKKKK           KKKKKKKKKK
                       ZZZZZZZZZZZZZZZZZZZZZZZZZZZZZZZZZZZZZZZZZZ                      KKKKK            KKKKKKKKKK
                       ZZZZZZZZZZZZZZZZZZZZZZZZZZZZZZZZZZZZZZZZZZ                      KKKKK             KKKKKKKKKK
                       ZZZZZZZZZZZZZZZZZZZZZZZZZZZZZZZZZZZZZZZZZZ                      KKKKK              KKKKKKKKKK
                       ZZZZZZZZZZZZZZZZZZZZZZZZZZZZZZZZZZZZZZZZZZ                      KKKKK               KKKKKKKKKK
                       ZZZZZZZZZZZZZZZZZZZZZZZZZZZZZZZZZZZZZZZZZZ                      KKKKK                KKKKKKKKKK
                       ZZZZZZZZZZZZZZZZZZZZZZZZZZZZZZZZZZZZZZZZZZ                      KKKKK
                                                                                       KKKKK
                                                                                          (J.P.)
 Job cpu time:       0 days  0 hours 29 minutes 37.2 seconds.
 File lengths (MBytes):  RWF=     49 Int=      0 D2E=      0 Chk=      3 Scr=      1
 Normal termination of Gaussian 09 at Sun Apr 26 13:24:17 2015.
