 Entering Gaussian System, Link 0=g09
 Input=0_0freq-b971_593-45-3.gau
 Output=0_0freq-b971_593-45-3.log
 Initial command:
 /opt/g09/l1.exe "/scratch/pb556/g09_run/add_hco//Gau-18811.inp" -scrdir="/scratch/pb556/g09_run/add_hco//"
 Entering Link 1 = /opt/g09/l1.exe PID=     18820.
  
 Copyright (c) 1988,1990,1992,1993,1995,1998,2003,2009,2013,
            Gaussian, Inc.  All Rights Reserved.
  
 This is part of the Gaussian(R) 09 program.  It is based on
 the Gaussian(R) 03 system (copyright 2003, Gaussian, Inc.),
 the Gaussian(R) 98 system (copyright 1998, Gaussian, Inc.),
 the Gaussian(R) 94 system (copyright 1995, Gaussian, Inc.),
 the Gaussian 92(TM) system (copyright 1992, Gaussian, Inc.),
 the Gaussian 90(TM) system (copyright 1990, Gaussian, Inc.),
 the Gaussian 88(TM) system (copyright 1988, Gaussian, Inc.),
 the Gaussian 86(TM) system (copyright 1986, Carnegie Mellon
 University), and the Gaussian 82(TM) system (copyright 1983,
 Carnegie Mellon University). Gaussian is a federally registered
 trademark of Gaussian, Inc.
  
 This software contains proprietary and confidential information,
 including trade secrets, belonging to Gaussian, Inc.
  
 This software is provided under written license and may be
 used, copied, transmitted, or stored only in accord with that
 written license.
  
 The following legend is applicable only to US Government
 contracts under FAR:
  
                    RESTRICTED RIGHTS LEGEND
  
 Use, reproduction and disclosure by the US Government is
 subject to restrictions as set forth in subparagraphs (a)
 and (c) of the Commercial Computer Software - Restricted
 Rights clause in FAR 52.227-19.
  
 Gaussian, Inc.
 340 Quinnipiac St., Bldg. 40, Wallingford CT 06492
  
  
 ---------------------------------------------------------------
 Warning -- This program may not be used in any manner that
 competes with the business of Gaussian, Inc. or will provide
 assistance to any competitor of Gaussian, Inc.  The licensee
 of this program is prohibited from giving any competitor of
 Gaussian, Inc. access to this program.  By using this program,
 the user acknowledges that Gaussian, Inc. is engaged in the
 business of creating and licensing software in the field of
 computational chemistry and represents and warrants to the
 licensee that it is not a competitor of Gaussian, Inc. and that
 it will not use this program in any manner prohibited above.
 ---------------------------------------------------------------
  

 Cite this work as:
 Gaussian 09, Revision D.01,
 M. J. Frisch, G. W. Trucks, H. B. Schlegel, G. E. Scuseria, 
 M. A. Robb, J. R. Cheeseman, G. Scalmani, V. Barone, B. Mennucci, 
 G. A. Petersson, H. Nakatsuji, M. Caricato, X. Li, H. P. Hratchian, 
 A. F. Izmaylov, J. Bloino, G. Zheng, J. L. Sonnenberg, M. Hada, 
 M. Ehara, K. Toyota, R. Fukuda, J. Hasegawa, M. Ishida, T. Nakajima, 
 Y. Honda, O. Kitao, H. Nakai, T. Vreven, J. A. Montgomery, Jr., 
 J. E. Peralta, F. Ogliaro, M. Bearpark, J. J. Heyd, E. Brothers, 
 K. N. Kudin, V. N. Staroverov, T. Keith, R. Kobayashi, J. Normand, 
 K. Raghavachari, A. Rendell, J. C. Burant, S. S. Iyengar, J. Tomasi, 
 M. Cossi, N. Rega, J. M. Millam, M. Klene, J. E. Knox, J. B. Cross, 
 V. Bakken, C. Adamo, J. Jaramillo, R. Gomperts, R. E. Stratmann, 
 O. Yazyev, A. J. Austin, R. Cammi, C. Pomelli, J. W. Ochterski, 
 R. L. Martin, K. Morokuma, V. G. Zakrzewski, G. A. Voth, 
 P. Salvador, J. J. Dannenberg, S. Dapprich, A. D. Daniels, 
 O. Farkas, J. B. Foresman, J. V. Ortiz, J. Cioslowski, 
 and D. J. Fox, Gaussian, Inc., Wallingford CT, 2013.
 
 ******************************************
 Gaussian 09:  ES64L-G09RevD.01 24-Apr-2013
                26-Apr-2015 
 ******************************************
 %NProcShared=8
 Will use up to    8 processors via shared memory.
 %Mem=500MW
 ----------------------------------------------------------------------
 #p rB971/6-311+G(d,p) Opt=(Tight, CalcAll) Freq GFInput Population=Non
 e Integral(Grid=UltraFine) Guess=MIX NoSymmetry
 ----------------------------------------------------------------------
 1/7=10,10=4,14=-1,18=20,19=15,26=4,38=1/1,3;
 2/9=110,12=2,15=1,17=6,18=5,40=1/2;
 3/5=4,6=6,7=111,11=2,16=1,24=10,25=1,30=1,71=2,74=-20,75=-5,116=1,140=1/1,2,3;
 4/13=-1/1;
 5/5=2,38=5/2;
 8/6=4,10=90,11=11/1;
 11/6=1,8=1,9=11,15=111,16=1,31=1/1,2,10;
 10/6=1,31=1/2;
 7/10=1,25=1,30=1/1,2,3,16;
 1/7=10,10=4,14=-1,18=20,19=15,26=4/3(3);
 2/9=110,15=1/2;
 7/8=1,9=1,25=1,30=1,44=-1/16;
 99//99;
 2/9=110,15=1/2;
 3/5=4,6=6,7=111,11=2,16=1,25=1,30=1,71=2,74=-20,75=-5,116=1,140=1/1,2,3;
 4/5=5,16=3,69=1/1;
 5/5=2,38=5/2;
 8/6=4,10=90,11=11/1;
 11/6=1,8=1,9=11,15=111,16=1,31=1/1,2,10;
 10/6=1,31=1/2;
 7/10=1,25=1,30=1/1,2,3,16;
 1/7=10,10=4,14=-1,18=20,19=15,26=4/3(-8);
 2/9=110,15=1/2;
 7/8=1,9=1,25=1,30=1,44=-1/16;
 99//99;
 Leave Link    1 at Sun Apr 26 14:57:10 2015, MaxMem=   524288000 cpu:         0.5
 (Enter /opt/g09/l101.exe)
 ----------------------
 freq-b971_593-45-3.gau
 ----------------------
 Symbolic Z-matrix:
 Charge =  0 Multiplicity = 1
 C                     7.82253   2.28901   3.04814 
 C                     6.92183   2.14338   4.2859 
 C                     5.69563   3.0737    4.30319 
 C                     9.08512   1.41564   3.12504 
 C                     4.66319   2.79827   3.19743 
 C                     9.96297   1.44452   1.85867 
 C                     3.41323   3.68495   3.31658 
 C                     10.53831   2.82139   1.47165 
 C                     2.39847   3.52068   2.16849 
 C                     11.47372   3.42845   2.53042 
 C                     1.78775   2.11454   2.00886 
 C                     12.2199   4.70837   2.10444 
 C                     0.97827   1.63654   3.22617 
 C                     11.3288   5.93864   1.81075 
 C                     0.2256    0.31136   3.00484 
 C                     10.93037   6.12149   0.33557 
 C                     1.13837  -0.90605   2.79424 
 C                     10.04733   7.35555   0.10715 
 H                     7.26086   2.02427   2.14164 
 H                     8.10378   3.346     2.93803 
 H                     6.58563   1.0992    4.3684 
 H                     7.52478   2.3398    5.18358 
 H                     5.19794   2.98127   5.27874 
 H                     6.03266   4.11848   4.23212 
 H                     9.67917   1.71405   3.99978 
 H                     8.7832    0.37528   3.31008 
 H                     5.11894   2.95616   2.21015 
 H                     4.37607   1.73796   3.2377 
 H                     10.79624   0.74053   1.99355 
 H                     9.3737    1.06097   1.01388 
 H                     3.72916   4.73708   3.34796 
 H                     2.9227    3.49177   4.28055 
 H                     11.09323   2.7105    0.5294 
 H                     9.71526   3.51481   1.25767 
 H                     1.58369   4.24375   2.31489 
 H                     2.88746   3.79972   1.22455 
 H                     10.90489   3.64667   3.44514 
 H                     12.21995   2.67102   2.81169 
 H                     2.58195   1.39299   1.77958 
 H                     1.12693   2.12402   1.13025 
 H                     12.84271   4.49242   1.22403 
 H                     12.91926   4.96392   2.9105 
 H                     1.64      1.52655   4.09687 
 H                     0.25032   2.41628   3.49227 
 H                     11.85677   6.84762   2.12981 
 H                     10.42133   5.88853   2.43107 
 H                    -0.44621   0.41838   2.14157 
 H                    -0.42019   0.12546   3.87288 
 H                     10.41016   5.22799  -0.02943 
 H                     11.84439   6.20937  -0.26796 
 H                     0.5517   -1.82659   2.70314 
 H                     1.7427   -0.81087   1.88587 
 H                     1.82552  -1.03189   3.64005 
 H                     9.79354   7.47653  -0.95152 
 H                     10.55461   8.27066   0.43555 
 H                     9.10832   7.2789    0.66832 
 
 NAtoms=     56 NQM=       56 NQMF=       0 NMMI=      0 NMMIF=      0
                NMic=       0 NMicF=      0.
                    Isotopes and Nuclear Properties:
 (Nuclear quadrupole moments (NQMom) in fm**2, nuclear magnetic moments (NMagM)
  in nuclear magnetons)

  Atom         1           2           3           4           5           6           7           8           9          10
 IAtWgt=          12          12          12          12          12          12          12          12          12          12
 AtmWgt=  12.0000000  12.0000000  12.0000000  12.0000000  12.0000000  12.0000000  12.0000000  12.0000000  12.0000000  12.0000000
 NucSpn=           0           0           0           0           0           0           0           0           0           0
 AtZEff=   0.0000000   0.0000000   0.0000000   0.0000000   0.0000000   0.0000000   0.0000000   0.0000000   0.0000000   0.0000000
 NQMom=    0.0000000   0.0000000   0.0000000   0.0000000   0.0000000   0.0000000   0.0000000   0.0000000   0.0000000   0.0000000
 NMagM=    0.0000000   0.0000000   0.0000000   0.0000000   0.0000000   0.0000000   0.0000000   0.0000000   0.0000000   0.0000000
 AtZNuc=   6.0000000   6.0000000   6.0000000   6.0000000   6.0000000   6.0000000   6.0000000   6.0000000   6.0000000   6.0000000

  Atom        11          12          13          14          15          16          17          18          19          20
 IAtWgt=          12          12          12          12          12          12          12          12           1           1
 AtmWgt=  12.0000000  12.0000000  12.0000000  12.0000000  12.0000000  12.0000000  12.0000000  12.0000000   1.0078250   1.0078250
 NucSpn=           0           0           0           0           0           0           0           0           1           1
 AtZEff=   0.0000000   0.0000000   0.0000000   0.0000000   0.0000000   0.0000000   0.0000000   0.0000000   0.0000000   0.0000000
 NQMom=    0.0000000   0.0000000   0.0000000   0.0000000   0.0000000   0.0000000   0.0000000   0.0000000   0.0000000   0.0000000
 NMagM=    0.0000000   0.0000000   0.0000000   0.0000000   0.0000000   0.0000000   0.0000000   0.0000000   2.7928460   2.7928460
 AtZNuc=   6.0000000   6.0000000   6.0000000   6.0000000   6.0000000   6.0000000   6.0000000   6.0000000   1.0000000   1.0000000

  Atom        21          22          23          24          25          26          27          28          29          30
 IAtWgt=           1           1           1           1           1           1           1           1           1           1
 AtmWgt=   1.0078250   1.0078250   1.0078250   1.0078250   1.0078250   1.0078250   1.0078250   1.0078250   1.0078250   1.0078250
 NucSpn=           1           1           1           1           1           1           1           1           1           1
 AtZEff=   0.0000000   0.0000000   0.0000000   0.0000000   0.0000000   0.0000000   0.0000000   0.0000000   0.0000000   0.0000000
 NQMom=    0.0000000   0.0000000   0.0000000   0.0000000   0.0000000   0.0000000   0.0000000   0.0000000   0.0000000   0.0000000
 NMagM=    2.7928460   2.7928460   2.7928460   2.7928460   2.7928460   2.7928460   2.7928460   2.7928460   2.7928460   2.7928460
 AtZNuc=   1.0000000   1.0000000   1.0000000   1.0000000   1.0000000   1.0000000   1.0000000   1.0000000   1.0000000   1.0000000

  Atom        31          32          33          34          35          36          37          38          39          40
 IAtWgt=           1           1           1           1           1           1           1           1           1           1
 AtmWgt=   1.0078250   1.0078250   1.0078250   1.0078250   1.0078250   1.0078250   1.0078250   1.0078250   1.0078250   1.0078250
 NucSpn=           1           1           1           1           1           1           1           1           1           1
 AtZEff=   0.0000000   0.0000000   0.0000000   0.0000000   0.0000000   0.0000000   0.0000000   0.0000000   0.0000000   0.0000000
 NQMom=    0.0000000   0.0000000   0.0000000   0.0000000   0.0000000   0.0000000   0.0000000   0.0000000   0.0000000   0.0000000
 NMagM=    2.7928460   2.7928460   2.7928460   2.7928460   2.7928460   2.7928460   2.7928460   2.7928460   2.7928460   2.7928460
 AtZNuc=   1.0000000   1.0000000   1.0000000   1.0000000   1.0000000   1.0000000   1.0000000   1.0000000   1.0000000   1.0000000

  Atom        41          42          43          44          45          46          47          48          49          50
 IAtWgt=           1           1           1           1           1           1           1           1           1           1
 AtmWgt=   1.0078250   1.0078250   1.0078250   1.0078250   1.0078250   1.0078250   1.0078250   1.0078250   1.0078250   1.0078250
 NucSpn=           1           1           1           1           1           1           1           1           1           1
 AtZEff=   0.0000000   0.0000000   0.0000000   0.0000000   0.0000000   0.0000000   0.0000000   0.0000000   0.0000000   0.0000000
 NQMom=    0.0000000   0.0000000   0.0000000   0.0000000   0.0000000   0.0000000   0.0000000   0.0000000   0.0000000   0.0000000
 NMagM=    2.7928460   2.7928460   2.7928460   2.7928460   2.7928460   2.7928460   2.7928460   2.7928460   2.7928460   2.7928460
 AtZNuc=   1.0000000   1.0000000   1.0000000   1.0000000   1.0000000   1.0000000   1.0000000   1.0000000   1.0000000   1.0000000

  Atom        51          52          53          54          55          56
 IAtWgt=           1           1           1           1           1           1
 AtmWgt=   1.0078250   1.0078250   1.0078250   1.0078250   1.0078250   1.0078250
 NucSpn=           1           1           1           1           1           1
 AtZEff=   0.0000000   0.0000000   0.0000000   0.0000000   0.0000000   0.0000000
 NQMom=    0.0000000   0.0000000   0.0000000   0.0000000   0.0000000   0.0000000
 NMagM=    2.7928460   2.7928460   2.7928460   2.7928460   2.7928460   2.7928460
 AtZNuc=   1.0000000   1.0000000   1.0000000   1.0000000   1.0000000   1.0000000
 Leave Link  101 at Sun Apr 26 14:57:11 2015, MaxMem=   524288000 cpu:         2.1
 (Enter /opt/g09/l103.exe)

 GradGradGradGradGradGradGradGradGradGradGradGradGradGradGradGradGradGrad
 Berny optimization.
 Initialization pass.
                           ----------------------------
                           !    Initial Parameters    !
                           ! (Angstroms and Degrees)  !
 --------------------------                            --------------------------
 ! Name  Definition              Value          Derivative Info.                !
 --------------------------------------------------------------------------------
 ! R1    R(1,2)                  1.5377         calculate D2E/DX2 analytically  !
 ! R2    R(1,4)                  1.5371         calculate D2E/DX2 analytically  !
 ! R3    R(1,19)                 1.0988         calculate D2E/DX2 analytically  !
 ! R4    R(1,20)                 1.0993         calculate D2E/DX2 analytically  !
 ! R5    R(2,3)                  1.5393         calculate D2E/DX2 analytically  !
 ! R6    R(2,21)                 1.1001         calculate D2E/DX2 analytically  !
 ! R7    R(2,22)                 1.0991         calculate D2E/DX2 analytically  !
 ! R8    R(3,5)                  1.5377         calculate D2E/DX2 analytically  !
 ! R9    R(3,23)                 1.0991         calculate D2E/DX2 analytically  !
 ! R10   R(3,24)                 1.1001         calculate D2E/DX2 analytically  !
 ! R11   R(4,6)                  1.5412         calculate D2E/DX2 analytically  !
 ! R12   R(4,25)                 1.0987         calculate D2E/DX2 analytically  !
 ! R13   R(4,26)                 1.099          calculate D2E/DX2 analytically  !
 ! R14   R(5,7)                  1.5371         calculate D2E/DX2 analytically  !
 ! R15   R(5,27)                 1.0988         calculate D2E/DX2 analytically  !
 ! R16   R(5,28)                 1.0992         calculate D2E/DX2 analytically  !
 ! R17   R(6,8)                  1.5416         calculate D2E/DX2 analytically  !
 ! R18   R(6,29)                 1.0992         calculate D2E/DX2 analytically  !
 ! R19   R(6,30)                 1.0991         calculate D2E/DX2 analytically  !
 ! R20   R(7,9)                  1.541          calculate D2E/DX2 analytically  !
 ! R21   R(7,31)                 1.099          calculate D2E/DX2 analytically  !
 ! R22   R(7,32)                 1.0987         calculate D2E/DX2 analytically  !
 ! R23   R(8,10)                 1.5377         calculate D2E/DX2 analytically  !
 ! R24   R(8,33)                 1.0991         calculate D2E/DX2 analytically  !
 ! R25   R(8,34)                 1.0973         calculate D2E/DX2 analytically  !
 ! R26   R(9,11)                 1.5413         calculate D2E/DX2 analytically  !
 ! R27   R(9,35)                 1.0991         calculate D2E/DX2 analytically  !
 ! R28   R(9,36)                 1.0991         calculate D2E/DX2 analytically  !
 ! R29   R(10,12)                1.5416         calculate D2E/DX2 analytically  !
 ! R30   R(10,37)                1.099          calculate D2E/DX2 analytically  !
 ! R31   R(10,38)                1.0999         calculate D2E/DX2 analytically  !
 ! R32   R(11,13)                1.538          calculate D2E/DX2 analytically  !
 ! R33   R(11,39)                1.0972         calculate D2E/DX2 analytically  !
 ! R34   R(11,40)                1.0994         calculate D2E/DX2 analytically  !
 ! R35   R(12,14)                1.5472         calculate D2E/DX2 analytically  !
 ! R36   R(12,41)                1.0998         calculate D2E/DX2 analytically  !
 ! R37   R(12,42)                1.0973         calculate D2E/DX2 analytically  !
 ! R38   R(13,15)                1.54           calculate D2E/DX2 analytically  !
 ! R39   R(13,43)                1.0991         calculate D2E/DX2 analytically  !
 ! R40   R(13,44)                1.0994         calculate D2E/DX2 analytically  !
 ! R41   R(14,16)                1.5389         calculate D2E/DX2 analytically  !
 ! R42   R(14,45)                1.0985         calculate D2E/DX2 analytically  !
 ! R43   R(14,46)                1.1004         calculate D2E/DX2 analytically  !
 ! R44   R(15,17)                1.5361         calculate D2E/DX2 analytically  !
 ! R45   R(15,47)                1.0991         calculate D2E/DX2 analytically  !
 ! R46   R(15,48)                1.0978         calculate D2E/DX2 analytically  !
 ! R47   R(16,18)                1.5345         calculate D2E/DX2 analytically  !
 ! R48   R(16,49)                1.0964         calculate D2E/DX2 analytically  !
 ! R49   R(16,50)                1.0988         calculate D2E/DX2 analytically  !
 ! R50   R(17,51)                1.0954         calculate D2E/DX2 analytically  !
 ! R51   R(17,52)                1.0952         calculate D2E/DX2 analytically  !
 ! R52   R(17,53)                1.097          calculate D2E/DX2 analytically  !
 ! R53   R(18,54)                1.0954         calculate D2E/DX2 analytically  !
 ! R54   R(18,55)                1.0966         calculate D2E/DX2 analytically  !
 ! R55   R(18,56)                1.0966         calculate D2E/DX2 analytically  !
 ! A1    A(2,1,4)              112.7706         calculate D2E/DX2 analytically  !
 ! A2    A(2,1,19)             109.9895         calculate D2E/DX2 analytically  !
 ! A3    A(2,1,20)             108.7566         calculate D2E/DX2 analytically  !
 ! A4    A(4,1,19)             108.9202         calculate D2E/DX2 analytically  !
 ! A5    A(4,1,20)             109.9483         calculate D2E/DX2 analytically  !
 ! A6    A(19,1,20)            106.2492         calculate D2E/DX2 analytically  !
 ! A7    A(1,2,3)              114.7344         calculate D2E/DX2 analytically  !
 ! A8    A(1,2,21)             109.2248         calculate D2E/DX2 analytically  !
 ! A9    A(1,2,22)             108.6135         calculate D2E/DX2 analytically  !
 ! A10   A(3,2,21)             109.2314         calculate D2E/DX2 analytically  !
 ! A11   A(3,2,22)             108.6528         calculate D2E/DX2 analytically  !
 ! A12   A(21,2,22)            106.0242         calculate D2E/DX2 analytically  !
 ! A13   A(2,3,5)              114.7416         calculate D2E/DX2 analytically  !
 ! A14   A(2,3,23)             108.6552         calculate D2E/DX2 analytically  !
 ! A15   A(2,3,24)             109.2215         calculate D2E/DX2 analytically  !
 ! A16   A(5,3,23)             108.6137         calculate D2E/DX2 analytically  !
 ! A17   A(5,3,24)             109.2297         calculate D2E/DX2 analytically  !
 ! A18   A(23,3,24)            106.0184         calculate D2E/DX2 analytically  !
 ! A19   A(1,4,6)              114.5893         calculate D2E/DX2 analytically  !
 ! A20   A(1,4,25)             109.2461         calculate D2E/DX2 analytically  !
 ! A21   A(1,4,26)             108.7015         calculate D2E/DX2 analytically  !
 ! A22   A(6,4,25)             109.9466         calculate D2E/DX2 analytically  !
 ! A23   A(6,4,26)             108.2149         calculate D2E/DX2 analytically  !
 ! A24   A(25,4,26)            105.76           calculate D2E/DX2 analytically  !
 ! A25   A(3,5,7)              112.7629         calculate D2E/DX2 analytically  !
 ! A26   A(3,5,27)             109.9924         calculate D2E/DX2 analytically  !
 ! A27   A(3,5,28)             108.7723         calculate D2E/DX2 analytically  !
 ! A28   A(7,5,27)             108.9074         calculate D2E/DX2 analytically  !
 ! A29   A(7,5,28)             109.9482         calculate D2E/DX2 analytically  !
 ! A30   A(27,5,28)            106.2518         calculate D2E/DX2 analytically  !
 ! A31   A(4,6,8)              115.8238         calculate D2E/DX2 analytically  !
 ! A32   A(4,6,29)             108.6015         calculate D2E/DX2 analytically  !
 ! A33   A(4,6,30)             108.6418         calculate D2E/DX2 analytically  !
 ! A34   A(8,6,29)             108.658          calculate D2E/DX2 analytically  !
 ! A35   A(8,6,30)             108.5907         calculate D2E/DX2 analytically  !
 ! A36   A(29,6,30)            106.0967         calculate D2E/DX2 analytically  !
 ! A37   A(5,7,9)              114.5965         calculate D2E/DX2 analytically  !
 ! A38   A(5,7,31)             108.7047         calculate D2E/DX2 analytically  !
 ! A39   A(5,7,32)             109.2465         calculate D2E/DX2 analytically  !
 ! A40   A(9,7,31)             108.2173         calculate D2E/DX2 analytically  !
 ! A41   A(9,7,32)             109.9323         calculate D2E/DX2 analytically  !
 ! A42   A(31,7,32)            105.7607         calculate D2E/DX2 analytically  !
 ! A43   A(6,8,10)             114.002          calculate D2E/DX2 analytically  !
 ! A44   A(6,8,33)             108.2723         calculate D2E/DX2 analytically  !
 ! A45   A(6,8,34)             109.4773         calculate D2E/DX2 analytically  !
 ! A46   A(10,8,33)            108.843          calculate D2E/DX2 analytically  !
 ! A47   A(10,8,34)            109.9426         calculate D2E/DX2 analytically  !
 ! A48   A(33,8,34)            105.9785         calculate D2E/DX2 analytically  !
 ! A49   A(7,9,11)             115.8054         calculate D2E/DX2 analytically  !
 ! A50   A(7,9,35)             108.5886         calculate D2E/DX2 analytically  !
 ! A51   A(7,9,36)             108.6516         calculate D2E/DX2 analytically  !
 ! A52   A(11,9,35)            108.6764         calculate D2E/DX2 analytically  !
 ! A53   A(11,9,36)            108.5996         calculate D2E/DX2 analytically  !
 ! A54   A(35,9,36)            106.0918         calculate D2E/DX2 analytically  !
 ! A55   A(8,10,12)            115.5923         calculate D2E/DX2 analytically  !
 ! A56   A(8,10,37)            109.6702         calculate D2E/DX2 analytically  !
 ! A57   A(8,10,38)            108.4782         calculate D2E/DX2 analytically  !
 ! A58   A(12,10,37)           108.4003         calculate D2E/DX2 analytically  !
 ! A59   A(12,10,38)           108.3025         calculate D2E/DX2 analytically  !
 ! A60   A(37,10,38)           105.9652         calculate D2E/DX2 analytically  !
 ! A61   A(9,11,13)            114.2107         calculate D2E/DX2 analytically  !
 ! A62   A(9,11,39)            109.5584         calculate D2E/DX2 analytically  !
 ! A63   A(9,11,40)            108.2436         calculate D2E/DX2 analytically  !
 ! A64   A(13,11,39)           109.9961         calculate D2E/DX2 analytically  !
 ! A65   A(13,11,40)           108.593          calculate D2E/DX2 analytically  !
 ! A66   A(39,11,40)           105.8866         calculate D2E/DX2 analytically  !
 ! A67   A(10,12,14)           115.7132         calculate D2E/DX2 analytically  !
 ! A68   A(10,12,41)           109.4069         calculate D2E/DX2 analytically  !
 ! A69   A(10,12,42)           107.3895         calculate D2E/DX2 analytically  !
 ! A70   A(14,12,41)           109.2879         calculate D2E/DX2 analytically  !
 ! A71   A(14,12,42)           108.7426         calculate D2E/DX2 analytically  !
 ! A72   A(41,12,42)           105.833          calculate D2E/DX2 analytically  !
 ! A73   A(11,13,15)           114.2621         calculate D2E/DX2 analytically  !
 ! A74   A(11,13,43)           109.9508         calculate D2E/DX2 analytically  !
 ! A75   A(11,13,44)           108.6403         calculate D2E/DX2 analytically  !
 ! A76   A(15,13,43)           108.7832         calculate D2E/DX2 analytically  !
 ! A77   A(15,13,44)           108.752          calculate D2E/DX2 analytically  !
 ! A78   A(43,13,44)           106.1329         calculate D2E/DX2 analytically  !
 ! A79   A(12,14,16)           115.1848         calculate D2E/DX2 analytically  !
 ! A80   A(12,14,45)           109.0267         calculate D2E/DX2 analytically  !
 ! A81   A(12,14,46)           109.3754         calculate D2E/DX2 analytically  !
 ! A82   A(16,14,45)           107.7294         calculate D2E/DX2 analytically  !
 ! A83   A(16,14,46)           109.4072         calculate D2E/DX2 analytically  !
 ! A84   A(45,14,46)           105.6825         calculate D2E/DX2 analytically  !
 ! A85   A(13,15,17)           114.2844         calculate D2E/DX2 analytically  !
 ! A86   A(13,15,47)           109.1374         calculate D2E/DX2 analytically  !
 ! A87   A(13,15,48)           108.6384         calculate D2E/DX2 analytically  !
 ! A88   A(17,15,47)           109.4323         calculate D2E/DX2 analytically  !
 ! A89   A(17,15,48)           108.8905         calculate D2E/DX2 analytically  !
 ! A90   A(47,15,48)           106.1397         calculate D2E/DX2 analytically  !
 ! A91   A(14,16,18)           112.7813         calculate D2E/DX2 analytically  !
 ! A92   A(14,16,49)           110.1888         calculate D2E/DX2 analytically  !
 ! A93   A(14,16,50)           108.7018         calculate D2E/DX2 analytically  !
 ! A94   A(18,16,49)           109.4367         calculate D2E/DX2 analytically  !
 ! A95   A(18,16,50)           109.426          calculate D2E/DX2 analytically  !
 ! A96   A(49,16,50)           106.0806         calculate D2E/DX2 analytically  !
 ! A97   A(15,17,51)           111.0499         calculate D2E/DX2 analytically  !
 ! A98   A(15,17,52)           111.8842         calculate D2E/DX2 analytically  !
 ! A99   A(15,17,53)           110.9416         calculate D2E/DX2 analytically  !
 ! A100  A(51,17,52)           107.4333         calculate D2E/DX2 analytically  !
 ! A101  A(51,17,53)           107.6502         calculate D2E/DX2 analytically  !
 ! A102  A(52,17,53)           107.6877         calculate D2E/DX2 analytically  !
 ! A103  A(16,18,54)           111.4698         calculate D2E/DX2 analytically  !
 ! A104  A(16,18,55)           111.1191         calculate D2E/DX2 analytically  !
 ! A105  A(16,18,56)           111.1224         calculate D2E/DX2 analytically  !
 ! A106  A(54,18,55)           107.7246         calculate D2E/DX2 analytically  !
 ! A107  A(54,18,56)           107.6929         calculate D2E/DX2 analytically  !
 ! A108  A(55,18,56)           107.5288         calculate D2E/DX2 analytically  !
 ! D1    D(4,1,2,3)            175.7975         calculate D2E/DX2 analytically  !
 ! D2    D(4,1,2,21)           -61.1969         calculate D2E/DX2 analytically  !
 ! D3    D(4,1,2,22)            54.0128         calculate D2E/DX2 analytically  !
 ! D4    D(19,1,2,3)           -62.4066         calculate D2E/DX2 analytically  !
 ! D5    D(19,1,2,21)           60.599          calculate D2E/DX2 analytically  !
 ! D6    D(19,1,2,22)          175.8087         calculate D2E/DX2 analytically  !
 ! D7    D(20,1,2,3)            53.5684         calculate D2E/DX2 analytically  !
 ! D8    D(20,1,2,21)          176.5741         calculate D2E/DX2 analytically  !
 ! D9    D(20,1,2,22)          -68.2163         calculate D2E/DX2 analytically  !
 ! D10   D(2,1,4,6)            175.4413         calculate D2E/DX2 analytically  !
 ! D11   D(2,1,4,25)           -60.7002         calculate D2E/DX2 analytically  !
 ! D12   D(2,1,4,26)            54.255          calculate D2E/DX2 analytically  !
 ! D13   D(19,1,4,6)            53.0433         calculate D2E/DX2 analytically  !
 ! D14   D(19,1,4,25)          176.9018         calculate D2E/DX2 analytically  !
 ! D15   D(19,1,4,26)          -68.143          calculate D2E/DX2 analytically  !
 ! D16   D(20,1,4,6)           -63.0023         calculate D2E/DX2 analytically  !
 ! D17   D(20,1,4,25)           60.8562         calculate D2E/DX2 analytically  !
 ! D18   D(20,1,4,26)          175.8114         calculate D2E/DX2 analytically  !
 ! D19   D(1,2,3,5)             65.3752         calculate D2E/DX2 analytically  !
 ! D20   D(1,2,3,23)          -172.8544         calculate D2E/DX2 analytically  !
 ! D21   D(1,2,3,24)           -57.6308         calculate D2E/DX2 analytically  !
 ! D22   D(21,2,3,5)           -57.6269         calculate D2E/DX2 analytically  !
 ! D23   D(21,2,3,23)           64.1434         calculate D2E/DX2 analytically  !
 ! D24   D(21,2,3,24)          179.3671         calculate D2E/DX2 analytically  !
 ! D25   D(22,2,3,5)          -172.8615         calculate D2E/DX2 analytically  !
 ! D26   D(22,2,3,23)          -51.0911         calculate D2E/DX2 analytically  !
 ! D27   D(22,2,3,24)           64.1325         calculate D2E/DX2 analytically  !
 ! D28   D(2,3,5,7)            175.9251         calculate D2E/DX2 analytically  !
 ! D29   D(2,3,5,27)           -62.2986         calculate D2E/DX2 analytically  !
 ! D30   D(2,3,5,28)            53.6902         calculate D2E/DX2 analytically  !
 ! D31   D(23,3,5,7)            54.1322         calculate D2E/DX2 analytically  !
 ! D32   D(23,3,5,27)          175.9084         calculate D2E/DX2 analytically  !
 ! D33   D(23,3,5,28)          -68.1027         calculate D2E/DX2 analytically  !
 ! D34   D(24,3,5,7)           -61.0733         calculate D2E/DX2 analytically  !
 ! D35   D(24,3,5,27)           60.703          calculate D2E/DX2 analytically  !
 ! D36   D(24,3,5,28)          176.6918         calculate D2E/DX2 analytically  !
 ! D37   D(1,4,6,8)             61.167          calculate D2E/DX2 analytically  !
 ! D38   D(1,4,6,29)          -176.2938         calculate D2E/DX2 analytically  !
 ! D39   D(1,4,6,30)           -61.3152         calculate D2E/DX2 analytically  !
 ! D40   D(25,4,6,8)           -62.3171         calculate D2E/DX2 analytically  !
 ! D41   D(25,4,6,29)           60.222          calculate D2E/DX2 analytically  !
 ! D42   D(25,4,6,30)          175.2007         calculate D2E/DX2 analytically  !
 ! D43   D(26,4,6,8)          -177.3797         calculate D2E/DX2 analytically  !
 ! D44   D(26,4,6,29)          -54.8406         calculate D2E/DX2 analytically  !
 ! D45   D(26,4,6,30)           60.138          calculate D2E/DX2 analytically  !
 ! D46   D(3,5,7,9)            175.5418         calculate D2E/DX2 analytically  !
 ! D47   D(3,5,7,31)            54.3452         calculate D2E/DX2 analytically  !
 ! D48   D(3,5,7,32)           -60.6128         calculate D2E/DX2 analytically  !
 ! D49   D(27,5,7,9)            53.1543         calculate D2E/DX2 analytically  !
 ! D50   D(27,5,7,31)          -68.0423         calculate D2E/DX2 analytically  !
 ! D51   D(27,5,7,32)          176.9997         calculate D2E/DX2 analytically  !
 ! D52   D(28,5,7,9)           -62.887          calculate D2E/DX2 analytically  !
 ! D53   D(28,5,7,31)          175.9163         calculate D2E/DX2 analytically  !
 ! D54   D(28,5,7,32)           60.9583         calculate D2E/DX2 analytically  !
 ! D55   D(4,6,8,10)            61.7614         calculate D2E/DX2 analytically  !
 ! D56   D(4,6,8,33)          -176.9506         calculate D2E/DX2 analytically  !
 ! D57   D(4,6,8,34)           -61.8464         calculate D2E/DX2 analytically  !
 ! D58   D(29,6,8,10)          -60.7479         calculate D2E/DX2 analytically  !
 ! D59   D(29,6,8,33)           60.5401         calculate D2E/DX2 analytically  !
 ! D60   D(29,6,8,34)          175.6443         calculate D2E/DX2 analytically  !
 ! D61   D(30,6,8,10)         -175.7293         calculate D2E/DX2 analytically  !
 ! D62   D(30,6,8,33)          -54.4414         calculate D2E/DX2 analytically  !
 ! D63   D(30,6,8,34)           60.6629         calculate D2E/DX2 analytically  !
 ! D64   D(5,7,9,11)            61.2877         calculate D2E/DX2 analytically  !
 ! D65   D(5,7,9,35)          -176.1721         calculate D2E/DX2 analytically  !
 ! D66   D(5,7,9,36)           -61.201          calculate D2E/DX2 analytically  !
 ! D67   D(31,7,9,11)         -177.2483         calculate D2E/DX2 analytically  !
 ! D68   D(31,7,9,35)          -54.7082         calculate D2E/DX2 analytically  !
 ! D69   D(31,7,9,36)           60.263          calculate D2E/DX2 analytically  !
 ! D70   D(32,7,9,11)          -62.1912         calculate D2E/DX2 analytically  !
 ! D71   D(32,7,9,35)           60.349          calculate D2E/DX2 analytically  !
 ! D72   D(32,7,9,36)          175.3201         calculate D2E/DX2 analytically  !
 ! D73   D(6,8,10,12)          171.983          calculate D2E/DX2 analytically  !
 ! D74   D(6,8,10,37)          -65.1365         calculate D2E/DX2 analytically  !
 ! D75   D(6,8,10,38)           50.1682         calculate D2E/DX2 analytically  !
 ! D76   D(33,8,10,12)          51.0123         calculate D2E/DX2 analytically  !
 ! D77   D(33,8,10,37)         173.8929         calculate D2E/DX2 analytically  !
 ! D78   D(33,8,10,38)         -70.8025         calculate D2E/DX2 analytically  !
 ! D79   D(34,8,10,12)         -64.6613         calculate D2E/DX2 analytically  !
 ! D80   D(34,8,10,37)          58.2193         calculate D2E/DX2 analytically  !
 ! D81   D(34,8,10,38)         173.524          calculate D2E/DX2 analytically  !
 ! D82   D(7,9,11,13)           61.7631         calculate D2E/DX2 analytically  !
 ! D83   D(7,9,11,39)          -62.1294         calculate D2E/DX2 analytically  !
 ! D84   D(7,9,11,40)         -177.1519         calculate D2E/DX2 analytically  !
 ! D85   D(35,9,11,13)         -60.7306         calculate D2E/DX2 analytically  !
 ! D86   D(35,9,11,39)         175.3769         calculate D2E/DX2 analytically  !
 ! D87   D(35,9,11,40)          60.3544         calculate D2E/DX2 analytically  !
 ! D88   D(36,9,11,13)        -175.7207         calculate D2E/DX2 analytically  !
 ! D89   D(36,9,11,39)          60.3869         calculate D2E/DX2 analytically  !
 ! D90   D(36,9,11,40)         -54.6357         calculate D2E/DX2 analytically  !
 ! D91   D(8,10,12,14)          64.1301         calculate D2E/DX2 analytically  !
 ! D92   D(8,10,12,41)         -59.8117         calculate D2E/DX2 analytically  !
 ! D93   D(8,10,12,42)        -174.2337         calculate D2E/DX2 analytically  !
 ! D94   D(37,10,12,14)        -59.4196         calculate D2E/DX2 analytically  !
 ! D95   D(37,10,12,41)        176.6386         calculate D2E/DX2 analytically  !
 ! D96   D(37,10,12,42)         62.2166         calculate D2E/DX2 analytically  !
 ! D97   D(38,10,12,14)       -173.9611         calculate D2E/DX2 analytically  !
 ! D98   D(38,10,12,41)         62.0971         calculate D2E/DX2 analytically  !
 ! D99   D(38,10,12,42)        -52.3249         calculate D2E/DX2 analytically  !
 ! D100  D(9,11,13,15)         172.872          calculate D2E/DX2 analytically  !
 ! D101  D(9,11,13,43)         -64.4891         calculate D2E/DX2 analytically  !
 ! D102  D(9,11,13,44)          51.2592         calculate D2E/DX2 analytically  !
 ! D103  D(39,11,13,15)        -63.4709         calculate D2E/DX2 analytically  !
 ! D104  D(39,11,13,43)         59.168          calculate D2E/DX2 analytically  !
 ! D105  D(39,11,13,44)        174.9163         calculate D2E/DX2 analytically  !
 ! D106  D(40,11,13,15)         51.9807         calculate D2E/DX2 analytically  !
 ! D107  D(40,11,13,43)        174.6196         calculate D2E/DX2 analytically  !
 ! D108  D(40,11,13,44)        -69.6321         calculate D2E/DX2 analytically  !
 ! D109  D(10,12,14,16)        -93.7683         calculate D2E/DX2 analytically  !
 ! D110  D(10,12,14,45)        145.0254         calculate D2E/DX2 analytically  !
 ! D111  D(10,12,14,46)         29.9148         calculate D2E/DX2 analytically  !
 ! D112  D(41,12,14,16)         30.2356         calculate D2E/DX2 analytically  !
 ! D113  D(41,12,14,45)        -90.9707         calculate D2E/DX2 analytically  !
 ! D114  D(41,12,14,46)        153.9187         calculate D2E/DX2 analytically  !
 ! D115  D(42,12,14,16)        145.3223         calculate D2E/DX2 analytically  !
 ! D116  D(42,12,14,45)         24.116          calculate D2E/DX2 analytically  !
 ! D117  D(42,12,14,46)        -90.9946         calculate D2E/DX2 analytically  !
 ! D118  D(11,13,15,17)         65.5514         calculate D2E/DX2 analytically  !
 ! D119  D(11,13,15,47)        -57.3304         calculate D2E/DX2 analytically  !
 ! D120  D(11,13,15,48)       -172.6438         calculate D2E/DX2 analytically  !
 ! D121  D(43,13,15,17)        -57.7206         calculate D2E/DX2 analytically  !
 ! D122  D(43,13,15,47)        179.3976         calculate D2E/DX2 analytically  !
 ! D123  D(43,13,15,48)         64.0842         calculate D2E/DX2 analytically  !
 ! D124  D(44,13,15,17)       -172.8974         calculate D2E/DX2 analytically  !
 ! D125  D(44,13,15,47)         64.2209         calculate D2E/DX2 analytically  !
 ! D126  D(44,13,15,48)        -51.0926         calculate D2E/DX2 analytically  !
 ! D127  D(12,14,16,18)        179.9507         calculate D2E/DX2 analytically  !
 ! D128  D(12,14,16,49)         57.3367         calculate D2E/DX2 analytically  !
 ! D129  D(12,14,16,50)        -58.5152         calculate D2E/DX2 analytically  !
 ! D130  D(45,14,16,18)        -58.1413         calculate D2E/DX2 analytically  !
 ! D131  D(45,14,16,49)        179.2448         calculate D2E/DX2 analytically  !
 ! D132  D(45,14,16,50)         63.3929         calculate D2E/DX2 analytically  !
 ! D133  D(46,14,16,18)         56.2844         calculate D2E/DX2 analytically  !
 ! D134  D(46,14,16,49)        -66.3296         calculate D2E/DX2 analytically  !
 ! D135  D(46,14,16,50)        177.8185         calculate D2E/DX2 analytically  !
 ! D136  D(13,15,17,51)        176.5522         calculate D2E/DX2 analytically  !
 ! D137  D(13,15,17,52)        -63.4123         calculate D2E/DX2 analytically  !
 ! D138  D(13,15,17,53)         56.8726         calculate D2E/DX2 analytically  !
 ! D139  D(47,15,17,51)        -60.7261         calculate D2E/DX2 analytically  !
 ! D140  D(47,15,17,52)         59.3095         calculate D2E/DX2 analytically  !
 ! D141  D(47,15,17,53)        179.5943         calculate D2E/DX2 analytically  !
 ! D142  D(48,15,17,51)         54.8859         calculate D2E/DX2 analytically  !
 ! D143  D(48,15,17,52)        174.9214         calculate D2E/DX2 analytically  !
 ! D144  D(48,15,17,53)        -64.7937         calculate D2E/DX2 analytically  !
 ! D145  D(14,16,18,54)        178.8443         calculate D2E/DX2 analytically  !
 ! D146  D(14,16,18,55)         58.6715         calculate D2E/DX2 analytically  !
 ! D147  D(14,16,18,56)        -61.0208         calculate D2E/DX2 analytically  !
 ! D148  D(49,16,18,54)        -58.1217         calculate D2E/DX2 analytically  !
 ! D149  D(49,16,18,55)       -178.2945         calculate D2E/DX2 analytically  !
 ! D150  D(49,16,18,56)         62.0132         calculate D2E/DX2 analytically  !
 ! D151  D(50,16,18,54)         57.7213         calculate D2E/DX2 analytically  !
 ! D152  D(50,16,18,55)        -62.4514         calculate D2E/DX2 analytically  !
 ! D153  D(50,16,18,56)        177.8562         calculate D2E/DX2 analytically  !
 --------------------------------------------------------------------------------
 Trust Radius=3.00D-01 FncErr=1.00D-07 GrdErr=1.00D-06
 Number of steps in this run=    326 maximum allowed number of steps=    336.
 GradGradGradGradGradGradGradGradGradGradGradGradGradGradGradGradGradGrad

 Leave Link  103 at Sun Apr 26 14:57:11 2015, MaxMem=   524288000 cpu:         0.1
 (Enter /opt/g09/l202.exe)
 Symmetry turned off by external request.
 Stoichiometry    C18H38
 Framework group  C1[X(C18H38)]
 Deg. of freedom   162
 Full point group                 C1      NOp   1
                          Input orientation:                          
 ---------------------------------------------------------------------
 Center     Atomic      Atomic             Coordinates (Angstroms)
 Number     Number       Type             X           Y           Z
 ---------------------------------------------------------------------
      1          6           0        7.822530    2.289010    3.048140
      2          6           0        6.921830    2.143380    4.285900
      3          6           0        5.695630    3.073700    4.303190
      4          6           0        9.085120    1.415640    3.125040
      5          6           0        4.663190    2.798270    3.197430
      6          6           0        9.962970    1.444520    1.858670
      7          6           0        3.413230    3.684950    3.316580
      8          6           0       10.538310    2.821390    1.471650
      9          6           0        2.398470    3.520680    2.168490
     10          6           0       11.473720    3.428450    2.530420
     11          6           0        1.787750    2.114540    2.008860
     12          6           0       12.219900    4.708370    2.104440
     13          6           0        0.978270    1.636540    3.226170
     14          6           0       11.328800    5.938640    1.810750
     15          6           0        0.225600    0.311360    3.004840
     16          6           0       10.930370    6.121490    0.335570
     17          6           0        1.138370   -0.906050    2.794240
     18          6           0       10.047330    7.355550    0.107150
     19          1           0        7.260860    2.024270    2.141640
     20          1           0        8.103780    3.346000    2.938030
     21          1           0        6.585630    1.099200    4.368400
     22          1           0        7.524780    2.339800    5.183580
     23          1           0        5.197940    2.981270    5.278740
     24          1           0        6.032660    4.118480    4.232120
     25          1           0        9.679170    1.714050    3.999780
     26          1           0        8.783200    0.375280    3.310080
     27          1           0        5.118940    2.956160    2.210150
     28          1           0        4.376070    1.737960    3.237700
     29          1           0       10.796240    0.740530    1.993550
     30          1           0        9.373700    1.060970    1.013880
     31          1           0        3.729160    4.737080    3.347960
     32          1           0        2.922700    3.491770    4.280550
     33          1           0       11.093230    2.710500    0.529400
     34          1           0        9.715260    3.514810    1.257670
     35          1           0        1.583690    4.243750    2.314890
     36          1           0        2.887460    3.799720    1.224550
     37          1           0       10.904890    3.646670    3.445140
     38          1           0       12.219950    2.671020    2.811690
     39          1           0        2.581950    1.392990    1.779580
     40          1           0        1.126930    2.124020    1.130250
     41          1           0       12.842710    4.492420    1.224030
     42          1           0       12.919260    4.963920    2.910500
     43          1           0        1.640000    1.526550    4.096870
     44          1           0        0.250320    2.416280    3.492270
     45          1           0       11.856770    6.847620    2.129810
     46          1           0       10.421330    5.888530    2.431070
     47          1           0       -0.446210    0.418380    2.141570
     48          1           0       -0.420190    0.125460    3.872880
     49          1           0       10.410160    5.227990   -0.029430
     50          1           0       11.844390    6.209370   -0.267960
     51          1           0        0.551700   -1.826590    2.703140
     52          1           0        1.742700   -0.810870    1.885870
     53          1           0        1.825520   -1.031890    3.640050
     54          1           0        9.793540    7.476530   -0.951520
     55          1           0       10.554610    8.270660    0.435550
     56          1           0        9.108320    7.278900    0.668320
 ---------------------------------------------------------------------
 Rotational constants (GHZ):      0.5615704      0.1002958      0.0915263
 Leave Link  202 at Sun Apr 26 14:57:11 2015, MaxMem=   524288000 cpu:         0.0
 (Enter /opt/g09/l301.exe)
 Standard basis: 6-311+G(d,p) (5D, 7F)
 Ernie: Thresh=  0.10000D-02 Tol=  0.10000D-05 Strict=F.
 AO basis set in the form of general basis input (Overlap normalization):
      1 0
 S   6 1.00       0.000000000000
      0.4563240000D+04  0.1966650249D-02
      0.6820240000D+03  0.1523060193D-01
      0.1549730000D+03  0.7612690966D-01
      0.4445530000D+02  0.2608010331D+00
      0.1302900000D+02  0.6164620782D+00
      0.1827730000D+01  0.2210060280D+00
 SP   3 1.00       0.000000000000
      0.2096420000D+02  0.1146600807D+00  0.4024869267D-01
      0.4803310000D+01  0.9199996477D+00  0.2375939567D+00
      0.1459330000D+01 -0.3030682134D-02  0.8158538515D+00
 SP   1 1.00       0.000000000000
      0.4834560000D+00  0.1000000000D+01  0.1000000000D+01
 SP   1 1.00       0.000000000000
      0.1455850000D+00  0.1000000000D+01  0.1000000000D+01
 SP   1 1.00       0.000000000000
      0.4380000000D-01  0.1000000000D+01  0.1000000000D+01
 D   1 1.00       0.000000000000
      0.6260000000D+00  0.1000000000D+01
 ****
      2 0
 S   6 1.00       0.000000000000
      0.4563240000D+04  0.1966650249D-02
      0.6820240000D+03  0.1523060193D-01
      0.1549730000D+03  0.7612690966D-01
      0.4445530000D+02  0.2608010331D+00
      0.1302900000D+02  0.6164620782D+00
      0.1827730000D+01  0.2210060280D+00
 SP   3 1.00       0.000000000000
      0.2096420000D+02  0.1146600807D+00  0.4024869267D-01
      0.4803310000D+01  0.9199996477D+00  0.2375939567D+00
      0.1459330000D+01 -0.3030682134D-02  0.8158538515D+00
 SP   1 1.00       0.000000000000
      0.4834560000D+00  0.1000000000D+01  0.1000000000D+01
 SP   1 1.00       0.000000000000
      0.1455850000D+00  0.1000000000D+01  0.1000000000D+01
 SP   1 1.00       0.000000000000
      0.4380000000D-01  0.1000000000D+01  0.1000000000D+01
 D   1 1.00       0.000000000000
      0.6260000000D+00  0.1000000000D+01
 ****
      3 0
 S   6 1.00       0.000000000000
      0.4563240000D+04  0.1966650249D-02
      0.6820240000D+03  0.1523060193D-01
      0.1549730000D+03  0.7612690966D-01
      0.4445530000D+02  0.2608010331D+00
      0.1302900000D+02  0.6164620782D+00
      0.1827730000D+01  0.2210060280D+00
 SP   3 1.00       0.000000000000
      0.2096420000D+02  0.1146600807D+00  0.4024869267D-01
      0.4803310000D+01  0.9199996477D+00  0.2375939567D+00
      0.1459330000D+01 -0.3030682134D-02  0.8158538515D+00
 SP   1 1.00       0.000000000000
      0.4834560000D+00  0.1000000000D+01  0.1000000000D+01
 SP   1 1.00       0.000000000000
      0.1455850000D+00  0.1000000000D+01  0.1000000000D+01
 SP   1 1.00       0.000000000000
      0.4380000000D-01  0.1000000000D+01  0.1000000000D+01
 D   1 1.00       0.000000000000
      0.6260000000D+00  0.1000000000D+01
 ****
      4 0
 S   6 1.00       0.000000000000
      0.4563240000D+04  0.1966650249D-02
      0.6820240000D+03  0.1523060193D-01
      0.1549730000D+03  0.7612690966D-01
      0.4445530000D+02  0.2608010331D+00
      0.1302900000D+02  0.6164620782D+00
      0.1827730000D+01  0.2210060280D+00
 SP   3 1.00       0.000000000000
      0.2096420000D+02  0.1146600807D+00  0.4024869267D-01
      0.4803310000D+01  0.9199996477D+00  0.2375939567D+00
      0.1459330000D+01 -0.3030682134D-02  0.8158538515D+00
 SP   1 1.00       0.000000000000
      0.4834560000D+00  0.1000000000D+01  0.1000000000D+01
 SP   1 1.00       0.000000000000
      0.1455850000D+00  0.1000000000D+01  0.1000000000D+01
 SP   1 1.00       0.000000000000
      0.4380000000D-01  0.1000000000D+01  0.1000000000D+01
 D   1 1.00       0.000000000000
      0.6260000000D+00  0.1000000000D+01
 ****
      5 0
 S   6 1.00       0.000000000000
      0.4563240000D+04  0.1966650249D-02
      0.6820240000D+03  0.1523060193D-01
      0.1549730000D+03  0.7612690966D-01
      0.4445530000D+02  0.2608010331D+00
      0.1302900000D+02  0.6164620782D+00
      0.1827730000D+01  0.2210060280D+00
 SP   3 1.00       0.000000000000
      0.2096420000D+02  0.1146600807D+00  0.4024869267D-01
      0.4803310000D+01  0.9199996477D+00  0.2375939567D+00
      0.1459330000D+01 -0.3030682134D-02  0.8158538515D+00
 SP   1 1.00       0.000000000000
      0.4834560000D+00  0.1000000000D+01  0.1000000000D+01
 SP   1 1.00       0.000000000000
      0.1455850000D+00  0.1000000000D+01  0.1000000000D+01
 SP   1 1.00       0.000000000000
      0.4380000000D-01  0.1000000000D+01  0.1000000000D+01
 D   1 1.00       0.000000000000
      0.6260000000D+00  0.1000000000D+01
 ****
      6 0
 S   6 1.00       0.000000000000
      0.4563240000D+04  0.1966650249D-02
      0.6820240000D+03  0.1523060193D-01
      0.1549730000D+03  0.7612690966D-01
      0.4445530000D+02  0.2608010331D+00
      0.1302900000D+02  0.6164620782D+00
      0.1827730000D+01  0.2210060280D+00
 SP   3 1.00       0.000000000000
      0.2096420000D+02  0.1146600807D+00  0.4024869267D-01
      0.4803310000D+01  0.9199996477D+00  0.2375939567D+00
      0.1459330000D+01 -0.3030682134D-02  0.8158538515D+00
 SP   1 1.00       0.000000000000
      0.4834560000D+00  0.1000000000D+01  0.1000000000D+01
 SP   1 1.00       0.000000000000
      0.1455850000D+00  0.1000000000D+01  0.1000000000D+01
 SP   1 1.00       0.000000000000
      0.4380000000D-01  0.1000000000D+01  0.1000000000D+01
 D   1 1.00       0.000000000000
      0.6260000000D+00  0.1000000000D+01
 ****
      7 0
 S   6 1.00       0.000000000000
      0.4563240000D+04  0.1966650249D-02
      0.6820240000D+03  0.1523060193D-01
      0.1549730000D+03  0.7612690966D-01
      0.4445530000D+02  0.2608010331D+00
      0.1302900000D+02  0.6164620782D+00
      0.1827730000D+01  0.2210060280D+00
 SP   3 1.00       0.000000000000
      0.2096420000D+02  0.1146600807D+00  0.4024869267D-01
      0.4803310000D+01  0.9199996477D+00  0.2375939567D+00
      0.1459330000D+01 -0.3030682134D-02  0.8158538515D+00
 SP   1 1.00       0.000000000000
      0.4834560000D+00  0.1000000000D+01  0.1000000000D+01
 SP   1 1.00       0.000000000000
      0.1455850000D+00  0.1000000000D+01  0.1000000000D+01
 SP   1 1.00       0.000000000000
      0.4380000000D-01  0.1000000000D+01  0.1000000000D+01
 D   1 1.00       0.000000000000
      0.6260000000D+00  0.1000000000D+01
 ****
      8 0
 S   6 1.00       0.000000000000
      0.4563240000D+04  0.1966650249D-02
      0.6820240000D+03  0.1523060193D-01
      0.1549730000D+03  0.7612690966D-01
      0.4445530000D+02  0.2608010331D+00
      0.1302900000D+02  0.6164620782D+00
      0.1827730000D+01  0.2210060280D+00
 SP   3 1.00       0.000000000000
      0.2096420000D+02  0.1146600807D+00  0.4024869267D-01
      0.4803310000D+01  0.9199996477D+00  0.2375939567D+00
      0.1459330000D+01 -0.3030682134D-02  0.8158538515D+00
 SP   1 1.00       0.000000000000
      0.4834560000D+00  0.1000000000D+01  0.1000000000D+01
 SP   1 1.00       0.000000000000
      0.1455850000D+00  0.1000000000D+01  0.1000000000D+01
 SP   1 1.00       0.000000000000
      0.4380000000D-01  0.1000000000D+01  0.1000000000D+01
 D   1 1.00       0.000000000000
      0.6260000000D+00  0.1000000000D+01
 ****
      9 0
 S   6 1.00       0.000000000000
      0.4563240000D+04  0.1966650249D-02
      0.6820240000D+03  0.1523060193D-01
      0.1549730000D+03  0.7612690966D-01
      0.4445530000D+02  0.2608010331D+00
      0.1302900000D+02  0.6164620782D+00
      0.1827730000D+01  0.2210060280D+00
 SP   3 1.00       0.000000000000
      0.2096420000D+02  0.1146600807D+00  0.4024869267D-01
      0.4803310000D+01  0.9199996477D+00  0.2375939567D+00
      0.1459330000D+01 -0.3030682134D-02  0.8158538515D+00
 SP   1 1.00       0.000000000000
      0.4834560000D+00  0.1000000000D+01  0.1000000000D+01
 SP   1 1.00       0.000000000000
      0.1455850000D+00  0.1000000000D+01  0.1000000000D+01
 SP   1 1.00       0.000000000000
      0.4380000000D-01  0.1000000000D+01  0.1000000000D+01
 D   1 1.00       0.000000000000
      0.6260000000D+00  0.1000000000D+01
 ****
     10 0
 S   6 1.00       0.000000000000
      0.4563240000D+04  0.1966650249D-02
      0.6820240000D+03  0.1523060193D-01
      0.1549730000D+03  0.7612690966D-01
      0.4445530000D+02  0.2608010331D+00
      0.1302900000D+02  0.6164620782D+00
      0.1827730000D+01  0.2210060280D+00
 SP   3 1.00       0.000000000000
      0.2096420000D+02  0.1146600807D+00  0.4024869267D-01
      0.4803310000D+01  0.9199996477D+00  0.2375939567D+00
      0.1459330000D+01 -0.3030682134D-02  0.8158538515D+00
 SP   1 1.00       0.000000000000
      0.4834560000D+00  0.1000000000D+01  0.1000000000D+01
 SP   1 1.00       0.000000000000
      0.1455850000D+00  0.1000000000D+01  0.1000000000D+01
 SP   1 1.00       0.000000000000
      0.4380000000D-01  0.1000000000D+01  0.1000000000D+01
 D   1 1.00       0.000000000000
      0.6260000000D+00  0.1000000000D+01
 ****
     11 0
 S   6 1.00       0.000000000000
      0.4563240000D+04  0.1966650249D-02
      0.6820240000D+03  0.1523060193D-01
      0.1549730000D+03  0.7612690966D-01
      0.4445530000D+02  0.2608010331D+00
      0.1302900000D+02  0.6164620782D+00
      0.1827730000D+01  0.2210060280D+00
 SP   3 1.00       0.000000000000
      0.2096420000D+02  0.1146600807D+00  0.4024869267D-01
      0.4803310000D+01  0.9199996477D+00  0.2375939567D+00
      0.1459330000D+01 -0.3030682134D-02  0.8158538515D+00
 SP   1 1.00       0.000000000000
      0.4834560000D+00  0.1000000000D+01  0.1000000000D+01
 SP   1 1.00       0.000000000000
      0.1455850000D+00  0.1000000000D+01  0.1000000000D+01
 SP   1 1.00       0.000000000000
      0.4380000000D-01  0.1000000000D+01  0.1000000000D+01
 D   1 1.00       0.000000000000
      0.6260000000D+00  0.1000000000D+01
 ****
     12 0
 S   6 1.00       0.000000000000
      0.4563240000D+04  0.1966650249D-02
      0.6820240000D+03  0.1523060193D-01
      0.1549730000D+03  0.7612690966D-01
      0.4445530000D+02  0.2608010331D+00
      0.1302900000D+02  0.6164620782D+00
      0.1827730000D+01  0.2210060280D+00
 SP   3 1.00       0.000000000000
      0.2096420000D+02  0.1146600807D+00  0.4024869267D-01
      0.4803310000D+01  0.9199996477D+00  0.2375939567D+00
      0.1459330000D+01 -0.3030682134D-02  0.8158538515D+00
 SP   1 1.00       0.000000000000
      0.4834560000D+00  0.1000000000D+01  0.1000000000D+01
 SP   1 1.00       0.000000000000
      0.1455850000D+00  0.1000000000D+01  0.1000000000D+01
 SP   1 1.00       0.000000000000
      0.4380000000D-01  0.1000000000D+01  0.1000000000D+01
 D   1 1.00       0.000000000000
      0.6260000000D+00  0.1000000000D+01
 ****
     13 0
 S   6 1.00       0.000000000000
      0.4563240000D+04  0.1966650249D-02
      0.6820240000D+03  0.1523060193D-01
      0.1549730000D+03  0.7612690966D-01
      0.4445530000D+02  0.2608010331D+00
      0.1302900000D+02  0.6164620782D+00
      0.1827730000D+01  0.2210060280D+00
 SP   3 1.00       0.000000000000
      0.2096420000D+02  0.1146600807D+00  0.4024869267D-01
      0.4803310000D+01  0.9199996477D+00  0.2375939567D+00
      0.1459330000D+01 -0.3030682134D-02  0.8158538515D+00
 SP   1 1.00       0.000000000000
      0.4834560000D+00  0.1000000000D+01  0.1000000000D+01
 SP   1 1.00       0.000000000000
      0.1455850000D+00  0.1000000000D+01  0.1000000000D+01
 SP   1 1.00       0.000000000000
      0.4380000000D-01  0.1000000000D+01  0.1000000000D+01
 D   1 1.00       0.000000000000
      0.6260000000D+00  0.1000000000D+01
 ****
     14 0
 S   6 1.00       0.000000000000
      0.4563240000D+04  0.1966650249D-02
      0.6820240000D+03  0.1523060193D-01
      0.1549730000D+03  0.7612690966D-01
      0.4445530000D+02  0.2608010331D+00
      0.1302900000D+02  0.6164620782D+00
      0.1827730000D+01  0.2210060280D+00
 SP   3 1.00       0.000000000000
      0.2096420000D+02  0.1146600807D+00  0.4024869267D-01
      0.4803310000D+01  0.9199996477D+00  0.2375939567D+00
      0.1459330000D+01 -0.3030682134D-02  0.8158538515D+00
 SP   1 1.00       0.000000000000
      0.4834560000D+00  0.1000000000D+01  0.1000000000D+01
 SP   1 1.00       0.000000000000
      0.1455850000D+00  0.1000000000D+01  0.1000000000D+01
 SP   1 1.00       0.000000000000
      0.4380000000D-01  0.1000000000D+01  0.1000000000D+01
 D   1 1.00       0.000000000000
      0.6260000000D+00  0.1000000000D+01
 ****
     15 0
 S   6 1.00       0.000000000000
      0.4563240000D+04  0.1966650249D-02
      0.6820240000D+03  0.1523060193D-01
      0.1549730000D+03  0.7612690966D-01
      0.4445530000D+02  0.2608010331D+00
      0.1302900000D+02  0.6164620782D+00
      0.1827730000D+01  0.2210060280D+00
 SP   3 1.00       0.000000000000
      0.2096420000D+02  0.1146600807D+00  0.4024869267D-01
      0.4803310000D+01  0.9199996477D+00  0.2375939567D+00
      0.1459330000D+01 -0.3030682134D-02  0.8158538515D+00
 SP   1 1.00       0.000000000000
      0.4834560000D+00  0.1000000000D+01  0.1000000000D+01
 SP   1 1.00       0.000000000000
      0.1455850000D+00  0.1000000000D+01  0.1000000000D+01
 SP   1 1.00       0.000000000000
      0.4380000000D-01  0.1000000000D+01  0.1000000000D+01
 D   1 1.00       0.000000000000
      0.6260000000D+00  0.1000000000D+01
 ****
     16 0
 S   6 1.00       0.000000000000
      0.4563240000D+04  0.1966650249D-02
      0.6820240000D+03  0.1523060193D-01
      0.1549730000D+03  0.7612690966D-01
      0.4445530000D+02  0.2608010331D+00
      0.1302900000D+02  0.6164620782D+00
      0.1827730000D+01  0.2210060280D+00
 SP   3 1.00       0.000000000000
      0.2096420000D+02  0.1146600807D+00  0.4024869267D-01
      0.4803310000D+01  0.9199996477D+00  0.2375939567D+00
      0.1459330000D+01 -0.3030682134D-02  0.8158538515D+00
 SP   1 1.00       0.000000000000
      0.4834560000D+00  0.1000000000D+01  0.1000000000D+01
 SP   1 1.00       0.000000000000
      0.1455850000D+00  0.1000000000D+01  0.1000000000D+01
 SP   1 1.00       0.000000000000
      0.4380000000D-01  0.1000000000D+01  0.1000000000D+01
 D   1 1.00       0.000000000000
      0.6260000000D+00  0.1000000000D+01
 ****
     17 0
 S   6 1.00       0.000000000000
      0.4563240000D+04  0.1966650249D-02
      0.6820240000D+03  0.1523060193D-01
      0.1549730000D+03  0.7612690966D-01
      0.4445530000D+02  0.2608010331D+00
      0.1302900000D+02  0.6164620782D+00
      0.1827730000D+01  0.2210060280D+00
 SP   3 1.00       0.000000000000
      0.2096420000D+02  0.1146600807D+00  0.4024869267D-01
      0.4803310000D+01  0.9199996477D+00  0.2375939567D+00
      0.1459330000D+01 -0.3030682134D-02  0.8158538515D+00
 SP   1 1.00       0.000000000000
      0.4834560000D+00  0.1000000000D+01  0.1000000000D+01
 SP   1 1.00       0.000000000000
      0.1455850000D+00  0.1000000000D+01  0.1000000000D+01
 SP   1 1.00       0.000000000000
      0.4380000000D-01  0.1000000000D+01  0.1000000000D+01
 D   1 1.00       0.000000000000
      0.6260000000D+00  0.1000000000D+01
 ****
     18 0
 S   6 1.00       0.000000000000
      0.4563240000D+04  0.1966650249D-02
      0.6820240000D+03  0.1523060193D-01
      0.1549730000D+03  0.7612690966D-01
      0.4445530000D+02  0.2608010331D+00
      0.1302900000D+02  0.6164620782D+00
      0.1827730000D+01  0.2210060280D+00
 SP   3 1.00       0.000000000000
      0.2096420000D+02  0.1146600807D+00  0.4024869267D-01
      0.4803310000D+01  0.9199996477D+00  0.2375939567D+00
      0.1459330000D+01 -0.3030682134D-02  0.8158538515D+00
 SP   1 1.00       0.000000000000
      0.4834560000D+00  0.1000000000D+01  0.1000000000D+01
 SP   1 1.00       0.000000000000
      0.1455850000D+00  0.1000000000D+01  0.1000000000D+01
 SP   1 1.00       0.000000000000
      0.4380000000D-01  0.1000000000D+01  0.1000000000D+01
 D   1 1.00       0.000000000000
      0.6260000000D+00  0.1000000000D+01
 ****
     19 0
 S   3 1.00       0.000000000000
      0.3386500000D+02  0.2549381454D-01
      0.5094790000D+01  0.1903731086D+00
      0.1158790000D+01  0.8521614860D+00
 S   1 1.00       0.000000000000
      0.3258400000D+00  0.1000000000D+01
 S   1 1.00       0.000000000000
      0.1027410000D+00  0.1000000000D+01
 P   1 1.00       0.000000000000
      0.7500000000D+00  0.1000000000D+01
 ****
     20 0
 S   3 1.00       0.000000000000
      0.3386500000D+02  0.2549381454D-01
      0.5094790000D+01  0.1903731086D+00
      0.1158790000D+01  0.8521614860D+00
 S   1 1.00       0.000000000000
      0.3258400000D+00  0.1000000000D+01
 S   1 1.00       0.000000000000
      0.1027410000D+00  0.1000000000D+01
 P   1 1.00       0.000000000000
      0.7500000000D+00  0.1000000000D+01
 ****
     21 0
 S   3 1.00       0.000000000000
      0.3386500000D+02  0.2549381454D-01
      0.5094790000D+01  0.1903731086D+00
      0.1158790000D+01  0.8521614860D+00
 S   1 1.00       0.000000000000
      0.3258400000D+00  0.1000000000D+01
 S   1 1.00       0.000000000000
      0.1027410000D+00  0.1000000000D+01
 P   1 1.00       0.000000000000
      0.7500000000D+00  0.1000000000D+01
 ****
     22 0
 S   3 1.00       0.000000000000
      0.3386500000D+02  0.2549381454D-01
      0.5094790000D+01  0.1903731086D+00
      0.1158790000D+01  0.8521614860D+00
 S   1 1.00       0.000000000000
      0.3258400000D+00  0.1000000000D+01
 S   1 1.00       0.000000000000
      0.1027410000D+00  0.1000000000D+01
 P   1 1.00       0.000000000000
      0.7500000000D+00  0.1000000000D+01
 ****
     23 0
 S   3 1.00       0.000000000000
      0.3386500000D+02  0.2549381454D-01
      0.5094790000D+01  0.1903731086D+00
      0.1158790000D+01  0.8521614860D+00
 S   1 1.00       0.000000000000
      0.3258400000D+00  0.1000000000D+01
 S   1 1.00       0.000000000000
      0.1027410000D+00  0.1000000000D+01
 P   1 1.00       0.000000000000
      0.7500000000D+00  0.1000000000D+01
 ****
     24 0
 S   3 1.00       0.000000000000
      0.3386500000D+02  0.2549381454D-01
      0.5094790000D+01  0.1903731086D+00
      0.1158790000D+01  0.8521614860D+00
 S   1 1.00       0.000000000000
      0.3258400000D+00  0.1000000000D+01
 S   1 1.00       0.000000000000
      0.1027410000D+00  0.1000000000D+01
 P   1 1.00       0.000000000000
      0.7500000000D+00  0.1000000000D+01
 ****
     25 0
 S   3 1.00       0.000000000000
      0.3386500000D+02  0.2549381454D-01
      0.5094790000D+01  0.1903731086D+00
      0.1158790000D+01  0.8521614860D+00
 S   1 1.00       0.000000000000
      0.3258400000D+00  0.1000000000D+01
 S   1 1.00       0.000000000000
      0.1027410000D+00  0.1000000000D+01
 P   1 1.00       0.000000000000
      0.7500000000D+00  0.1000000000D+01
 ****
     26 0
 S   3 1.00       0.000000000000
      0.3386500000D+02  0.2549381454D-01
      0.5094790000D+01  0.1903731086D+00
      0.1158790000D+01  0.8521614860D+00
 S   1 1.00       0.000000000000
      0.3258400000D+00  0.1000000000D+01
 S   1 1.00       0.000000000000
      0.1027410000D+00  0.1000000000D+01
 P   1 1.00       0.000000000000
      0.7500000000D+00  0.1000000000D+01
 ****
     27 0
 S   3 1.00       0.000000000000
      0.3386500000D+02  0.2549381454D-01
      0.5094790000D+01  0.1903731086D+00
      0.1158790000D+01  0.8521614860D+00
 S   1 1.00       0.000000000000
      0.3258400000D+00  0.1000000000D+01
 S   1 1.00       0.000000000000
      0.1027410000D+00  0.1000000000D+01
 P   1 1.00       0.000000000000
      0.7500000000D+00  0.1000000000D+01
 ****
     28 0
 S   3 1.00       0.000000000000
      0.3386500000D+02  0.2549381454D-01
      0.5094790000D+01  0.1903731086D+00
      0.1158790000D+01  0.8521614860D+00
 S   1 1.00       0.000000000000
      0.3258400000D+00  0.1000000000D+01
 S   1 1.00       0.000000000000
      0.1027410000D+00  0.1000000000D+01
 P   1 1.00       0.000000000000
      0.7500000000D+00  0.1000000000D+01
 ****
     29 0
 S   3 1.00       0.000000000000
      0.3386500000D+02  0.2549381454D-01
      0.5094790000D+01  0.1903731086D+00
      0.1158790000D+01  0.8521614860D+00
 S   1 1.00       0.000000000000
      0.3258400000D+00  0.1000000000D+01
 S   1 1.00       0.000000000000
      0.1027410000D+00  0.1000000000D+01
 P   1 1.00       0.000000000000
      0.7500000000D+00  0.1000000000D+01
 ****
     30 0
 S   3 1.00       0.000000000000
      0.3386500000D+02  0.2549381454D-01
      0.5094790000D+01  0.1903731086D+00
      0.1158790000D+01  0.8521614860D+00
 S   1 1.00       0.000000000000
      0.3258400000D+00  0.1000000000D+01
 S   1 1.00       0.000000000000
      0.1027410000D+00  0.1000000000D+01
 P   1 1.00       0.000000000000
      0.7500000000D+00  0.1000000000D+01
 ****
     31 0
 S   3 1.00       0.000000000000
      0.3386500000D+02  0.2549381454D-01
      0.5094790000D+01  0.1903731086D+00
      0.1158790000D+01  0.8521614860D+00
 S   1 1.00       0.000000000000
      0.3258400000D+00  0.1000000000D+01
 S   1 1.00       0.000000000000
      0.1027410000D+00  0.1000000000D+01
 P   1 1.00       0.000000000000
      0.7500000000D+00  0.1000000000D+01
 ****
     32 0
 S   3 1.00       0.000000000000
      0.3386500000D+02  0.2549381454D-01
      0.5094790000D+01  0.1903731086D+00
      0.1158790000D+01  0.8521614860D+00
 S   1 1.00       0.000000000000
      0.3258400000D+00  0.1000000000D+01
 S   1 1.00       0.000000000000
      0.1027410000D+00  0.1000000000D+01
 P   1 1.00       0.000000000000
      0.7500000000D+00  0.1000000000D+01
 ****
     33 0
 S   3 1.00       0.000000000000
      0.3386500000D+02  0.2549381454D-01
      0.5094790000D+01  0.1903731086D+00
      0.1158790000D+01  0.8521614860D+00
 S   1 1.00       0.000000000000
      0.3258400000D+00  0.1000000000D+01
 S   1 1.00       0.000000000000
      0.1027410000D+00  0.1000000000D+01
 P   1 1.00       0.000000000000
      0.7500000000D+00  0.1000000000D+01
 ****
     34 0
 S   3 1.00       0.000000000000
      0.3386500000D+02  0.2549381454D-01
      0.5094790000D+01  0.1903731086D+00
      0.1158790000D+01  0.8521614860D+00
 S   1 1.00       0.000000000000
      0.3258400000D+00  0.1000000000D+01
 S   1 1.00       0.000000000000
      0.1027410000D+00  0.1000000000D+01
 P   1 1.00       0.000000000000
      0.7500000000D+00  0.1000000000D+01
 ****
     35 0
 S   3 1.00       0.000000000000
      0.3386500000D+02  0.2549381454D-01
      0.5094790000D+01  0.1903731086D+00
      0.1158790000D+01  0.8521614860D+00
 S   1 1.00       0.000000000000
      0.3258400000D+00  0.1000000000D+01
 S   1 1.00       0.000000000000
      0.1027410000D+00  0.1000000000D+01
 P   1 1.00       0.000000000000
      0.7500000000D+00  0.1000000000D+01
 ****
     36 0
 S   3 1.00       0.000000000000
      0.3386500000D+02  0.2549381454D-01
      0.5094790000D+01  0.1903731086D+00
      0.1158790000D+01  0.8521614860D+00
 S   1 1.00       0.000000000000
      0.3258400000D+00  0.1000000000D+01
 S   1 1.00       0.000000000000
      0.1027410000D+00  0.1000000000D+01
 P   1 1.00       0.000000000000
      0.7500000000D+00  0.1000000000D+01
 ****
     37 0
 S   3 1.00       0.000000000000
      0.3386500000D+02  0.2549381454D-01
      0.5094790000D+01  0.1903731086D+00
      0.1158790000D+01  0.8521614860D+00
 S   1 1.00       0.000000000000
      0.3258400000D+00  0.1000000000D+01
 S   1 1.00       0.000000000000
      0.1027410000D+00  0.1000000000D+01
 P   1 1.00       0.000000000000
      0.7500000000D+00  0.1000000000D+01
 ****
     38 0
 S   3 1.00       0.000000000000
      0.3386500000D+02  0.2549381454D-01
      0.5094790000D+01  0.1903731086D+00
      0.1158790000D+01  0.8521614860D+00
 S   1 1.00       0.000000000000
      0.3258400000D+00  0.1000000000D+01
 S   1 1.00       0.000000000000
      0.1027410000D+00  0.1000000000D+01
 P   1 1.00       0.000000000000
      0.7500000000D+00  0.1000000000D+01
 ****
     39 0
 S   3 1.00       0.000000000000
      0.3386500000D+02  0.2549381454D-01
      0.5094790000D+01  0.1903731086D+00
      0.1158790000D+01  0.8521614860D+00
 S   1 1.00       0.000000000000
      0.3258400000D+00  0.1000000000D+01
 S   1 1.00       0.000000000000
      0.1027410000D+00  0.1000000000D+01
 P   1 1.00       0.000000000000
      0.7500000000D+00  0.1000000000D+01
 ****
     40 0
 S   3 1.00       0.000000000000
      0.3386500000D+02  0.2549381454D-01
      0.5094790000D+01  0.1903731086D+00
      0.1158790000D+01  0.8521614860D+00
 S   1 1.00       0.000000000000
      0.3258400000D+00  0.1000000000D+01
 S   1 1.00       0.000000000000
      0.1027410000D+00  0.1000000000D+01
 P   1 1.00       0.000000000000
      0.7500000000D+00  0.1000000000D+01
 ****
     41 0
 S   3 1.00       0.000000000000
      0.3386500000D+02  0.2549381454D-01
      0.5094790000D+01  0.1903731086D+00
      0.1158790000D+01  0.8521614860D+00
 S   1 1.00       0.000000000000
      0.3258400000D+00  0.1000000000D+01
 S   1 1.00       0.000000000000
      0.1027410000D+00  0.1000000000D+01
 P   1 1.00       0.000000000000
      0.7500000000D+00  0.1000000000D+01
 ****
     42 0
 S   3 1.00       0.000000000000
      0.3386500000D+02  0.2549381454D-01
      0.5094790000D+01  0.1903731086D+00
      0.1158790000D+01  0.8521614860D+00
 S   1 1.00       0.000000000000
      0.3258400000D+00  0.1000000000D+01
 S   1 1.00       0.000000000000
      0.1027410000D+00  0.1000000000D+01
 P   1 1.00       0.000000000000
      0.7500000000D+00  0.1000000000D+01
 ****
     43 0
 S   3 1.00       0.000000000000
      0.3386500000D+02  0.2549381454D-01
      0.5094790000D+01  0.1903731086D+00
      0.1158790000D+01  0.8521614860D+00
 S   1 1.00       0.000000000000
      0.3258400000D+00  0.1000000000D+01
 S   1 1.00       0.000000000000
      0.1027410000D+00  0.1000000000D+01
 P   1 1.00       0.000000000000
      0.7500000000D+00  0.1000000000D+01
 ****
     44 0
 S   3 1.00       0.000000000000
      0.3386500000D+02  0.2549381454D-01
      0.5094790000D+01  0.1903731086D+00
      0.1158790000D+01  0.8521614860D+00
 S   1 1.00       0.000000000000
      0.3258400000D+00  0.1000000000D+01
 S   1 1.00       0.000000000000
      0.1027410000D+00  0.1000000000D+01
 P   1 1.00       0.000000000000
      0.7500000000D+00  0.1000000000D+01
 ****
     45 0
 S   3 1.00       0.000000000000
      0.3386500000D+02  0.2549381454D-01
      0.5094790000D+01  0.1903731086D+00
      0.1158790000D+01  0.8521614860D+00
 S   1 1.00       0.000000000000
      0.3258400000D+00  0.1000000000D+01
 S   1 1.00       0.000000000000
      0.1027410000D+00  0.1000000000D+01
 P   1 1.00       0.000000000000
      0.7500000000D+00  0.1000000000D+01
 ****
     46 0
 S   3 1.00       0.000000000000
      0.3386500000D+02  0.2549381454D-01
      0.5094790000D+01  0.1903731086D+00
      0.1158790000D+01  0.8521614860D+00
 S   1 1.00       0.000000000000
      0.3258400000D+00  0.1000000000D+01
 S   1 1.00       0.000000000000
      0.1027410000D+00  0.1000000000D+01
 P   1 1.00       0.000000000000
      0.7500000000D+00  0.1000000000D+01
 ****
     47 0
 S   3 1.00       0.000000000000
      0.3386500000D+02  0.2549381454D-01
      0.5094790000D+01  0.1903731086D+00
      0.1158790000D+01  0.8521614860D+00
 S   1 1.00       0.000000000000
      0.3258400000D+00  0.1000000000D+01
 S   1 1.00       0.000000000000
      0.1027410000D+00  0.1000000000D+01
 P   1 1.00       0.000000000000
      0.7500000000D+00  0.1000000000D+01
 ****
     48 0
 S   3 1.00       0.000000000000
      0.3386500000D+02  0.2549381454D-01
      0.5094790000D+01  0.1903731086D+00
      0.1158790000D+01  0.8521614860D+00
 S   1 1.00       0.000000000000
      0.3258400000D+00  0.1000000000D+01
 S   1 1.00       0.000000000000
      0.1027410000D+00  0.1000000000D+01
 P   1 1.00       0.000000000000
      0.7500000000D+00  0.1000000000D+01
 ****
     49 0
 S   3 1.00       0.000000000000
      0.3386500000D+02  0.2549381454D-01
      0.5094790000D+01  0.1903731086D+00
      0.1158790000D+01  0.8521614860D+00
 S   1 1.00       0.000000000000
      0.3258400000D+00  0.1000000000D+01
 S   1 1.00       0.000000000000
      0.1027410000D+00  0.1000000000D+01
 P   1 1.00       0.000000000000
      0.7500000000D+00  0.1000000000D+01
 ****
     50 0
 S   3 1.00       0.000000000000
      0.3386500000D+02  0.2549381454D-01
      0.5094790000D+01  0.1903731086D+00
      0.1158790000D+01  0.8521614860D+00
 S   1 1.00       0.000000000000
      0.3258400000D+00  0.1000000000D+01
 S   1 1.00       0.000000000000
      0.1027410000D+00  0.1000000000D+01
 P   1 1.00       0.000000000000
      0.7500000000D+00  0.1000000000D+01
 ****
     51 0
 S   3 1.00       0.000000000000
      0.3386500000D+02  0.2549381454D-01
      0.5094790000D+01  0.1903731086D+00
      0.1158790000D+01  0.8521614860D+00
 S   1 1.00       0.000000000000
      0.3258400000D+00  0.1000000000D+01
 S   1 1.00       0.000000000000
      0.1027410000D+00  0.1000000000D+01
 P   1 1.00       0.000000000000
      0.7500000000D+00  0.1000000000D+01
 ****
     52 0
 S   3 1.00       0.000000000000
      0.3386500000D+02  0.2549381454D-01
      0.5094790000D+01  0.1903731086D+00
      0.1158790000D+01  0.8521614860D+00
 S   1 1.00       0.000000000000
      0.3258400000D+00  0.1000000000D+01
 S   1 1.00       0.000000000000
      0.1027410000D+00  0.1000000000D+01
 P   1 1.00       0.000000000000
      0.7500000000D+00  0.1000000000D+01
 ****
     53 0
 S   3 1.00       0.000000000000
      0.3386500000D+02  0.2549381454D-01
      0.5094790000D+01  0.1903731086D+00
      0.1158790000D+01  0.8521614860D+00
 S   1 1.00       0.000000000000
      0.3258400000D+00  0.1000000000D+01
 S   1 1.00       0.000000000000
      0.1027410000D+00  0.1000000000D+01
 P   1 1.00       0.000000000000
      0.7500000000D+00  0.1000000000D+01
 ****
     54 0
 S   3 1.00       0.000000000000
      0.3386500000D+02  0.2549381454D-01
      0.5094790000D+01  0.1903731086D+00
      0.1158790000D+01  0.8521614860D+00
 S   1 1.00       0.000000000000
      0.3258400000D+00  0.1000000000D+01
 S   1 1.00       0.000000000000
      0.1027410000D+00  0.1000000000D+01
 P   1 1.00       0.000000000000
      0.7500000000D+00  0.1000000000D+01
 ****
     55 0
 S   3 1.00       0.000000000000
      0.3386500000D+02  0.2549381454D-01
      0.5094790000D+01  0.1903731086D+00
      0.1158790000D+01  0.8521614860D+00
 S   1 1.00       0.000000000000
      0.3258400000D+00  0.1000000000D+01
 S   1 1.00       0.000000000000
      0.1027410000D+00  0.1000000000D+01
 P   1 1.00       0.000000000000
      0.7500000000D+00  0.1000000000D+01
 ****
     56 0
 S   3 1.00       0.000000000000
      0.3386500000D+02  0.2549381454D-01
      0.5094790000D+01  0.1903731086D+00
      0.1158790000D+01  0.8521614860D+00
 S   1 1.00       0.000000000000
      0.3258400000D+00  0.1000000000D+01
 S   1 1.00       0.000000000000
      0.1027410000D+00  0.1000000000D+01
 P   1 1.00       0.000000000000
      0.7500000000D+00  0.1000000000D+01
 ****

   624 basis functions,   952 primitive gaussians,   642 cartesian basis functions
    73 alpha electrons       73 beta electrons
       nuclear repulsion energy      1308.7068480082 Hartrees.
 IExCor= 1614 DFT=T Ex+Corr=B971 ExCW=0 ScaHFX=  0.210000
 ScaDFX=  1.000000  1.000000  1.000000  1.000000 ScalE2=  1.000000  1.000000
 IRadAn=      5 IRanWt=     -1 IRanGd=            0 ICorTp=0 IEmpDi=  4
 NAtoms=   56 NActive=   56 NUniq=   56 SFac= 1.00D+00 NAtFMM=   60 NAOKFM=F Big=F
 Integral buffers will be    131072 words long.
 Raffenetti 2 integral format.
 Two-electron integral symmetry is turned off.
 Leave Link  301 at Sun Apr 26 14:57:11 2015, MaxMem=   524288000 cpu:         0.4
 (Enter /opt/g09/l302.exe)
 NPDir=0 NMtPBC=     1 NCelOv=     1 NCel=       1 NClECP=     1 NCelD=      1
         NCelK=      1 NCelE2=     1 NClLst=     1 CellRange=     0.0.
 One-electron integrals computed using PRISM.
 NBasis=   624 RedAO= T EigKep=  3.71D-06  NBF=   624
 NBsUse=   624 1.00D-06 EigRej= -1.00D+00 NBFU=   624
 Precomputing XC quadrature grid using
 IXCGrd= 4 IRadAn=           5 IRanWt=          -1 IRanGd=           0 AccXCQ= 0.00D+00.
 Generated NRdTot=       0 NPtTot=           0 NUsed=           0 NTot=          32
 NSgBfM=   628   628   628   628   628 MxSgAt=    56 MxSgA2=    56.
 Leave Link  302 at Sun Apr 26 14:57:13 2015, MaxMem=   524288000 cpu:        14.5
 (Enter /opt/g09/l303.exe)
 DipDrv:  MaxL=1.
 Leave Link  303 at Sun Apr 26 14:57:13 2015, MaxMem=   524288000 cpu:         1.0
 (Enter /opt/g09/l401.exe)
 ExpMin= 4.38D-02 ExpMax= 4.56D+03 ExpMxC= 6.82D+02 IAcc=3 IRadAn=         5 AccDes= 0.00D+00
 Harris functional with IExCor= 1614 and IRadAn=       5 diagonalized for initial guess.
 HarFok:  IExCor= 1614 AccDes= 0.00D+00 IRadAn=         5 IDoV= 1 UseB2=F ITyADJ=14
 ICtDFT=  3500011 ScaDFX=  1.000000  1.000000  1.000000  1.000000
 FoFCou: FMM=F IPFlag=           0 FMFlag=      100000 FMFlg1=           0
         NFxFlg=           0 DoJE=T BraDBF=F KetDBF=T FulRan=T
         wScrn=  0.000000 ICntrl=     500 IOpCl=  0 I1Cent=   200000004 NGrid=           0
         NMat0=    1 NMatS0=      1 NMatT0=    0 NMatD0=    1 NMtDS0=    0 NMtDT0=    0
 Symmetry not used in FoFCou.
 Harris En= -686.886751490624    
 JPrj=0 DoOrth=F DoCkMO=T.
 Mixing orbitals, IMix= 1 IMixAn=  0 NRI=1 NE=   73 Coef=  7.07106781D-01  7.07106781D-01
 Leave Link  401 at Sun Apr 26 14:57:26 2015, MaxMem=   524288000 cpu:       101.8
 (Enter /opt/g09/l502.exe)
 Closed shell SCF:
 Using DIIS extrapolation, IDIIS=  1040.
 Two-electron integral symmetry not used.
 IVT=     1264142 IEndB=     1264142 NGot=   524288000 MDV=   523453305
 LenX=   523453305 LenY=   523040499
 Requested convergence on RMS density matrix=1.00D-08 within 128 cycles.
 Requested convergence on MAX density matrix=1.00D-06.
 Requested convergence on             energy=1.00D-06.
 No special actions if energy rises.
 Fock matrices will be formed incrementally for  20 cycles.

 Cycle   1  Pass 1  IDiag  1:
 FoFJK:  IHMeth= 1 ICntrl=       0 DoSepK=F KAlg= 0 I1Cent=   0 FoldK=F
 IRaf= 670000000 NMat=   1 IRICut=       1 DoRegI=T DoRafI=F ISym2E= 0.
 FoFCou: FMM=F IPFlag=           0 FMFlag=      100000 FMFlg1=           0
         NFxFlg=           0 DoJE=F BraDBF=F KetDBF=F FulRan=T
         wScrn=  0.000000 ICntrl=       0 IOpCl=  0 I1Cent=           0 NGrid=           0
         NMat0=    1 NMatS0=      1 NMatT0=    0 NMatD0=    1 NMtDS0=    0 NMtDT0=    0
 Symmetry not used in FoFCou.
 E= -708.264193163568    
 DIIS: error= 4.39D-02 at cycle   1 NSaved=   1.
 NSaved= 1 IEnMin= 1 EnMin= -708.264193163568     IErMin= 1 ErrMin= 4.39D-02
[...]
 3,0.00000123,-0.00032731,-0.00002784,-0.00192272,-0.01732606,0.0019034
 1,-0.02043727,0.13578407,-0.02214190,0.21728663,0.00000670,0.00001554,
 -0.00000193,-0.00000451,-0.00000687,0.00000368,0.00000365,0.00001873,-
 0.00000179,-0.00001377,0.00000017,-0.00000187,-0.00000102,-0.00000697,
 0.00000513,0.00000508,-0.00001197,0.00002776,0.00000113,0.00000623,0.0
 0000036,-0.00000288,-0.00000248,-0.00006535,-0.00000276,-0.00000311,0.
 00000626,-0.00026014,0.00009612,-0.00000427,-0.00000095,0.00000018,-0.
 00000228,0.00035312,-0.00008342,-0.00124730,-0.00000075,0.00000086,0.0
 0000122,-0.00204864,0.00367174,0.00089019,-0.00000040,-0.00000062,-0.0
 0000066,-0.00496635,0.00044018,-0.01894719,-0.00000029,0.00000006,0.00
 000039,-0.05900871,0.00533515,-0.05595725,0.00000027,-0.00000334,0.000
 00054,-0.00000975,0.00000336,0.00000022,0.00000203,-0.00000101,-0.0000
 0058,-0.00000071,0.00000122,-0.00000021,0.00000275,-0.00000375,-0.0000
 0254,-0.00000074,-0.00000597,-0.00000010,-0.00000115,-0.00000494,0.000
 01066,0.00001210,0.00000514,-0.00000224,0.00000109,0.00000172,-0.00000
 290,-0.00000160,-0.00000090,-0.00000174,-0.00000102,-0.00000169,-0.000
 00881,0.00001779,0.00001714,0.00000265,0.00000101,-0.00000210,0.000001
 85,0.00000080,-0.00000029,-0.00000257,-0.00000174,-0.00000019,0.000008
 72,0.00000190,-0.00000239,0.00002756,0.00000129,-0.00000023,0.00000014
 ,0.00000149,0.00000058,-0.00000377,0.00000731,-0.00001285,-0.00000901,
 0.00005268,0.00011605,-0.00001834,0.00000021,-0.00000102,-0.00000012,-
 0.00000023,-0.00000055,0.00000024,0.00003368,-0.00003890,0.00008858,-0
 .00018665,0.00024379,-0.00012078,-0.00000011,0.00000016,-0.00000003,0.
 00000069,-0.00000042,-0.00000018,0.00015398,0.00002254,0.00048022,0.00
 026290,0.00010853,-0.00031365,0.00000006,-0.00000013,0.00000067,0.0000
 0088,0.00000079,-0.00000099,0.00072387,-0.00026503,0.00049654,0.000124
 18,-0.00074905,-0.00003497,0.00000070,0.00000095,0.,-0.00000002,-0.000
 00049,-0.00000097,-0.00000023,-0.00000033,0.00000057,0.06182817,0.0000
 0917,0.00001127,0.00000812,-0.00000101,-0.00000009,-0.00000468,0.00000
 377,-0.00000456,0.00000249,0.00000909,-0.00000332,0.00000388,-0.000006
 15,0.00000165,0.00001161,-0.00000672,0.00001300,-0.00003063,0.00000025
 ,-0.00000343,-0.00000348,-0.00001007,-0.00000181,0.00006511,-0.0000047
 2,-0.00000010,0.00000915,0.00014709,0.00006523,-0.00001272,0.00000041,
 -0.00000047,-0.00000230,0.00044813,0.00057731,0.00162884,0.00000007,0.
 00000066,0.00000228,0.00299163,-0.00472509,-0.00116922,0.00000001,-0.0
 0000066,-0.00000086,0.00500084,-0.00239507,0.02741286,0.00000005,-0.00
 000004,0.00000169,0.00524486,-0.04833568,0.02417045,-0.00001040,-0.000
 01123,-0.00000663,0.00001117,-0.00000401,0.00000523,-0.00000210,-0.000
 00062,0.00000228,-0.00000091,0.00000073,-0.00000651,-0.00000371,0.0000
 0130,-0.00000125,0.00000134,0.00000065,0.00000041,-0.00000143,0.000006
 16,-0.00001880,-0.00000873,-0.00000602,0.00000077,0.00000304,-0.000001
 79,-0.00000338,0.00000114,0.00000113,-0.00000196,-0.00000088,0.0000063
 6,0.00000453,-0.00002429,-0.00003294,-0.00000627,-0.00000051,0.0000019
 2,0.00000232,0.00000091,0.00000112,-0.00000268,0.00003125,-0.00001712,
 -0.00001762,-0.00001975,0.00002123,0.00001736,-0.00000032,-0.00000001,
 -0.00000173,0.00000139,0.00000105,-0.00000498,-0.00002197,-0.00000009,
 -0.00000158,-0.00004178,-0.00008669,-0.00000188,0.00000053,-0.00000063
 ,0.00000124,-0.00000178,-0.00000019,-0.00000040,-0.00001296,0.00004086
 ,-0.00009324,0.00035005,-0.00047128,0.00017022,-0.00000026,0.00000024,
 -0.00000131,0.00000036,-0.00000012,-0.00000033,0.00032269,0.00025985,0
 .00010309,-0.00017961,-0.00006781,-0.00031070,-0.00000072,0.00000015,0
 .00000006,0.00000090,0.00000075,-0.00000077,-0.00093827,0.00063570,-0.
 00000116,-0.00027914,0.00109038,-0.00051217,0.00000025,0.00000060,0.00
 000005,0.00000051,-0.00000032,-0.00000054,-0.00000040,-0.00000018,-0.0
 0000084,-0.00855021,0.05174568,-0.00001920,-0.00004399,-0.00001143,-0.
 00000143,0.00000520,0.00001253,-0.00001238,-0.00001646,-0.00000464,-0.
 00000499,0.00001337,-0.00000066,0.00000421,-0.00000107,-0.00001226,-0.
 00001112,-0.00002584,0.00001160,-0.00000541,0.00000338,0.00000580,0.00
 001119,0.00001662,-0.00005272,0.00000388,0.00000157,-0.00001909,-0.000
 14159,0.00000297,0.00000931,-0.00000232,0.00000123,0.00000539,0.000190
 93,-0.00047317,-0.00019725,-0.00000257,0.00000006,-0.00000402,-0.00086
 023,0.00153257,0.00112416,-0.00000144,-0.00000010,0.00000064,0.0003615
 0,-0.00079528,-0.00264361,-0.00000063,0.00000052,-0.00000265,-0.056466
 47,0.02486375,-0.29059146,0.00001034,0.00001625,0.00000985,-0.00000833
 ,0.00001864,-0.00000387,0.00000642,0.00000911,-0.00000629,0.00000424,-
 0.00000504,0.00000880,0.00000931,0.00000160,-0.00000192,-0.00000204,0.
 00001084,0.00000170,0.00000178,-0.00001108,0.00001934,0.00001279,0.000
 01639,-0.00000615,-0.00000617,0.00000115,0.00000023,0.00000157,0.00000
 266,0.00000319,0.00000065,0.00000745,-0.00000932,0.00002738,0.00003104
 ,0.00001025,-0.00000139,0.00000113,-0.00000457,0.00000144,-0.00000277,
 0.00000299,-0.00001025,-0.00000022,0.00000633,-0.00001785,-0.00002496,
 -0.00001181,0.00000767,-0.00000182,0.00000167,-0.00000519,0.00000154,0
 .00000857,0.00002214,-0.00001285,0.00000669,0.00002891,0.00009054,-0.0
 0001398,-0.00000064,-0.00000270,-0.00000359,0.00000684,0.00000254,0.00
 000323,-0.00006111,0.00006294,0.00001824,-0.00010305,0.00015000,-0.000
 07356,0.00000087,-0.00000171,0.00000500,0.00000067,-0.00000074,-0.0000
 0052,0.00019803,-0.00005267,0.00020897,0.00000781,-0.00019446,0.000375
 16,0.00000240,0.00000007,0.00000197,-0.00000039,-0.00000035,-0.0000002
 4,0.00011301,0.00058106,0.00030053,-0.00051361,0.00014555,0.00052043,0
 .00000081,0.00000058,-0.00000007,-0.00000126,-0.00000016,-0.00000081,0
 .00000076,-0.00000069,0.00000311,0.06254582,-0.02784057,0.31526928,0.0
 0000771,0.00003020,-0.00000896,0.00000476,-0.00000888,-0.00000771,0.00
 000009,0.00001124,-0.00000078,-0.00001307,0.00001118,0.00000781,0.0000
 1069,0.00000326,-0.00002029,-0.00003771,-0.00000894,-0.00004288,0.0000
 0327,0.00000103,0.00000236,0.00002581,0.00010283,-0.00002457,0.0000089
 1,0.00000151,-0.00001086,0.00007178,-0.00002180,0.00006105,0.00000028,
 0.00000135,0.00000368,-0.00006204,-0.00007269,0.00023216,0.00000201,-0
 .00000302,-0.00000339,0.00095106,0.00016913,0.00086073,0.00000069,0.00
 000192,0.00000155,0.00959791,0.01746045,0.00599185,0.00000007,-0.00000
 049,-0.00000136,-0.10457119,-0.10143573,-0.03654821,0.00000451,0.00000
 929,0.00000600,-0.00001257,-0.00001458,-0.00001441,-0.00000415,-0.0000
 0532,0.00000483,0.00000243,0.00000074,0.00000703,-0.00000431,-0.000006
 11,0.00000804,0.00000029,-0.00000673,-0.00001082,0.00000556,-0.0000008
 2,0.00000071,0.00000902,-0.00000744,-0.00000514,-0.00000168,0.00000672
 ,0.00001328,-0.00000347,-0.00000447,0.00000578,0.00000929,0.00001409,-
 0.00000319,-0.00000086,0.00000128,0.00000516,0.00000315,-0.00000412,-0
 .00000709,-0.00000513,-0.00000286,0.00000654,0.00004945,-0.00005421,-0
 .00002093,-0.00008201,0.00003358,0.00002656,-0.00000497,0.00000101,0.0
 0000092,-0.00000058,-0.00000139,0.00000923,-0.00001104,-0.00000582,-0.
 00001366,-0.00000870,-0.00002613,0.00000422,-0.00000030,0.00000268,0.0
 0000054,-0.00000088,-0.00000058,-0.00000105,0.00000903,0.00001696,-0.0
 0001091,0.00003735,-0.00005377,-0.00001173,0.00000056,0.00000036,-0.00
 000041,-0.00000168,0.00000110,0.00000053,-0.00001135,-0.00047892,-0.00
 005969,-0.00010992,-0.00013938,-0.00010957,0.00000004,-0.00000026,-0.0
 0000131,-0.00000210,-0.00000206,0.00000205,-0.00158935,0.00391510,-0.0
 0093383,0.00104179,-0.00065169,0.00038524,-0.00000127,-0.00000186,-0.0
 0000012,-0.00000022,0.00000111,0.00000188,0.00000062,0.00000088,-0.000
 00054,-0.00417390,-0.00504042,-0.00130984,0.11194508,0.00000016,0.0000
 1655,0.00001608,0.00000417,-0.00000246,-0.00002011,0.00000122,-0.00000
 874,0.00000605,-0.00000327,-0.00003918,-0.00002487,0.00000415,0.000008
 88,-0.00001049,0.00009531,0.00004940,0.00008074,0.00000247,-0.00000816
 ,-0.00000068,-0.00017100,-0.00007287,-0.00005485,0.00000338,0.00000270
 ,-0.00000198,-0.00021936,0.00010726,-0.00009812,0.00000252,-0.00000139
 ,0.00000034,0.00048236,0.00038969,0.00000764,0.00000212,-0.00000099,-0
 .00000100,-0.00126048,0.00086974,-0.00127133,0.00000110,0.00000066,0.0
 0000044,-0.01296598,-0.02349245,-0.00800719,0.00000081,0.00000003,-0.0
 0000077,-0.10096908,-0.21999108,-0.06354593,0.00000930,0.00000682,0.00
 000196,0.00000099,-0.00001757,-0.00001726,-0.00000569,-0.00000354,0.00
 000717,0.00000090,0.00000014,0.00000757,-0.00001055,0.00000034,0.00000
 769,0.00000149,0.00000141,-0.00000748,0.00000340,0.00000732,0.00001179
 ,-0.00001831,-0.00001183,0.00002104,0.00000157,-0.00000116,0.00000991,
 0.00000024,-0.00000042,0.00000247,-0.00000270,-0.00005721,0.00002200,0
 .00000143,0.00001297,-0.00000533,0.00000137,0.00000175,-0.00000227,-0.
 00000422,0.00000043,0.00000395,-0.00009154,0.00009200,0.00006580,0.000
 19052,-0.00003350,-0.00006249,-0.00000632,0.00000157,-0.00000014,0.000
 00050,-0.00000279,0.00000311,0.00000130,-0.00000055,0.00003732,0.00006
 747,0.00005475,0.00000341,-0.00000079,0.00000381,0.00000117,-0.0000016
 6,-0.00000056,-0.00000115,-0.00013999,0.00005780,-0.00001165,0.0000623
 1,-0.00006171,0.00011051,0.00000042,0.00000024,-0.00000140,-0.00000205
 ,0.00000138,0.00000072,0.00068092,0.00035673,0.00110352,0.00000915,-0.
 00003549,0.00009960,-0.00000053,0.00000006,-0.00000146,-0.00000174,-0.
 00000105,0.00000199,0.00426238,-0.00330436,0.00107598,0.00017668,0.001
 06340,-0.00030050,-0.00000124,-0.00000136,-0.00000017,0.00000002,0.000
 00047,0.00000238,0.00000038,0.00000079,-0.00000161,0.00211318,0.003127
 35,0.00089644,0.10867974,0.24310813,-0.00000408,-0.00000565,-0.0000017
 9,0.00000230,0.00000374,-0.00000058,0.00000022,-0.00000258,0.00000044,
 0.00000744,0.00000124,0.00000142,0.00000055,0.00000205,-0.00000011,-0.
 00001011,0.00000721,-0.00001523,0.00000007,-0.00000291,-0.00000120,0.0
 0000294,-0.00000841,0.00001073,0.00000158,0.00000093,-0.00000119,0.000
 05496,-0.00000957,-0.00000477,0.00000082,-0.00000055,-0.00000004,-0.00
 003404,-0.00002314,-0.00001992,0.00000102,-0.00000027,-0.00000023,0.00
 078759,0.00099702,0.00078235,0.00000053,0.00000040,0.00000024,0.002526
 49,0.00380412,0.00047445,0.00000043,0.,-0.00000035,-0.03661560,-0.0637
 7040,-0.07011492,-0.00000002,-0.00000135,-0.00000126,0.00000567,-0.000
 00157,0.00000490,-0.00000127,-0.00000128,-0.00000050,-0.00000086,0.000
 00112,-0.00000176,-0.00000147,0.00000164,0.00000120,0.00000088,0.,0.00
 000203,-0.00000081,0.00000347,-0.00000381,-0.00000548,-0.00000304,0.00
 000089,-0.00000051,-0.00000200,0.00000033,0.00000025,-0.00000004,-0.00
 000073,0.00000209,0.00000182,0.00000332,-0.00000496,-0.00000577,-0.000
 00088,-0.00000022,0.00000071,0.00000065,-0.00000021,0.00000080,0.00000
 111,-0.00000702,-0.00000056,-0.00000170,0.00000430,-0.00000620,-0.0000
 0643,-0.00000212,0.00000062,0.00000011,-0.00000044,-0.00000136,0.00000
 064,-0.00000107,0.00001124,-0.00000403,-0.00000508,-0.00003391,0.00000
 837,-0.00000037,0.00000147,0.00000027,-0.00000034,-0.00000019,-0.00000
 053,0.00003282,-0.00006892,-0.00002266,0.00000713,-0.00002369,0.000004
 65,-0.00000008,0.00000015,-0.00000050,-0.00000069,0.00000047,0.0000003
 8,-0.00024903,-0.00019816,0.00021466,0.00005486,0.00003736,-0.00001755
 ,-0.00000021,0.00000001,-0.00000077,-0.00000067,-0.00000046,0.00000093
 ,-0.00041757,0.00107524,0.00056060,0.00006516,-0.00052192,-0.00007999,
 -0.00000058,-0.00000074,-0.00000006,-0.00000003,0.00000028,0.00000092,
 0.00000009,0.00000037,-0.00000061,-0.01521873,-0.02654753,-0.00876143,
 0.04107689,0.07025119,0.07191752,0.00001789,0.00006021,-0.00000853,0.0
 0000034,-0.00001555,-0.00000138,0.00000991,0.00004115,-0.00000501,-0.0
 0002327,0.00001245,0.00000667,0.00000550,-0.00000654,-0.00000397,-0.00
 000229,-0.00002255,-0.00001308,0.00000632,0.00001280,-0.00000070,-0.00
 003068,0.00007701,0.00000404,0.00000437,-0.00000168,0.00000217,-0.0000
 3013,-0.00000225,-0.00002621,-0.00000034,0.00000297,0.00000013,0.00024
 501,0.00022148,-0.00025520,0.00000172,-0.00000259,-0.00000149,0.000409
 76,-0.00090497,0.00120926,0.00000095,0.00000329,0.00000138,-0.01682100
 ,-0.00156257,0.00959309,-0.00000080,-0.00000143,0.00000014,-0.23208747
 ,-0.01922468,0.11218784,-0.00000168,-0.00000403,0.00000092,-0.00001516
 ,-0.00001328,-0.00000637,-0.00000421,-0.00001191,0.00000362,-0.0000004
 1,0.00000592,-0.00000004,-0.00000085,-0.00000808,0.00000271,-0.0000005
 6,-0.00001920,-0.00000404,0.00000316,-0.00000184,0.00000187,0.00001621
 ,-0.00000774,-0.00000612,0.00000085,0.00000743,0.00000430,-0.00000536,
 -0.00000917,0.00000047,0.00000889,-0.00000082,-0.00000380,0.00000107,0
 .00000650,0.00000155,0.00000054,-0.00001050,-0.00000212,-0.00000218,-0
 .00000150,0.00000239,0.00004899,-0.00005544,-0.00003535,-0.00004442,0.
 00004582,0.00003739,-0.00000120,0.00000040,-0.00000073,-0.00000002,0.0
 0000036,0.00000303,0.00001572,0.00003398,-0.00004947,0.00000850,0.0000
 0723,-0.00000586,0.00000153,-0.00000002,0.00000177,-0.00000417,-0.0000
 0167,-0.00000221,0.00024604,-0.00022919,-0.00001410,0.00002772,-0.0000
 0963,-0.00006444,-0.00000029,0.00000166,-0.00000203,0.00000043,-0.0000
 0032,0.00000007,-0.00006623,0.00001093,0.00000788,0.00016061,0.0003709
 0,-0.00108774,-0.00000067,-0.00000067,-0.00000159,-0.00000124,-0.00000
 200,0.00000131,0.00100158,0.00009416,-0.00010342,-0.00082135,0.0037456
 8,-0.00100977,-0.00000162,-0.00000271,-0.00000008,0.00000063,0.0000017
 1,0.00000076,0.00000048,0.00000122,-0.00000064,0.00708752,0.00058831,-
 0.00401247,-0.01308872,-0.00098897,0.00794657,0.25372405,-0.00001267,-
 0.00005776,-0.00000074,-0.00000889,0.00001731,0.00001525,-0.00000048,-
 0.00000551,-0.00000338,0.00001866,0.00000193,0.00000436,-0.00001028,-0
 .00000538,0.00001809,-0.00004613,0.00001063,0.00000161,-0.00000211,0.0
 0001086,-0.00000159,0.00015194,-0.00008624,0.00000263,-0.00000452,-0.0
 0000269,0.00000376,-0.00001707,0.00006105,0.00008848,-0.00000105,0.000
 00086,-0.00000073,-0.00003522,-0.00029046,-0.00020422,-0.00000194,0.00
 000103,0.00000068,-0.00028488,0.00100338,-0.00130138,-0.00000044,-0.00
 000052,-0.00000040,0.02469525,0.00199778,-0.01459400,-0.00000059,0.000
 00014,0.00000044,-0.01958054,-0.04791523,0.01123721,-0.00000758,-0.000
 00852,-0.00000469,0.00001314,0.00002742,0.00002667,0.00000817,0.000005
 39,-0.00001019,-0.00000031,-0.00000122,-0.00000818,0.00000712,0.000005
 12,-0.00000786,-0.00000303,0.00000606,0.00001149,-0.00000658,-0.000000
 14,-0.00000703,-0.00000676,0.00001100,-0.00000261,-0.00000177,-0.00000
 378,-0.00001321,0.00000361,0.00000134,-0.00000513,-0.00000147,0.000023
 73,-0.00000876,0.00000042,-0.00000974,-0.00000194,-0.00000401,-0.00000
 167,0.00000284,0.00000491,-0.00000062,-0.00000377,-0.00002591,0.000036
 01,0.00001356,-0.00005240,0.00000789,-0.00001604,0.00000773,-0.0000010
 8,-0.00000085,-0.00000187,0.00000319,-0.00000328,-0.00001385,-0.000036
 70,0.00001934,-0.00001385,0.00000292,-0.00001414,0.00000050,-0.0000039
 5,-0.00000097,0.00000125,0.00000048,0.00000089,-0.00015563,0.00009842,
 0.00012852,-0.00008579,0.00006257,0.00003391,-0.00000040,-0.00000022,0
 .00000114,0.00000192,-0.00000105,-0.00000062,-0.00008974,-0.00004099,0
 .00015249,-0.00036066,0.00009530,0.00057703,0.00000037,0.00000007,0.00
 000092,0.00000107,0.00000077,-0.00000114,-0.00068507,0.00113343,-0.000
 51414,0.00371398,-0.00424087,0.00120356,0.00000083,0.00000067,0.000000
 06,0.,-0.00000042,-0.00000143,-0.00000018,-0.00000057,0.00000100,-0.00
 245888,-0.00144093,0.00101995,-0.02241825,-0.00219413,0.01503754,0.017
 76993,0.05172361,0.00000469,0.00000638,0.00000757,-0.00000089,0.000002
 13,-0.00000010,0.00000532,-0.00000353,0.00000446,0.00001438,-0.0000078
 2,-0.00000039,-0.00001104,-0.00000190,0.00002630,-0.00000166,0.0000143
 8,-0.00000409,-0.00000278,-0.00001272,-0.00000538,0.00002759,-0.000045
 62,0.00001395,-0.00001138,-0.00000186,0.00001994,0.00005175,0.00001536
 ,-0.00001473,0.00000070,-0.00000399,-0.00000804,-0.00011236,0.00015696
 ,0.00006809,-0.00000033,0.00000430,0.00000632,-0.00102444,-0.00030739,
 0.00111725,-0.00000046,-0.00000356,-0.00000297,-0.00450624,-0.00085152
 ,0.00169444,0.00000110,0.00000103,0.00000219,0.11248328,0.01112957,-0.
 11471531,-0.00001025,-0.00002100,-0.00001022,0.00001689,0.00000096,0.0
 0001737,-0.00000054,0.00000202,0.00000002,-0.00000476,0.00000185,-0.00
 001089,-0.00000229,0.00000325,-0.00000571,0.00000409,0.00000149,0.0000
 0751,-0.00000651,0.00000612,-0.00001163,-0.00000890,-0.00000092,0.0000
 0230,0.00000492,-0.00000943,-0.00001226,0.00000216,0.00000688,-0.00000
 812,-0.00000630,0.00000422,0.00000106,-0.00000931,-0.00001882,-0.00000
 597,0.00000054,0.00000924,0.00001116,0.00000406,0.00000517,-0.00000816
 ,-0.00001082,0.00000805,0.00000423,0.00001285,-0.00000295,0.00001607,-
 0.00000225,0.00000037,-0.00000102,0.00000373,-0.00000168,-0.00001562,0
 .00000073,0.00001426,-0.00001127,-0.00001201,-0.00003873,-0.00000632,-
 0.00000073,0.00000084,0.00000065,-0.00000029,-0.00000026,0.00000048,0.
 00003245,0.00001561,-0.00013833,0.00002746,-0.00003949,0.00003512,-0.0
 0000059,-0.00000031,-0.00000131,0.,0.00000006,0.00000002,-0.00002056,-
 0.00001370,-0.00002156,0.00030418,0.00008669,0.00024374,-0.00000079,0.
 00000047,0.00000095,0.00000251,0.00000312,-0.00000205,0.00032598,-0.00
 047435,-0.00002263,-0.00109982,0.00065668,0.00067374,0.00000151,0.0000
 0300,0.00000005,0.00000019,-0.00000194,-0.00000127,-0.00000116,-0.0000
 0093,-0.00000081,0.02737311,0.00298469,-0.01551707,-0.00954337,-0.0004
 0975,0.00507244,-0.12429335,-0.01287100,0.12151581\\-0.00000153,0.0000
 0523,-0.00000455,-0.00000332,0.00000489,-0.00000084,0.00000147,-0.0000
 0305,0.00000543,0.00000676,0.00000021,-0.00000155,-0.00000066,0.000000
 52,-0.00000012,-0.00000331,-0.00000193,0.00000496,-0.00000231,0.000001
 55,-0.00000028,-0.00000263,0.00000212,-0.00000762,0.00000429,-0.000000
 24,-0.00000329,0.00000067,-0.00000079,0.00000386,0.00000268,-0.0000038
 7,-0.00000075,0.00000455,0.00000174,-0.00000495,0.00000161,-0.00000332
 ,0.00000014,-0.00001116,-0.00000554,0.00000524,0.00000587,-0.00000023,
 -0.00000147,0.00000421,0.00000559,-0.00000030,-0.00000465,-0.00000354,
 0.00000264,0.,-0.00000230,0.00000198,0.00000107,-0.00000010,0.00000254
 ,-0.00000058,-0.00000422,0.00000123,-0.00000007,-0.00000210,0.00000001
 ,0.00000049,-0.00000049,0.00000035,0.00000107,-0.00000038,-0.00000300,
 0.00000037,-0.00000024,-0.00000067,-0.00000104,-0.00000046,-0.00000196
 ,0.00000002,-0.00000077,-0.00000054,0.00000001,0.00000007,-0.00000055,
 0.00000028,-0.00000069,0.00000034,-0.00000036,0.00000114,-0.00000039,0
 .00000055,0.00000100,-0.00000082,-0.00000007,-0.00000192,0.00000095,0.
 00000136,-0.00000012,-0.00000142,-0.00000034,0.00000103,0.00000195,0.0
 0000168,-0.00000174,0.00000108,-0.00000137,0.00000121,0.00000100,-0.00
 000202,-0.00000136,0.00000423,-0.00000056,0.00000044,0.00000048,0.0000
 0005,0.00000105,-0.00000087,-0.00000169,0.00000158,0.00000039,-0.00000
 035,-0.00000025,0.00000039,-0.00000127,0.00000104,0.00000272,-0.000001
 22,0.00000031,-0.00000093,-0.00000060,-0.00000069,-0.00000147,-0.00000
 276,0.00000251,0.00000163,0.00000190,0.00000426,0.00000101,0.00000586,
 0.00000135,-0.00000397,-0.00000110,-0.00000064,-0.00000067,-0.00000099
 ,-0.00000108,0.00000104,-0.00000191,-0.00000222,-0.00000046,-0.0000017
 2,0.00000033,0.00000002,0.00000176,0.00000208,-0.00000077,0.00000117,0
 .00000038,-0.00000215,0.00000127,0.00000004,0.00000023,-0.00000029,0.0
 0000085,0.00000134,-0.00000122,0.00000028,-0.00000020,0.00000011,0.000
 00149,-0.00000061\\\@


 THE MOST BEAUTIFUL EXPERIENCE WE CAN HAVE IS THE MYSTERIOUS.
 IT IS THE FUNDAMENTAL EMOTION WHICH STANDS AT AT THE CRADLE 
 OF TRUE ART AND TRUE SCIENCE.

                                    -- ALBERT EINSTEIN
 Job cpu time:       1 days  4 hours 32 minutes 20.2 seconds.
 File lengths (MBytes):  RWF=   1756 Int=      0 D2E=      0 Chk=     29 Scr=      1
 Normal termination of Gaussian 09 at Sun Apr 26 21:53:35 2015.
