 Entering Gaussian System, Link 0=g09
 Input=0_0freq-b971_629-73-2.gau
 Output=0_0freq-b971_629-73-2.log
 Initial command:
 /opt/g09/l1.exe "/scratch/pb556/g09_run/add_hco//Gau-25076.inp" -scrdir="/scratch/pb556/g09_run/add_hco//"
 Entering Link 1 = /opt/g09/l1.exe PID=     25088.
  
 Copyright (c) 1988,1990,1992,1993,1995,1998,2003,2009,2013,
            Gaussian, Inc.  All Rights Reserved.
  
 This is part of the Gaussian(R) 09 program.  It is based on
 the Gaussian(R) 03 system (copyright 2003, Gaussian, Inc.),
 the Gaussian(R) 98 system (copyright 1998, Gaussian, Inc.),
 the Gaussian(R) 94 system (copyright 1995, Gaussian, Inc.),
 the Gaussian 92(TM) system (copyright 1992, Gaussian, Inc.),
 the Gaussian 90(TM) system (copyright 1990, Gaussian, Inc.),
 the Gaussian 88(TM) system (copyright 1988, Gaussian, Inc.),
 the Gaussian 86(TM) system (copyright 1986, Carnegie Mellon
 University), and the Gaussian 82(TM) system (copyright 1983,
 Carnegie Mellon University). Gaussian is a federally registered
 trademark of Gaussian, Inc.
  
 This software contains proprietary and confidential information,
 including trade secrets, belonging to Gaussian, Inc.
  
 This software is provided under written license and may be
 used, copied, transmitted, or stored only in accord with that
 written license.
  
 The following legend is applicable only to US Government
 contracts under FAR:
  
                    RESTRICTED RIGHTS LEGEND
  
 Use, reproduction and disclosure by the US Government is
 subject to restrictions as set forth in subparagraphs (a)
 and (c) of the Commercial Computer Software - Restricted
 Rights clause in FAR 52.227-19.
  
 Gaussian, Inc.
 340 Quinnipiac St., Bldg. 40, Wallingford CT 06492
  
  
 ---------------------------------------------------------------
 Warning -- This program may not be used in any manner that
 competes with the business of Gaussian, Inc. or will provide
 assistance to any competitor of Gaussian, Inc.  The licensee
 of this program is prohibited from giving any competitor of
 Gaussian, Inc. access to this program.  By using this program,
 the user acknowledges that Gaussian, Inc. is engaged in the
 business of creating and licensing software in the field of
 computational chemistry and represents and warrants to the
 licensee that it is not a competitor of Gaussian, Inc. and that
 it will not use this program in any manner prohibited above.
 ---------------------------------------------------------------
  

 Cite this work as:
 Gaussian 09, Revision D.01,
 M. J. Frisch, G. W. Trucks, H. B. Schlegel, G. E. Scuseria, 
 M. A. Robb, J. R. Cheeseman, G. Scalmani, V. Barone, B. Mennucci, 
 G. A. Petersson, H. Nakatsuji, M. Caricato, X. Li, H. P. Hratchian, 
 A. F. Izmaylov, J. Bloino, G. Zheng, J. L. Sonnenberg, M. Hada, 
 M. Ehara, K. Toyota, R. Fukuda, J. Hasegawa, M. Ishida, T. Nakajima, 
 Y. Honda, O. Kitao, H. Nakai, T. Vreven, J. A. Montgomery, Jr., 
 J. E. Peralta, F. Ogliaro, M. Bearpark, J. J. Heyd, E. Brothers, 
 K. N. Kudin, V. N. Staroverov, T. Keith, R. Kobayashi, J. Normand, 
 K. Raghavachari, A. Rendell, J. C. Burant, S. S. Iyengar, J. Tomasi, 
 M. Cossi, N. Rega, J. M. Millam, M. Klene, J. E. Knox, J. B. Cross, 
 V. Bakken, C. Adamo, J. Jaramillo, R. Gomperts, R. E. Stratmann, 
 O. Yazyev, A. J. Austin, R. Cammi, C. Pomelli, J. W. Ochterski, 
 R. L. Martin, K. Morokuma, V. G. Zakrzewski, G. A. Voth, 
 P. Salvador, J. J. Dannenberg, S. Dapprich, A. D. Daniels, 
 O. Farkas, J. B. Foresman, J. V. Ortiz, J. Cioslowski, 
 and D. J. Fox, Gaussian, Inc., Wallingford CT, 2013.
 
 ******************************************
 Gaussian 09:  ES64L-G09RevD.01 24-Apr-2013
                26-Apr-2015 
 ******************************************
 %NProcShared=8
 Will use up to    8 processors via shared memory.
 %Mem=500MW
 ----------------------------------------------------------------------
 #p rB971/6-311+G(d,p) Opt=(Tight, CalcAll) Freq GFInput Population=Non
 e Integral(Grid=UltraFine) Guess=MIX NoSymmetry
 ----------------------------------------------------------------------
 1/7=10,10=4,14=-1,18=20,19=15,26=4,38=1/1,3;
 2/9=110,12=2,15=1,17=6,18=5,40=1/2;
 3/5=4,6=6,7=111,11=2,16=1,24=10,25=1,30=1,71=2,74=-20,75=-5,116=1,140=1/1,2,3;
 4/13=-1/1;
 5/5=2,38=5/2;
 8/6=4,10=90,11=11/1;
 11/6=1,8=1,9=11,15=111,16=1,31=1/1,2,10;
 10/6=1,31=1/2;
 7/10=1,25=1,30=1/1,2,3,16;
 1/7=10,10=4,14=-1,18=20,19=15,26=4/3(3);
 2/9=110,15=1/2;
 7/8=1,9=1,25=1,30=1,44=-1/16;
 99//99;
 2/9=110,15=1/2;
 3/5=4,6=6,7=111,11=2,16=1,25=1,30=1,71=2,74=-20,75=-5,116=1,140=1/1,2,3;
 4/5=5,16=3,69=1/1;
 5/5=2,38=5/2;
 8/6=4,10=90,11=11/1;
 11/6=1,8=1,9=11,15=111,16=1,31=1/1,2,10;
 10/6=1,31=1/2;
 7/10=1,25=1,30=1/1,2,3,16;
 1/7=10,10=4,14=-1,18=20,19=15,26=4/3(-8);
 2/9=110,15=1/2;
 7/8=1,9=1,25=1,30=1,44=-1/16;
 99//99;
 Leave Link    1 at Sun Apr 26 19:23:04 2015, MaxMem=   524288000 cpu:         0.6
 (Enter /opt/g09/l101.exe)
 ----------------------
 freq-b971_629-73-2.gau
 ----------------------
 Symbolic Z-matrix:
 Charge =  0 Multiplicity = 1
 C                     6.85144   5.64633   7.23406 
 C                     5.53655   6.37305   7.57006 
 C                     4.27215   5.71504   6.99271 
 C                     7.22081   5.64444   5.74181 
 C                     2.98248   6.4186    7.44473 
 C                     8.58028   4.98799   5.45721 
 C                     1.67415   5.89917   6.81733 
 C                     8.95678   4.98072   3.96819 
 C                     1.31101   4.4301    7.14019 
 C                     10.31568   4.32349   3.68618 
 C                     1.7886    3.39754   6.10425 
 C                     10.68604   4.31677   2.18888 
 C                     1.41232   1.95393   6.47006 
 C                     12.03989   3.71467   1.92274 
 C                     1.86362   0.92815   5.42169 
 C                     12.27098   2.63737   1.16922 
 H                     7.66828   6.11858   7.79744 
 H                     6.79373   4.6086    7.59444 
 H                     5.43518   6.42883   8.66297 
 H                     5.59693   7.41316   7.21704 
 H                     4.25091   4.6608    7.30174 
 H                     4.31573   5.71618   5.89508 
 H                     7.2342    6.6809    5.37291 
 H                     6.4456    5.12326   5.1642 
 H                     3.07145   7.49049   7.21696 
 H                     2.90267   6.34837   8.53972 
 H                     8.56941   3.95457   5.83305 
 H                     9.36212   5.51159   6.02644 
 H                     0.86236   6.54904   7.16779 
 H                     1.71444   6.03207   5.72638 
 H                     8.96826   6.01392   3.59148 
 H                     8.17537   4.45643   3.39915 
 H                     0.21942   4.34178   7.22382 
 H                     1.70823   4.16606   8.13156 
 H                     10.31061   3.28966   4.05706 
 H                     11.09912   4.8493    4.25041 
 H                     2.87658   3.46369   5.97443 
 H                     1.35052   3.64745   5.12667 
 H                     9.92185   3.77171   1.61989 
 H                     10.6748   5.35388   1.82102 
 H                     0.32357   1.88708   6.60328 
 H                     1.85466   1.70115   7.4437 
 H                     12.8844   4.21038   2.40515 
 H                     1.40983   1.13589   4.44539 
 H                     2.95219   0.949     5.29176 
 H                     1.58199  -0.09034   5.71007 
 H                     13.27456   2.24871   1.02315 
 H                     11.46143   2.1089    0.66996 
 
 NAtoms=     48 NQM=       48 NQMF=       0 NMMI=      0 NMMIF=      0
                NMic=       0 NMicF=      0.
                    Isotopes and Nuclear Properties:
 (Nuclear quadrupole moments (NQMom) in fm**2, nuclear magnetic moments (NMagM)
  in nuclear magnetons)

  Atom         1           2           3           4           5           6           7           8           9          10
 IAtWgt=          12          12          12          12          12          12          12          12          12          12
 AtmWgt=  12.0000000  12.0000000  12.0000000  12.0000000  12.0000000  12.0000000  12.0000000  12.0000000  12.0000000  12.0000000
 NucSpn=           0           0           0           0           0           0           0           0           0           0
 AtZEff=   0.0000000   0.0000000   0.0000000   0.0000000   0.0000000   0.0000000   0.0000000   0.0000000   0.0000000   0.0000000
 NQMom=    0.0000000   0.0000000   0.0000000   0.0000000   0.0000000   0.0000000   0.0000000   0.0000000   0.0000000   0.0000000
 NMagM=    0.0000000   0.0000000   0.0000000   0.0000000   0.0000000   0.0000000   0.0000000   0.0000000   0.0000000   0.0000000
 AtZNuc=   6.0000000   6.0000000   6.0000000   6.0000000   6.0000000   6.0000000   6.0000000   6.0000000   6.0000000   6.0000000

  Atom        11          12          13          14          15          16          17          18          19          20
 IAtWgt=          12          12          12          12          12          12           1           1           1           1
 AtmWgt=  12.0000000  12.0000000  12.0000000  12.0000000  12.0000000  12.0000000   1.0078250   1.0078250   1.0078250   1.0078250
 NucSpn=           0           0           0           0           0           0           1           1           1           1
 AtZEff=   0.0000000   0.0000000   0.0000000   0.0000000   0.0000000   0.0000000   0.0000000   0.0000000   0.0000000   0.0000000
 NQMom=    0.0000000   0.0000000   0.0000000   0.0000000   0.0000000   0.0000000   0.0000000   0.0000000   0.0000000   0.0000000
 NMagM=    0.0000000   0.0000000   0.0000000   0.0000000   0.0000000   0.0000000   2.7928460   2.7928460   2.7928460   2.7928460
 AtZNuc=   6.0000000   6.0000000   6.0000000   6.0000000   6.0000000   6.0000000   1.0000000   1.0000000   1.0000000   1.0000000

  Atom        21          22          23          24          25          26          27          28          29          30
 IAtWgt=           1           1           1           1           1           1           1           1           1           1
 AtmWgt=   1.0078250   1.0078250   1.0078250   1.0078250   1.0078250   1.0078250   1.0078250   1.0078250   1.0078250   1.0078250
 NucSpn=           1           1           1           1           1           1           1           1           1           1
 AtZEff=   0.0000000   0.0000000   0.0000000   0.0000000   0.0000000   0.0000000   0.0000000   0.0000000   0.0000000   0.0000000
 NQMom=    0.0000000   0.0000000   0.0000000   0.0000000   0.0000000   0.0000000   0.0000000   0.0000000   0.0000000   0.0000000
 NMagM=    2.7928460   2.7928460   2.7928460   2.7928460   2.7928460   2.7928460   2.7928460   2.7928460   2.7928460   2.7928460
 AtZNuc=   1.0000000   1.0000000   1.0000000   1.0000000   1.0000000   1.0000000   1.0000000   1.0000000   1.0000000   1.0000000

  Atom        31          32          33          34          35          36          37          38          39          40
 IAtWgt=           1           1           1           1           1           1           1           1           1           1
 AtmWgt=   1.0078250   1.0078250   1.0078250   1.0078250   1.0078250   1.0078250   1.0078250   1.0078250   1.0078250   1.0078250
 NucSpn=           1           1           1           1           1           1           1           1           1           1
 AtZEff=   0.0000000   0.0000000   0.0000000   0.0000000   0.0000000   0.0000000   0.0000000   0.0000000   0.0000000   0.0000000
 NQMom=    0.0000000   0.0000000   0.0000000   0.0000000   0.0000000   0.0000000   0.0000000   0.0000000   0.0000000   0.0000000
 NMagM=    2.7928460   2.7928460   2.7928460   2.7928460   2.7928460   2.7928460   2.7928460   2.7928460   2.7928460   2.7928460
 AtZNuc=   1.0000000   1.0000000   1.0000000   1.0000000   1.0000000   1.0000000   1.0000000   1.0000000   1.0000000   1.0000000

  Atom        41          42          43          44          45          46          47          48
 IAtWgt=           1           1           1           1           1           1           1           1
 AtmWgt=   1.0078250   1.0078250   1.0078250   1.0078250   1.0078250   1.0078250   1.0078250   1.0078250
 NucSpn=           1           1           1           1           1           1           1           1
 AtZEff=   0.0000000   0.0000000   0.0000000   0.0000000   0.0000000   0.0000000   0.0000000   0.0000000
 NQMom=    0.0000000   0.0000000   0.0000000   0.0000000   0.0000000   0.0000000   0.0000000   0.0000000
 NMagM=    2.7928460   2.7928460   2.7928460   2.7928460   2.7928460   2.7928460   2.7928460   2.7928460
 AtZNuc=   1.0000000   1.0000000   1.0000000   1.0000000   1.0000000   1.0000000   1.0000000   1.0000000
 Leave Link  101 at Sun Apr 26 19:23:04 2015, MaxMem=   524288000 cpu:         2.1
 (Enter /opt/g09/l103.exe)

 GradGradGradGradGradGradGradGradGradGradGradGradGradGradGradGradGradGrad
 Berny optimization.
 Initialization pass.
                           ----------------------------
                           !    Initial Parameters    !
                           ! (Angstroms and Degrees)  !
 --------------------------                            --------------------------
 ! Name  Definition              Value          Derivative Info.                !
 --------------------------------------------------------------------------------
 ! R1    R(1,2)                  1.5395         calculate D2E/DX2 analytically  !
 ! R2    R(1,4)                  1.5373         calculate D2E/DX2 analytically  !
 ! R3    R(1,17)                 1.0989         calculate D2E/DX2 analytically  !
 ! R4    R(1,18)                 1.1            calculate D2E/DX2 analytically  !
 ! R5    R(2,3)                  1.5379         calculate D2E/DX2 analytically  !
 ! R6    R(2,19)                 1.099          calculate D2E/DX2 analytically  !
 ! R7    R(2,20)                 1.1            calculate D2E/DX2 analytically  !
 ! R8    R(3,5)                  1.5371         calculate D2E/DX2 analytically  !
 ! R9    R(3,21)                 1.0988         calculate D2E/DX2 analytically  !
 ! R10   R(3,22)                 1.0985         calculate D2E/DX2 analytically  !
 ! R11   R(4,6)                  1.5363         calculate D2E/DX2 analytically  !
 ! R12   R(4,23)                 1.1002         calculate D2E/DX2 analytically  !
 ! R13   R(4,24)                 1.0983         calculate D2E/DX2 analytically  !
 ! R14   R(5,7)                  1.5412         calculate D2E/DX2 analytically  !
 ! R15   R(5,25)                 1.0994         calculate D2E/DX2 analytically  !
 ! R16   R(5,26)                 1.1001         calculate D2E/DX2 analytically  !
 ! R17   R(6,8)                  1.5359         calculate D2E/DX2 analytically  !
 ! R18   R(6,27)                 1.0997         calculate D2E/DX2 analytically  !
 ! R19   R(6,28)                 1.0998         calculate D2E/DX2 analytically  !
 ! R20   R(7,9)                  1.5473         calculate D2E/DX2 analytically  !
 ! R21   R(7,29)                 1.0973         calculate D2E/DX2 analytically  !
 ! R22   R(7,30)                 1.0998         calculate D2E/DX2 analytically  !
 ! R23   R(8,10)                 1.5356         calculate D2E/DX2 analytically  !
 ! R24   R(8,31)                 1.0998         calculate D2E/DX2 analytically  !
 ! R25   R(8,32)                 1.0997         calculate D2E/DX2 analytically  !
 ! R26   R(9,11)                 1.5387         calculate D2E/DX2 analytically  !
 ! R27   R(9,33)                 1.0983         calculate D2E/DX2 analytically  !
 ! R28   R(9,34)                 1.1001         calculate D2E/DX2 analytically  !
 ! R29   R(10,12)                1.5424         calculate D2E/DX2 analytically  !
 ! R30   R(10,35)                1.0984         calculate D2E/DX2 analytically  !
 ! R31   R(10,36)                1.0994         calculate D2E/DX2 analytically  !
 ! R32   R(11,13)                1.536          calculate D2E/DX2 analytically  !
 ! R33   R(11,37)                1.0977         calculate D2E/DX2 analytically  !
 ! R34   R(11,38)                1.1            calculate D2E/DX2 analytically  !
 ! R35   R(12,14)                1.5054         calculate D2E/DX2 analytically  !
 ! R36   R(12,39)                1.0976         calculate D2E/DX2 analytically  !
 ! R37   R(12,40)                1.1005         calculate D2E/DX2 analytically  !
 ! R38   R(13,15)                1.5346         calculate D2E/DX2 analytically  !
 ! R39   R(13,41)                1.0989         calculate D2E/DX2 analytically  !
 ! R40   R(13,42)                1.0989         calculate D2E/DX2 analytically  !
 ! R41   R(14,16)                1.3348         calculate D2E/DX2 analytically  !
 ! R42   R(14,43)                1.0916         calculate D2E/DX2 analytically  !
 ! R43   R(15,44)                1.0965         calculate D2E/DX2 analytically  !
 ! R44   R(15,45)                1.0965         calculate D2E/DX2 analytically  !
 ! R45   R(15,46)                1.0954         calculate D2E/DX2 analytically  !
 ! R46   R(16,47)                1.0861         calculate D2E/DX2 analytically  !
 ! R47   R(16,48)                1.0881         calculate D2E/DX2 analytically  !
 ! A1    A(2,1,4)              114.6874         calculate D2E/DX2 analytically  !
 ! A2    A(2,1,17)             108.6701         calculate D2E/DX2 analytically  !
 ! A3    A(2,1,18)             109.2087         calculate D2E/DX2 analytically  !
 ! A4    A(4,1,17)             108.6372         calculate D2E/DX2 analytically  !
 ! A5    A(4,1,18)             109.2357         calculate D2E/DX2 analytically  !
 ! A6    A(17,1,18)            106.0478         calculate D2E/DX2 analytically  !
 ! A7    A(1,2,3)              114.7286         calculate D2E/DX2 analytically  !
 ! A8    A(1,2,19)             108.6499         calculate D2E/DX2 analytically  !
 ! A9    A(1,2,20)             109.2334         calculate D2E/DX2 analytically  !
 ! A10   A(3,2,19)             108.6157         calculate D2E/DX2 analytically  !
 ! A11   A(3,2,20)             109.2209         calculate D2E/DX2 analytically  !
 ! A12   A(19,2,20)            106.0338         calculate D2E/DX2 analytically  !
 ! A13   A(2,3,5)              112.5565         calculate D2E/DX2 analytically  !
 ! A14   A(2,3,21)             108.713          calculate D2E/DX2 analytically  !
 ! A15   A(2,3,22)             110.0028         calculate D2E/DX2 analytically  !
 ! A16   A(5,3,21)             109.8914         calculate D2E/DX2 analytically  !
 ! A17   A(5,3,22)             109.0662         calculate D2E/DX2 analytically  !
 ! A18   A(21,3,22)            106.4264         calculate D2E/DX2 analytically  !
 ! A19   A(1,4,6)              113.1399         calculate D2E/DX2 analytically  !
 ! A20   A(1,4,23)             109.1011         calculate D2E/DX2 analytically  !
 ! A21   A(1,4,24)             109.9686         calculate D2E/DX2 analytically  !
 ! A22   A(6,4,23)             109.2477         calculate D2E/DX2 analytically  !
 ! A23   A(6,4,24)             108.9299         calculate D2E/DX2 analytically  !
 ! A24   A(23,4,24)            106.2178         calculate D2E/DX2 analytically  !
 ! A25   A(3,5,7)              115.9954         calculate D2E/DX2 analytically  !
 ! A26   A(3,5,25)             108.5082         calculate D2E/DX2 analytically  !
 ! A27   A(3,5,26)             108.9264         calculate D2E/DX2 analytically  !
 ! A28   A(7,5,25)             108.2375         calculate D2E/DX2 analytically  !
 ! A29   A(7,5,26)             108.7894         calculate D2E/DX2 analytically  !
 ! A30   A(25,5,26)            105.9209         calculate D2E/DX2 analytically  !
 ! A31   A(4,6,8)              113.4874         calculate D2E/DX2 analytically  !
 ! A32   A(4,6,27)             109.2379         calculate D2E/DX2 analytically  !
 ! A33   A(4,6,28)             109.2556         calculate D2E/DX2 analytically  !
 ! A34   A(8,6,27)             109.2269         calculate D2E/DX2 analytically  !
 ! A35   A(8,6,28)             109.2556         calculate D2E/DX2 analytically  !
 ! A36   A(27,6,28)            106.1136         calculate D2E/DX2 analytically  !
 ! A37   A(5,7,9)              115.7394         calculate D2E/DX2 analytically  !
 ! A38   A(5,7,29)             107.3616         calculate D2E/DX2 analytically  !
 ! A39   A(5,7,30)             109.3907         calculate D2E/DX2 analytically  !
 ! A40   A(9,7,29)             108.7845         calculate D2E/DX2 analytically  !
 ! A41   A(9,7,30)             109.2878         calculate D2E/DX2 analytically  !
 ! A42   A(29,7,30)            105.8042         calculate D2E/DX2 analytically  !
 ! A43   A(6,8,10)             113.3903         calculate D2E/DX2 analytically  !
 ! A44   A(6,8,31)             109.28           calculate D2E/DX2 analytically  !
 ! A45   A(6,8,32)             109.2528         calculate D2E/DX2 analytically  !
 ! A46   A(10,8,31)            109.2649         calculate D2E/DX2 analytically  !
 ! A47   A(10,8,32)            109.2523         calculate D2E/DX2 analytically  !
 ! A48   A(31,8,32)            106.1451         calculate D2E/DX2 analytically  !
 ! A49   A(7,9,11)             115.0751         calculate D2E/DX2 analytically  !
 ! A50   A(7,9,33)             108.9943         calculate D2E/DX2 analytically  !
 ! A51   A(7,9,34)             109.3387         calculate D2E/DX2 analytically  !
 ! A52   A(11,9,33)            107.8056         calculate D2E/DX2 analytically  !
 ! A53   A(11,9,34)            109.4859         calculate D2E/DX2 analytically  !
 ! A54   A(33,9,34)            105.7195         calculate D2E/DX2 analytically  !
 ! A55   A(8,10,12)            113.1176         calculate D2E/DX2 analytically  !
 ! A56   A(8,10,35)            109.6792         calculate D2E/DX2 analytically  !
 ! A57   A(8,10,36)            109.37           calculate D2E/DX2 analytically  !
 ! A58   A(12,10,35)           108.9531         calculate D2E/DX2 analytically  !
 ! A59   A(12,10,36)           109.2193         calculate D2E/DX2 analytically  !
 ! A60   A(35,10,36)           106.2706         calculate D2E/DX2 analytically  !
 ! A61   A(9,11,13)            113.2237         calculate D2E/DX2 analytically  !
 ! A62   A(9,11,37)            110.2938         calculate D2E/DX2 analytically  !
 ! A63   A(9,11,38)            108.7999         calculate D2E/DX2 analytically  !
 ! A64   A(13,11,37)           109.1233         calculate D2E/DX2 analytically  !
 ! A65   A(13,11,38)           109.1234         calculate D2E/DX2 analytically  !
 ! A66   A(37,11,38)           106.0175         calculate D2E/DX2 analytically  !
 ! A67   A(10,12,14)           112.9107         calculate D2E/DX2 analytically  !
 ! A68   A(10,12,39)           109.7671         calculate D2E/DX2 analytically  !
 ! A69   A(10,12,40)           108.538          calculate D2E/DX2 analytically  !
 ! A70   A(14,12,39)           109.6252         calculate D2E/DX2 analytically  !
 ! A71   A(14,12,40)           109.0878         calculate D2E/DX2 analytically  !
 ! A72   A(39,12,40)           106.7137         calculate D2E/DX2 analytically  !
 ! A73   A(11,13,15)           113.1712         calculate D2E/DX2 analytically  !
 ! A74   A(11,13,41)           109.1928         calculate D2E/DX2 analytically  !
 ! A75   A(11,13,42)           109.1834         calculate D2E/DX2 analytically  !
 ! A76   A(15,13,41)           109.4827         calculate D2E/DX2 analytically  !
 ! A77   A(15,13,42)           109.4604         calculate D2E/DX2 analytically  !
 ! A78   A(41,13,42)           106.1057         calculate D2E/DX2 analytically  !
 ! A79   A(12,14,16)           125.33           calculate D2E/DX2 analytically  !
 ! A80   A(12,14,43)           115.8484         calculate D2E/DX2 analytically  !
 ! A81   A(16,14,43)           118.8178         calculate D2E/DX2 analytically  !
 ! A82   A(13,15,44)           111.096          calculate D2E/DX2 analytically  !
 ! A83   A(13,15,45)           111.1125         calculate D2E/DX2 analytically  !
 ! A84   A(13,15,46)           111.4728         calculate D2E/DX2 analytically  !
 ! A85   A(44,15,45)           107.5635         calculate D2E/DX2 analytically  !
 ! A86   A(44,15,46)           107.7088         calculate D2E/DX2 analytically  !
 ! A87   A(45,15,46)           107.706          calculate D2E/DX2 analytically  !
 ! A88   A(14,16,47)           121.6487         calculate D2E/DX2 analytically  !
 ! A89   A(14,16,48)           121.48           calculate D2E/DX2 analytically  !
 ! A90   A(47,16,48)           116.871          calculate D2E/DX2 analytically  !
 ! D1    D(4,1,2,3)             65.5089         calculate D2E/DX2 analytically  !
 ! D2    D(4,1,2,19)          -172.731          calculate D2E/DX2 analytically  !
 ! D3    D(4,1,2,20)           -57.4855         calculate D2E/DX2 analytically  !
 ! D4    D(17,1,2,3)          -172.716          calculate D2E/DX2 analytically  !
 ! D5    D(17,1,2,19)          -50.9559         calculate D2E/DX2 analytically  !
 ! D6    D(17,1,2,20)           64.2896         calculate D2E/DX2 analytically  !
 ! D7    D(18,1,2,3)           -57.4563         calculate D2E/DX2 analytically  !
 ! D8    D(18,1,2,19)           64.3039         calculate D2E/DX2 analytically  !
 ! D9    D(18,1,2,20)          179.5494         calculate D2E/DX2 analytically  !
 ! D10   D(2,1,4,6)            176.3922         calculate D2E/DX2 analytically  !
 ! D11   D(2,1,4,23)            54.5638         calculate D2E/DX2 analytically  !
 ! D12   D(2,1,4,24)           -61.5589         calculate D2E/DX2 analytically  !
 ! D13   D(17,1,4,6)            54.5993         calculate D2E/DX2 analytically  !
 ! D14   D(17,1,4,23)          -67.2292         calculate D2E/DX2 analytically  !
 ! D15   D(17,1,4,24)          176.6481         calculate D2E/DX2 analytically  !
 ! D16   D(18,1,4,6)           -60.6571         calculate D2E/DX2 analytically  !
 ! D17   D(18,1,4,23)          177.5145         calculate D2E/DX2 analytically  !
 ! D18   D(18,1,4,24)           61.3917         calculate D2E/DX2 analytically  !
 ! D19   D(1,2,3,5)            175.6899         calculate D2E/DX2 analytically  !
 ! D20   D(1,2,3,21)            53.7058         calculate D2E/DX2 analytically  !
 ! D21   D(1,2,3,22)           -62.4645         calculate D2E/DX2 analytically  !
 ! D22   D(19,2,3,5)            53.9111         calculate D2E/DX2 analytically  !
 ! D23   D(19,2,3,21)          -68.073          calculate D2E/DX2 analytically  !
 ! D24   D(19,2,3,22)          175.7567         calculate D2E/DX2 analytically  !
 ! D25   D(20,2,3,5)           -61.309          calculate D2E/DX2 analytically  !
 ! D26   D(20,2,3,21)          176.7068         calculate D2E/DX2 analytically  !
 ! D27   D(20,2,3,22)           60.5365         calculate D2E/DX2 analytically  !
 ! D28   D(2,3,5,7)            174.9799         calculate D2E/DX2 analytically  !
 ! D29   D(2,3,5,25)            52.9468         calculate D2E/DX2 analytically  !
 ! D30   D(2,3,5,26)           -61.9251         calculate D2E/DX2 analytically  !
 ! D31   D(21,3,5,7)           -63.7055         calculate D2E/DX2 analytically  !
 ! D32   D(21,3,5,25)          174.2613         calculate D2E/DX2 analytically  !
 ! D33   D(21,3,5,26)           59.3895         calculate D2E/DX2 analytically  !
 ! D34   D(22,3,5,7)            52.6048         calculate D2E/DX2 analytically  !
 ! D35   D(22,3,5,25)          -69.4283         calculate D2E/DX2 analytically  !
 ! D36   D(22,3,5,26)          175.6998         calculate D2E/DX2 analytically  !
 ! D37   D(1,4,6,8)            179.9514         calculate D2E/DX2 analytically  !
 ! D38   D(1,4,6,27)            57.8144         calculate D2E/DX2 analytically  !
 ! D39   D(1,4,6,28)           -57.8617         calculate D2E/DX2 analytically  !
 ! D40   D(23,4,6,8)           -58.3024         calculate D2E/DX2 analytically  !
 ! D41   D(23,4,6,27)          179.5606         calculate D2E/DX2 analytically  !
 ! D42   D(23,4,6,28)           63.8844         calculate D2E/DX2 analytically  !
 ! D43   D(24,4,6,8)            57.3233         calculate D2E/DX2 analytically  !
 ! D44   D(24,4,6,27)          -64.8137         calculate D2E/DX2 analytically  !
 ! D45   D(24,4,6,28)          179.5101         calculate D2E/DX2 analytically  !
 ! D46   D(3,5,7,9)             63.0736         calculate D2E/DX2 analytically  !
 ! D47   D(3,5,7,29)          -175.2396         calculate D2E/DX2 analytically  !
 ! D48   D(3,5,7,30)           -60.8743         calculate D2E/DX2 analytically  !
 ! D49   D(25,5,7,9)          -174.7499         calculate D2E/DX2 analytically  !
 ! D50   D(25,5,7,29)          -53.0632         calculate D2E/DX2 analytically  !
 ! D51   D(25,5,7,30)           61.3021         calculate D2E/DX2 analytically  !
 ! D52   D(26,5,7,9)           -60.093          calculate D2E/DX2 analytically  !
 ! D53   D(26,5,7,29)           61.5937         calculate D2E/DX2 analytically  !
 ! D54   D(26,5,7,30)          175.959          calculate D2E/DX2 analytically  !
 ! D55   D(4,6,8,10)          -179.973          calculate D2E/DX2 analytically  !
 ! D56   D(4,6,8,31)            57.8768         calculate D2E/DX2 analytically  !
 ! D57   D(4,6,8,32)           -57.8589         calculate D2E/DX2 analytically  !
 ! D58   D(27,6,8,10)          -57.8299         calculate D2E/DX2 analytically  !
 ! D59   D(27,6,8,31)         -179.9801         calculate D2E/DX2 analytically  !
 ! D60   D(27,6,8,32)           64.2841         calculate D2E/DX2 analytically  !
 ! D61   D(28,6,8,10)           57.8401         calculate D2E/DX2 analytically  !
 ! D62   D(28,6,8,31)          -64.3101         calculate D2E/DX2 analytically  !
 ! D63   D(28,6,8,32)          179.9542         calculate D2E/DX2 analytically  !
 ! D64   D(5,7,9,11)           -93.7047         calculate D2E/DX2 analytically  !
 ! D65   D(5,7,9,33)           145.0899         calculate D2E/DX2 analytically  !
 ! D66   D(5,7,9,34)            29.973          calculate D2E/DX2 analytically  !
 ! D67   D(29,7,9,11)          145.3722         calculate D2E/DX2 analytically  !
 ! D68   D(29,7,9,33)           24.1668         calculate D2E/DX2 analytically  !
 ! D69   D(29,7,9,34)          -90.9501         calculate D2E/DX2 analytically  !
 ! D70   D(30,7,9,11)           30.2969         calculate D2E/DX2 analytically  !
 ! D71   D(30,7,9,33)          -90.9085         calculate D2E/DX2 analytically  !
 ! D72   D(30,7,9,34)          153.9745         calculate D2E/DX2 analytically  !
 ! D73   D(6,8,10,12)          179.8711         calculate D2E/DX2 analytically  !
 ! D74   D(6,8,10,35)           58.0185         calculate D2E/DX2 analytically  !
 ! D75   D(6,8,10,36)          -58.1583         calculate D2E/DX2 analytically  !
 ! D76   D(31,8,10,12)         -57.9703         calculate D2E/DX2 analytically  !
 ! D77   D(31,8,10,35)        -179.8229         calculate D2E/DX2 analytically  !
 ! D78   D(31,8,10,36)          64.0003         calculate D2E/DX2 analytically  !
 ! D79   D(32,8,10,12)          57.7568         calculate D2E/DX2 analytically  !
 ! D80   D(32,8,10,35)         -64.0959         calculate D2E/DX2 analytically  !
 ! D81   D(32,8,10,36)         179.7274         calculate D2E/DX2 analytically  !
 ! D82   D(7,9,11,13)          179.6949         calculate D2E/DX2 analytically  !
 ! D83   D(7,9,11,37)           57.0962         calculate D2E/DX2 analytically  !
 ! D84   D(7,9,11,38)          -58.7947         calculate D2E/DX2 analytically  !
 ! D85   D(33,9,11,13)         -58.4551         calculate D2E/DX2 analytically  !
 ! D86   D(33,9,11,37)         178.9462         calculate D2E/DX2 analytically  !
 ! D87   D(33,9,11,38)          63.0553         calculate D2E/DX2 analytically  !
 ! D88   D(34,9,11,13)          56.0952         calculate D2E/DX2 analytically  !
 ! D89   D(34,9,11,37)         -66.5035         calculate D2E/DX2 analytically  !
 ! D90   D(34,9,11,38)         177.6056         calculate D2E/DX2 analytically  !
 ! D91   D(8,10,12,14)         178.0047         calculate D2E/DX2 analytically  !
 ! D92   D(8,10,12,39)         -59.3562         calculate D2E/DX2 analytically  !
 ! D93   D(8,10,12,40)          56.9285         calculate D2E/DX2 analytically  !
 ! D94   D(35,10,12,14)        -59.7363         calculate D2E/DX2 analytically  !
 ! D95   D(35,10,12,39)         62.9029         calculate D2E/DX2 analytically  !
 ! D96   D(35,10,12,40)        179.1875         calculate D2E/DX2 analytically  !
 ! D97   D(36,10,12,14)         55.9496         calculate D2E/DX2 analytically  !
 ! D98   D(36,10,12,39)        178.5888         calculate D2E/DX2 analytically  !
 ! D99   D(36,10,12,40)        -65.1266         calculate D2E/DX2 analytically  !
 ! D100  D(9,11,13,15)         178.8012         calculate D2E/DX2 analytically  !
 ! D101  D(9,11,13,41)          56.5844         calculate D2E/DX2 analytically  !
 ! D102  D(9,11,13,42)         -59.0174         calculate D2E/DX2 analytically  !
 ! D103  D(37,11,13,15)        -57.9524         calculate D2E/DX2 analytically  !
 ! D104  D(37,11,13,41)        179.8307         calculate D2E/DX2 analytically  !
 ! D105  D(37,11,13,42)         64.2289         calculate D2E/DX2 analytically  !
 ! D106  D(38,11,13,15)         57.4728         calculate D2E/DX2 analytically  !
 ! D107  D(38,11,13,41)        -64.7441         calculate D2E/DX2 analytically  !
 ! D108  D(38,11,13,42)        179.6542         calculate D2E/DX2 analytically  !
 ! D109  D(10,12,14,16)        119.3165         calculate D2E/DX2 analytically  !
 ! D110  D(10,12,14,43)        -59.9634         calculate D2E/DX2 analytically  !
 ! D111  D(39,12,14,16)         -3.4019         calculate D2E/DX2 analytically  !
 ! D112  D(39,12,14,43)        177.3183         calculate D2E/DX2 analytically  !
 ! D113  D(40,12,14,16)       -119.9201         calculate D2E/DX2 analytically  !
 ! D114  D(40,12,14,43)         60.8001         calculate D2E/DX2 analytically  !
 ! D115  D(11,13,15,44)        -59.8845         calculate D2E/DX2 analytically  !
 ! D116  D(11,13,15,45)         59.8295         calculate D2E/DX2 analytically  !
 ! D117  D(11,13,15,46)        179.9763         calculate D2E/DX2 analytically  !
 ! D118  D(41,13,15,44)         62.1704         calculate D2E/DX2 analytically  !
 ! D119  D(41,13,15,45)       -178.1156         calculate D2E/DX2 analytically  !
 ! D120  D(41,13,15,46)        -57.9688         calculate D2E/DX2 analytically  !
 ! D121  D(42,13,15,44)        178.0889         calculate D2E/DX2 analytically  !
 ! D122  D(42,13,15,45)        -62.1971         calculate D2E/DX2 analytically  !
 ! D123  D(42,13,15,46)         57.9497         calculate D2E/DX2 analytically  !
 ! D124  D(12,14,16,47)       -179.5354         calculate D2E/DX2 analytically  !
 ! D125  D(12,14,16,48)          0.6368         calculate D2E/DX2 analytically  !
 ! D126  D(43,14,16,47)         -0.2752         calculate D2E/DX2 analytically  !
 ! D127  D(43,14,16,48)        179.897          calculate D2E/DX2 analytically  !
 --------------------------------------------------------------------------------
 Trust Radius=3.00D-01 FncErr=1.00D-07 GrdErr=1.00D-06
 Number of steps in this run=    274 maximum allowed number of steps=    288.
 GradGradGradGradGradGradGradGradGradGradGradGradGradGradGradGradGradGrad

 Leave Link  103 at Sun Apr 26 19:23:04 2015, MaxMem=   524288000 cpu:         0.1
 (Enter /opt/g09/l202.exe)
                          Input orientation:                          
 ---------------------------------------------------------------------
 Center     Atomic      Atomic             Coordinates (Angstroms)
 Number     Number       Type             X           Y           Z
 ---------------------------------------------------------------------
      1          6           0        6.851440    5.646330    7.234060
      2          6           0        5.536550    6.373050    7.570060
      3          6           0        4.272150    5.715040    6.992710
      4          6           0        7.220810    5.644440    5.741810
      5          6           0        2.982480    6.418600    7.444730
      6          6           0        8.580280    4.987990    5.457210
      7          6           0        1.674150    5.899170    6.817330
      8          6           0        8.956780    4.980720    3.968190
      9          6           0        1.311010    4.430100    7.140190
     10          6           0       10.315680    4.323490    3.686180
     11          6           0        1.788600    3.397540    6.104250
     12          6           0       10.686040    4.316770    2.188880
     13          6           0        1.412320    1.953930    6.470060
     14          6           0       12.039890    3.714670    1.922740
     15          6           0        1.863620    0.928150    5.421690
     16          6           0       12.270980    2.637370    1.169220
     17          1           0        7.668280    6.118580    7.797440
     18          1           0        6.793730    4.608600    7.594440
     19          1           0        5.435180    6.428830    8.662970
     20          1           0        5.596930    7.413160    7.217040
     21          1           0        4.250910    4.660800    7.301740
     22          1           0        4.315730    5.716180    5.895080
     23          1           0        7.234200    6.680900    5.372910
     24          1           0        6.445600    5.123260    5.164200
     25          1           0        3.071450    7.490490    7.216960
     26          1           0        2.902670    6.348370    8.539720
     27          1           0        8.569410    3.954570    5.833050
     28          1           0        9.362120    5.511590    6.026440
     29          1           0        0.862360    6.549040    7.167790
     30          1           0        1.714440    6.032070    5.726380
     31          1           0        8.968260    6.013920    3.591480
     32          1           0        8.175370    4.456430    3.399150
     33          1           0        0.219420    4.341780    7.223820
     34          1           0        1.708230    4.166060    8.131560
     35          1           0       10.310610    3.289660    4.057060
     36          1           0       11.099120    4.849300    4.250410
     37          1           0        2.876580    3.463690    5.974430
     38          1           0        1.350520    3.647450    5.126670
     39          1           0        9.921850    3.771710    1.619890
     40          1           0       10.674800    5.353880    1.821020
     41          1           0        0.323570    1.887080    6.603280
     42          1           0        1.854660    1.701150    7.443700
     43          1           0       12.884400    4.210380    2.405150
     44          1           0        1.409830    1.135890    4.445390
     45          1           0        2.952190    0.949000    5.291760
     46          1           0        1.581990   -0.090340    5.710070
     47          1           0       13.274560    2.248710    1.023150
     48          1           0       11.461430    2.108900    0.669960
 ---------------------------------------------------------------------
                    Distance matrix (angstroms):
                    1          2          3          4          5
     1  C    0.000000
     2  C    1.539465   0.000000
     3  C    2.591468   1.537861   0.000000
     4  C    1.537286   2.590387   3.203799   0.000000
     5  C    3.950903   2.557549   1.537065   4.632785   0.000000
     6  C    2.565053   3.955606   4.631020   1.536256   6.110012
     7  C    5.200185   3.963496   2.610415   5.655711   1.541157
     8  C    3.942258   5.158490   5.624296   2.569016   7.060176
     9  C    5.673129   4.670656   3.231280   6.193208   2.615471
    10  C    5.132087   6.490401   7.028073   3.943190   8.502471
    11  C    5.653837   5.004936   3.511152   5.889722   3.514120
    12  C    6.475008   7.726748   8.134490   5.137493   9.559628
    13  C    6.618273   6.143932   4.753708   6.920171   4.832045
    14  C    7.672121   9.014025   9.489144   6.444598  10.947159
    15  C    7.101004   6.910343   5.584213   7.144603   5.957313
    16  C    8.672228  10.013921  10.361774   7.446829  11.830298
    17  H    1.098929   2.158872   3.513422   2.156537   4.708624
    18  H    1.100040   2.166652   2.818626   2.165087   4.221864
    19  H    2.158676   1.099018   2.156827   3.512395   2.738604
    20  H    2.166973   1.100044   2.165405   2.818095   2.806482
    21  H    2.781835   2.157931   1.098805   3.495888   2.172377
    22  H    2.868374   2.174267   1.098495   2.910005   2.161565
    23  H    2.163497   2.793610   3.511464   1.100234   4.736915
    24  H    2.173161   2.859460   2.901299   1.098277   4.344183
    25  H    4.205894   2.729482   2.155039   4.775056   1.099428
    26  H    4.217866   2.806808   2.160977   5.193279   1.100139
    27  H    2.788602   4.250234   4.786492   2.163956   6.315279
    28  H    2.789268   4.214245   5.184869   2.164225   6.598032
    29  H    6.057091   4.694768   3.514666   6.578876   2.142106
    30  H    5.367557   4.257223   2.871581   5.520019   2.170267
    31  H    4.229000   5.266375   5.806130   2.795356   7.130278
    32  H    4.227906   5.294648   5.452788   2.794747   6.868984
    33  H    6.759116   5.702439   4.285309   7.274114   3.463594
    34  H    5.426722   4.454450   3.204685   6.187491   2.677571
    35  H    5.254815   6.681326   7.138873   4.234411   8.658410
    36  H    5.251686   6.654628   7.407917   4.230580   8.862631
    37  H    4.706389   4.252746   2.837796   4.866428   3.302195
    38  H    6.220670   5.560746   4.036453   6.231105   3.964337
    39  H    6.667872   7.835965   8.035100   5.271903   9.438731
    40  H    6.633597   7.777646   8.238370   5.233265   9.588093
    41  H    7.559294   6.945052   5.513276   7.901380   5.320950
    42  H    6.369945   5.949700   4.707331   6.873248   4.850393
    43  H    7.859830   9.238200   9.873224   6.728007  11.327913
    44  H    7.598149   7.363506   5.970790   7.468281   6.275053
    45  H    6.406371   6.425721   5.229786   6.361668   5.878156
    46  H    7.937193   7.802148   6.525685   8.042699   6.880168
    47  H    9.559064  10.942989  11.344359   8.393130  12.827766
    48  H    8.766574  10.044827  10.230697   7.497104  11.677483
                    6          7          8          9         10
     6  C    0.000000
     7  C    7.097521   0.000000
     8  C    1.535899   7.873871   0.000000
     9  C    7.482376   1.547345   8.295937   0.000000
    10  C    2.567045   9.325391   1.535607   9.644980   0.000000
    11  C    7.005363   2.603792   7.645392   1.538650   8.911540
    12  C    3.945471  10.253814   2.568485  10.602806   1.542439
    13  C    7.849270   3.969140   8.505274   2.567247   9.624688
    14  C    5.107125  11.669517   3.910539  11.951673   2.540331
    15  C    7.848381   5.166696   8.297524   3.939832   9.272413
    16  C    6.126462  12.443203   4.930461  12.609017   3.605730
    17  H    2.754388   6.077693   4.197394   6.610433   5.208986
    18  H    2.811307   5.336625   4.238744   5.504400   5.268768
    19  H    4.716415   4.222828   6.044803   4.829344   7.281495
    20  H    4.228336   4.223759   5.268812   5.222419   6.654294
    21  H    4.717286   2.899639   5.775822   2.953360   7.068768
    22  H    4.348376   2.803921   5.078696   3.497520   6.543564
    23  H    2.164482   5.797552   2.798416   6.578264   4.230598
    24  H    2.158938   5.108974   2.785100   5.545180   4.219205
    25  H    6.301304   2.155099   7.175692   3.531434   8.658820
    26  H    6.602102   2.162792   7.708541   2.858641   9.088988
    27  H    1.099696   7.231520   2.163502   7.390475   2.791883
    28  H    1.099752   7.738256   2.163912   8.199417   2.792432
    29  H    8.057869   1.097341   8.844021   2.166092  10.316973
    30  H    6.949987   1.099753   7.526490   2.174379   9.003499
    31  H    2.164257   7.976423   1.099793   8.586926   2.163807
    32  H    2.163820   7.485407   1.099676   7.817641   2.163559
    33  H    8.569859   2.169548   9.346060   1.098346  10.698117
    34  H    7.419757   2.175323   8.398738   1.100143   9.688879
    35  H    2.799783   9.434886   2.168049   9.581184   1.098354
    36  H    2.796454   9.824529   2.164842  10.214385   1.099368
    37  H    5.926483   2.843920   6.579910   2.178062   7.830425
    38  H    7.360417   2.834310   7.808641   2.160640   9.105281
    39  H    4.243132   9.978177   2.812042  10.249573   2.174653
    40  H    4.212216  10.308839   2.775100  10.808677   2.160901
    41  H    8.893952   4.238720   9.541835   2.780335  10.690549
    42  H    7.744897   4.248329   8.560073   2.799079   9.622083
    43  H    5.333404  12.165075   4.296826  12.506488   2.872656
    44  H    8.202305   5.327739   8.483330   4.257174   9.489539
    45  H    6.929373   5.335254   7.352667   4.269452   8.257485
    46  H    8.650401   6.091695   9.117967   4.749005   9.992766
    47  H    7.014329  13.471002   5.897488  13.612611   4.489032
    48  H    6.285535  12.163353   5.039736  12.258991   3.913405
                   11         12         13         14         15
    11  C    0.000000
    12  C    9.764197   0.000000
    13  C    1.536038  10.483959   0.000000
    14  C   11.075854   1.505412  11.692885   0.000000
    15  C    2.563085   9.988438   1.534593  11.115926   0.000000
    16  C   11.610886   2.524307  12.102747   1.334830  11.371811
    17  H    6.696386   6.618862   7.631729   7.707260   8.141181
    18  H    5.360845   6.667482   6.105004   7.777499   6.524764
    19  H    5.388257   8.599196   6.404451   9.819346   7.315697
    20  H    5.645076   7.795452   6.918969   9.122509   7.695209
    21  H    3.015423   8.226214   4.009542   9.512992   4.813150
    22  H    3.436019   7.501674   4.786953   8.913371   5.400201
    23  H    6.400771   5.257600   7.579068   6.617919   7.870174
    24  H    5.054647   5.242546   6.089649   6.617195   6.217700
    25  H    4.431260   9.661059   5.827870  11.077838   6.909859
    26  H    3.984980  10.248971   5.080919  11.584886   6.338811
    27  H    6.809054   4.229809   7.458705   5.233766   7.368586
    28  H    7.863426   4.231693   8.720841   5.219169   8.809151
    29  H    3.452679  11.237316   4.680205  12.668125   5.970410
    30  H    2.662524   9.795191   4.156388  11.245130   5.115182
    31  H    8.044065   2.792557   9.047761   4.184036   8.926961
    32  H    7.016384   2.790649   7.837847   4.202917   7.508503
    33  H    2.146474  11.614705   2.773624  12.969897   4.195704
    34  H    2.169578  10.767508   2.782385  12.062189   4.225116
    35  H    8.765117   2.164717   9.315917   2.779634   8.876406
    36  H    9.603651   2.168900  10.351044   2.755083  10.101573
    37  H    1.097693   8.720424   2.160806  10.022247   2.785780
    38  H    1.100014   9.809716   2.162528  11.159405   2.782966
    39  H    9.295119   1.097646   9.961956   2.140342   9.352785
    40  H   10.056733   1.100475  10.907189   2.135609  10.497085
    41  H    2.162599  11.522634   1.098905  12.748321   2.165053
    42  H    2.162459  10.604144   1.098880  11.759004   2.164748
    43  H   11.724369   2.211533  12.378355   1.091625  11.888235
    44  H    2.830255  10.062699   2.183686  11.225509   1.096468
    45  H    2.830094   8.987890   2.183913  10.078964   1.096495
    46  H    3.516159  10.710048   2.187559  11.755409   1.095354
    47  H   12.612084   3.512298  13.056357   2.117241  12.300430
    48  H   11.169411   2.789810  11.603870   2.117208  10.774556
                   16         17         18         19         20
    16  C    0.000000
    17  H    8.788457   0.000000
    18  H    8.670033   1.756726   0.000000
    19  H   10.828648   2.414981   2.510110   0.000000
    20  H   10.194471   2.510636   3.072510   1.756639   0.000000
    21  H   10.296776   3.748234   2.560143   2.526138   3.065033
    22  H    9.751863   3.875628   3.202349   3.069569   2.503756
    23  H    7.706510   2.526455   3.069794   3.758259   2.572484
    24  H    7.488295   3.069130   2.508413   3.868702   3.190303
    25  H   12.031595   4.832178   4.722621   2.967370   2.526664
    26  H   12.484431   4.828542   4.365856   2.536784   3.184697
    27  H    6.098192   3.058399   2.585206   4.894263   4.765806
    28  H    6.349425   2.524673   3.141758   4.818037   4.382939
    29  H   13.469989   6.848526   6.255277   4.812556   4.813033
    30  H   11.988838   6.304362   5.595990   4.756562   4.382146
    31  H    5.308144   4.403521   4.767305   6.194741   5.144747
    32  H    5.005556   4.729148   4.419564   6.253543   5.474202
    33  H   13.594237   7.679295   6.590152   5.799231   6.192821
    34  H   12.742949   6.280618   5.132899   4.392343   5.148009
    35  H    3.550796   5.382856   5.159564   7.405310   7.014806
    36  H    3.969839   5.095405   5.456817   7.351586   6.756357
    37  H   10.584309   5.773404   4.390822   4.750446   4.954059
    38  H   11.659250   7.290651   6.053283   6.076672   6.048323
    39  H    2.647309   6.982013   6.795643   8.763302   7.955701
    40  H    3.217462   6.733612   6.996465   8.684550   7.690412
    41  H   13.146579   8.560162   7.088867   7.141314   7.663066
    42  H   12.196119   7.310061   5.733271   6.054560   6.832497
    43  H    2.092407   7.741184   8.011465   9.978613   9.301575
    44  H   11.443440   8.673617   7.138810   7.874429   8.038530
    45  H   10.328881   7.432664   5.783808   6.896291   7.244772
    46  H   11.929553   8.941517   7.265888   8.128116   8.642524
    47  H    1.086078   9.607147   9.526389  11.717343  11.134712
    48  H    1.088077   9.014793   8.716900  10.902554  10.266050
                   21         22         23         24         25
    21  H    0.000000
    22  H    1.759750   0.000000
    23  H    4.086711   3.117822   0.000000
    24  H    3.098324   2.328537   1.758321   0.000000
    25  H    3.066832   2.538459   4.624332   4.604616   0.000000
    26  H    2.489626   3.064396   5.376004   5.044540   1.755739
    27  H    4.615761   4.604445   3.070405   2.514710   6.681729
    28  H    5.336169   5.052244   2.514444   3.065999   6.701187
    29  H    3.881451   3.773488   6.621127   6.100802   2.401838
    30  H    3.285699   2.625825   5.568992   4.850346   2.488030
    31  H    6.152264   5.200121   2.573970   3.103311   7.077905
    32  H    5.538354   4.765864   3.119262   2.559720   7.059121
    33  H    4.044843   4.520429   7.622630   6.604397   4.248352
    34  H    2.720035   3.768789   6.668652   5.671343   3.707654
    35  H    7.009132   6.723459   4.764060   4.418840   8.946361
    36  H    7.499608   7.033548   4.421806   4.750296   8.956550
    37  H    2.254686   2.674165   5.449873   4.018526   4.218646
    38  H    3.764315   3.696291   6.624209   5.304645   4.701050
    39  H    8.076723   7.313467   5.456373   5.145205   9.596067
    40  H    8.472604   7.560886   5.120023   5.395940   9.565156
    41  H    4.858536   5.576818   8.500078   7.072698   6.271017
    42  H    3.810734   4.957374   7.617449   6.163091   5.920173
    43  H    9.935624   9.373855   6.843671   7.064266  11.410812
    44  H    5.353080   5.614705   8.095104   6.463342   7.129062
    45  H    4.416351   4.994922   7.155199   5.444688   6.819949
    46  H    5.677136   6.420533   8.826712   7.150825   7.871353
    47  H   11.254560  10.771243   8.663179   8.487993  13.036219
    48  H   10.123453   9.559047   7.803230   7.378557  11.925455
                   26         27         28         29         30
    26  H    0.000000
    27  H    6.720735   0.000000
    28  H    6.981495   1.757868   0.000000
    29  H    2.466845   8.240839   8.638571   0.000000
    30  H    3.070312   7.163658   7.671241   1.752416   0.000000
    31  H    7.835070   3.069958   2.517239   8.875920   7.561483
    32  H    7.603043   2.516148   3.069917   8.488921   7.045726
    33  H    3.599698   8.473872   9.294683   2.299676   2.708227
    34  H    2.521063   7.239038   8.051336   2.706094   3.044162
    35  H    9.183002   2.574495   3.116900  10.467551   9.176142
    36  H    9.371616   3.115241   2.571008  10.779215   9.573382
    37  H    3.860411   5.715703   6.801384   3.873058   2.829960
    38  H    4.620936   7.259867   8.274681   3.581019   2.485659
    39  H   10.187841   4.428685   4.770552  10.980306   9.451670
    40  H   10.321625   4.742059   4.408351  11.238342   9.797950
    41  H    5.504967   8.535903   9.755265   4.726821   4.459194
    42  H    4.888378   7.263605   8.537566   4.956089   4.661085
    43  H   11.909613   5.516799   5.216641  13.140834  11.794792
    44  H    6.794266   7.818577   9.213327   6.083862   5.070138
    45  H    6.301182   6.393716   7.902163   6.264769   5.249621
    46  H    7.155984   8.074680   9.592295   6.835509   6.123864
    47  H   13.449243   6.941436   7.140482  14.502143  13.041110
    48  H   12.375726   6.199014   6.684106  13.201399  11.660294
                   31         32         33         34         35
    31  H    0.000000
    32  H    1.758249   0.000000
    33  H    9.619363   8.828272   0.000000
    34  H    8.759849   8.018972   1.752548   0.000000
    35  H    3.072501   2.520605  10.628614   9.558795   0.000000
    36  H    2.516166   3.070392  11.290111  10.184250   1.758297
    37  H    7.020733   5.974510   3.064721   2.551779   7.679284
    38  H    8.123235   7.086420   2.481838   3.070224   9.030797
    39  H    3.134327   2.585498  11.219009  10.489085   2.514618
    40  H    2.546068   3.089185  11.812263  11.028745   3.064884
    41  H   10.041534   8.861082   2.534062   3.073544  10.401511
    42  H    9.167491   7.993831   3.113725   2.563274   9.246393
    43  H    4.471721   4.819081  13.551331  12.557886   3.193889
    44  H    9.036272   7.608754   4.406187   4.781090   9.165883
    45  H    8.045960   6.570057   4.765694   4.467816   7.819816
    46  H    9.813633   8.335834   4.877676   4.898621   9.505033
    47  H    6.270354   6.043272  14.603627  13.710788   4.367286
    48  H    5.477258   4.874173  13.203091  12.451196   3.767098
                   36         37         38         39         40
    36  H    0.000000
    37  H    8.514830   0.000000
    38  H    9.861414   1.755370   0.000000
    39  H    3.076817   8.288107   9.261784   0.000000
    40  H    2.517257   9.035257  10.038995   1.763703   0.000000
    41  H   11.420299   3.065781   2.516725  10.977841  11.917914
    42  H   10.274628   2.511896   3.067714  10.162851  11.079343
    43  H    2.645832  10.651468  11.863977   3.096089   2.555608
    44  H   10.378332   3.147693   2.602997   9.348020  10.512774
    45  H    9.092261   2.606803   3.142329   8.368183   9.543988
    46  H   10.821572   3.791699   3.790120  10.059735  11.289085
    47  H    4.680899  11.580559  12.687714   3.730455   4.127642
    48  H    4.523349  10.181970  11.156160   2.457155   3.531801
                   41         42         43         44         45
    41  H    0.000000
    42  H    1.756449   0.000000
    43  H   13.446058  12.382988   0.000000
    44  H    2.529968   3.083384  12.053250   0.000000
    45  H    3.083784   2.530049  10.845179   1.769221   0.000000
    46  H    2.508313   2.507839  12.536473   1.769942   1.769932
    47  H   14.106621  13.112490   2.431110  12.398464  11.245515
    48  H   12.621625  11.761796   3.074402  10.781247   9.752619
                   46         47         48
    46  H    0.000000
    47  H   12.812282   0.000000
    48  H   11.306755   1.852493   0.000000
 Symmetry turned off by external request.
 Stoichiometry    C16H32
 Framework group  C1[X(C16H32)]
 Deg. of freedom   138
 Full point group                 C1      NOp   1
 Rotational constants (GHZ):      0.5818063      0.1208536      0.1041172
 Leave Link  202 at Sun Apr 26 19:23:04 2015, MaxMem=   524288000 cpu:         0.0
 (Enter /opt/g09/l301.exe)
 Standard basis: 6-311+G(d,p) (5D, 7F)
 Ernie: Thresh=  0.10000D-02 Tol=  0.10000D-05 Strict=F.
 AO basis set in the form of general basis input (Overlap normalization):
      1 0
 S   6 1.00       0.000000000000
      0.4563240000D+04  0.1966650249D-02
      0.6820240000D+03  0.1523060193D-01
      0.1549730000D+03  0.7612690966D-01
      0.4445530000D+02  0.2608010331D+00
      0.1302900000D+02  0.6164620782D+00
      0.1827730000D+01  0.2210060280D+00
 SP   3 1.00       0.000000000000
      0.2096420000D+02  0.1146600807D+00  0.4024869267D-01
      0.4803310000D+01  0.9199996477D+00  0.2375939567D+00
      0.1459330000D+01 -0.3030682134D-02  0.8158538515D+00
 SP   1 1.00       0.000000000000
      0.4834560000D+00  0.1000000000D+01  0.1000000000D+01
 SP   1 1.00       0.000000000000
      0.1455850000D+00  0.1000000000D+01  0.1000000000D+01
 SP   1 1.00       0.000000000000
      0.4380000000D-01  0.1000000000D+01  0.1000000000D+01
 D   1 1.00       0.000000000000
      0.6260000000D+00  0.1000000000D+01
 ****
      2 0
 S   6 1.00       0.000000000000
      0.4563240000D+04  0.1966650249D-02
      0.6820240000D+03  0.1523060193D-01
      0.1549730000D+03  0.7612690966D-01
      0.4445530000D+02  0.2608010331D+00
      0.1302900000D+02  0.6164620782D+00
      0.1827730000D+01  0.2210060280D+00
 SP   3 1.00       0.000000000000
      0.2096420000D+02  0.1146600807D+00  0.4024869267D-01
      0.4803310000D+01  0.9199996477D+00  0.2375939567D+00
      0.1459330000D+01 -0.3030682134D-02  0.8158538515D+00
 SP   1 1.00       0.000000000000
      0.4834560000D+00  0.1000000000D+01  0.1000000000D+01
 SP   1 1.00       0.000000000000
      0.1455850000D+00  0.1000000000D+01  0.1000000000D+01
 SP   1 1.00       0.000000000000
      0.4380000000D-01  0.1000000000D+01  0.1000000000D+01
 D   1 1.00       0.000000000000
      0.6260000000D+00  0.1000000000D+01
 ****
      3 0
 S   6 1.00       0.000000000000
      0.4563240000D+04  0.1966650249D-02
      0.6820240000D+03  0.1523060193D-01
      0.1549730000D+03  0.7612690966D-01
      0.4445530000D+02  0.2608010331D+00
      0.1302900000D+02  0.6164620782D+00
      0.1827730000D+01  0.2210060280D+00
 SP   3 1.00       0.000000000000
      0.2096420000D+02  0.1146600807D+00  0.4024869267D-01
      0.4803310000D+01  0.9199996477D+00  0.2375939567D+00
      0.1459330000D+01 -0.3030682134D-02  0.8158538515D+00
 SP   1 1.00       0.000000000000
      0.4834560000D+00  0.1000000000D+01  0.1000000000D+01
 SP   1 1.00       0.000000000000
      0.1455850000D+00  0.1000000000D+01  0.1000000000D+01
 SP   1 1.00       0.000000000000
      0.4380000000D-01  0.1000000000D+01  0.1000000000D+01
 D   1 1.00       0.000000000000
      0.6260000000D+00  0.1000000000D+01
 ****
      4 0
 S   6 1.00       0.000000000000
      0.4563240000D+04  0.1966650249D-02
      0.6820240000D+03  0.1523060193D-01
      0.1549730000D+03  0.7612690966D-01
      0.4445530000D+02  0.2608010331D+00
      0.1302900000D+02  0.6164620782D+00
      0.1827730000D+01  0.2210060280D+00
 SP   3 1.00       0.000000000000
      0.2096420000D+02  0.1146600807D+00  0.4024869267D-01
      0.4803310000D+01  0.9199996477D+00  0.2375939567D+00
      0.1459330000D+01 -0.3030682134D-02  0.8158538515D+00
 SP   1 1.00       0.000000000000
      0.4834560000D+00  0.1000000000D+01  0.1000000000D+01
 SP   1 1.00       0.000000000000
      0.1455850000D+00  0.1000000000D+01  0.1000000000D+01
 SP   1 1.00       0.000000000000
      0.4380000000D-01  0.1000000000D+01  0.1000000000D+01
 D   1 1.00       0.000000000000
      0.6260000000D+00  0.1000000000D+01
 ****
      5 0
 S   6 1.00       0.000000000000
      0.4563240000D+04  0.1966650249D-02
      0.6820240000D+03  0.1523060193D-01
      0.1549730000D+03  0.7612690966D-01
      0.4445530000D+02  0.2608010331D+00
      0.1302900000D+02  0.6164620782D+00
      0.1827730000D+01  0.2210060280D+00
 SP   3 1.00       0.000000000000
      0.2096420000D+02  0.1146600807D+00  0.4024869267D-01
      0.4803310000D+01  0.9199996477D+00  0.2375939567D+00
      0.1459330000D+01 -0.3030682134D-02  0.8158538515D+00
 SP   1 1.00       0.000000000000
      0.4834560000D+00  0.1000000000D+01  0.1000000000D+01
 SP   1 1.00       0.000000000000
      0.1455850000D+00  0.1000000000D+01  0.1000000000D+01
 SP   1 1.00       0.000000000000
      0.4380000000D-01  0.1000000000D+01  0.1000000000D+01
 D   1 1.00       0.000000000000
      0.6260000000D+00  0.1000000000D+01
 ****
      6 0
 S   6 1.00       0.000000000000
      0.4563240000D+04  0.1966650249D-02
      0.6820240000D+03  0.1523060193D-01
      0.1549730000D+03  0.7612690966D-01
      0.4445530000D+02  0.2608010331D+00
      0.1302900000D+02  0.6164620782D+00
      0.1827730000D+01  0.2210060280D+00
 SP   3 1.00       0.000000000000
      0.2096420000D+02  0.1146600807D+00  0.4024869267D-01
      0.4803310000D+01  0.9199996477D+00  0.2375939567D+00
      0.1459330000D+01 -0.3030682134D-02  0.8158538515D+00
 SP   1 1.00       0.000000000000
      0.4834560000D+00  0.1000000000D+01  0.1000000000D+01
 SP   1 1.00       0.000000000000
      0.1455850000D+00  0.1000000000D+01  0.1000000000D+01
 SP   1 1.00       0.000000000000
      0.4380000000D-01  0.1000000000D+01  0.1000000000D+01
 D   1 1.00       0.000000000000
      0.6260000000D+00  0.1000000000D+01
 ****
      7 0
 S   6 1.00       0.000000000000
      0.4563240000D+04  0.1966650249D-02
      0.6820240000D+03  0.1523060193D-01
      0.1549730000D+03  0.7612690966D-01
      0.4445530000D+02  0.2608010331D+00
      0.1302900000D+02  0.6164620782D+00
      0.1827730000D+01  0.2210060280D+00
 SP   3 1.00       0.000000000000
      0.2096420000D+02  0.1146600807D+00  0.4024869267D-01
      0.4803310000D+01  0.9199996477D+00  0.2375939567D+00
      0.1459330000D+01 -0.3030682134D-02  0.8158538515D+00
 SP   1 1.00       0.000000000000
      0.4834560000D+00  0.1000000000D+01  0.1000000000D+01
 SP   1 1.00       0.000000000000
      0.1455850000D+00  0.1000000000D+01  0.1000000000D+01
 SP   1 1.00       0.000000000000
      0.4380000000D-01  0.1000000000D+01  0.1000000000D+01
 D   1 1.00       0.000000000000
      0.6260000000D+00  0.1000000000D+01
 ****
      8 0
 S   6 1.00       0.000000000000
      0.4563240000D+04  0.1966650249D-02
      0.6820240000D+03  0.1523060193D-01
      0.1549730000D+03  0.7612690966D-01
      0.4445530000D+02  0.2608010331D+00
      0.1302900000D+02  0.6164620782D+00
      0.1827730000D+01  0.2210060280D+00
 SP   3 1.00       0.000000000000
      0.2096420000D+02  0.1146600807D+00  0.4024869267D-01
      0.4803310000D+01  0.9199996477D+00  0.2375939567D+00
      0.1459330000D+01 -0.3030682134D-02  0.8158538515D+00
 SP   1 1.00       0.000000000000
      0.4834560000D+00  0.1000000000D+01  0.1000000000D+01
 SP   1 1.00       0.000000000000
      0.1455850000D+00  0.1000000000D+01  0.1000000000D+01
 SP   1 1.00       0.000000000000
      0.4380000000D-01  0.1000000000D+01  0.1000000000D+01
 D   1 1.00       0.000000000000
      0.6260000000D+00  0.1000000000D+01
 ****
      9 0
 S   6 1.00       0.000000000000
      0.4563240000D+04  0.1966650249D-02
      0.6820240000D+03  0.1523060193D-01
      0.1549730000D+03  0.7612690966D-01
      0.4445530000D+02  0.2608010331D+00
      0.1302900000D+02  0.6164620782D+00
      0.1827730000D+01  0.2210060280D+00
 SP   3 1.00       0.000000000000
      0.2096420000D+02  0.1146600807D+00  0.4024869267D-01
      0.4803310000D+01  0.9199996477D+00  0.2375939567D+00
      0.1459330000D+01 -0.3030682134D-02  0.8158538515D+00
 SP   1 1.00       0.000000000000
      0.4834560000D+00  0.1000000000D+01  0.1000000000D+01
 SP   1 1.00       0.000000000000
      0.1455850000D+00  0.1000000000D+01  0.1000000000D+01
 SP   1 1.00       0.000000000000
      0.4380000000D-01  0.1000000000D+01  0.1000000000D+01
 D   1 1.00       0.000000000000
      0.6260000000D+00  0.1000000000D+01
 ****
     10 0
 S   6 1.00       0.000000000000
      0.4563240000D+04  0.1966650249D-02
      0.6820240000D+03  0.1523060193D-01
      0.1549730000D+03  0.7612690966D-01
      0.4445530000D+02  0.2608010331D+00
      0.1302900000D+02  0.6164620782D+00
      0.1827730000D+01  0.2210060280D+00
 SP   3 1.00       0.000000000000
      0.2096420000D+02  0.1146600807D+00  0.4024869267D-01
      0.4803310000D+01  0.9199996477D+00  0.2375939567D+00
      0.1459330000D+01 -0.3030682134D-02  0.8158538515D+00
 SP   1 1.00       0.000000000000
      0.4834560000D+00  0.1000000000D+01  0.1000000000D+01
 SP   1 1.00       0.000000000000
      0.1455850000D+00  0.1000000000D+01  0.1000000000D+01
 SP   1 1.00       0.000000000000
      0.4380000000D-01  0.1000000000D+01  0.1000000000D+01
 D   1 1.00       0.000000000000
      0.6260000000D+00  0.1000000000D+01
 ****
     11 0
 S   6 1.00       0.000000000000
      0.4563240000D+04  0.1966650249D-02
      0.6820240000D+03  0.1523060193D-01
      0.1549730000D+03  0.7612690966D-01
      0.4445530000D+02  0.2608010331D+00
      0.1302900000D+02  0.6164620782D+00
      0.1827730000D+01  0.2210060280D+00
 SP   3 1.00       0.000000000000
      0.2096420000D+02  0.1146600807D+00  0.4024869267D-01
      0.4803310000D+01  0.9199996477D+00  0.2375939567D+00
      0.1459330000D+01 -0.3030682134D-02  0.8158538515D+00
 SP   1 1.00       0.000000000000
      0.4834560000D+00  0.1000000000D+01  0.1000000000D+01
 SP   1 1.00       0.000000000000
      0.1455850000D+00  0.1000000000D+01  0.1000000000D+01
 SP   1 1.00       0.000000000000
      0.4380000000D-01  0.1000000000D+01  0.1000000000D+01
 D   1 1.00       0.000000000000
      0.6260000000D+00  0.1000000000D+01
 ****
     12 0
 S   6 1.00       0.000000000000
      0.4563240000D+04  0.1966650249D-02
      0.6820240000D+03  0.1523060193D-01
      0.1549730000D+03  0.7612690966D-01
      0.4445530000D+02  0.2608010331D+00
      0.1302900000D+02  0.6164620782D+00
      0.1827730000D+01  0.2210060280D+00
 SP   3 1.00       0.000000000000
      0.2096420000D+02  0.1146600807D+00  0.4024869267D-01
      0.4803310000D+01  0.9199996477D+00  0.2375939567D+00
      0.1459330000D+01 -0.3030682134D-02  0.8158538515D+00
 SP   1 1.00       0.000000000000
      0.4834560000D+00  0.1000000000D+01  0.1000000000D+01
 SP   1 1.00       0.000000000000
      0.1455850000D+00  0.1000000000D+01  0.1000000000D+01
 SP   1 1.00       0.000000000000
      0.4380000000D-01  0.1000000000D+01  0.1000000000D+01
 D   1 1.00       0.000000000000
      0.6260000000D+00  0.1000000000D+01
 ****
     13 0
 S   6 1.00       0.000000000000
      0.4563240000D+04  0.1966650249D-02
      0.6820240000D+03  0.1523060193D-01
      0.1549730000D+03  0.7612690966D-01
      0.4445530000D+02  0.2608010331D+00
      0.1302900000D+02  0.6164620782D+00
      0.1827730000D+01  0.2210060280D+00
 SP   3 1.00       0.000000000000
      0.2096420000D+02  0.1146600807D+00  0.4024869267D-01
      0.4803310000D+01  0.9199996477D+00  0.2375939567D+00
      0.1459330000D+01 -0.3030682134D-02  0.8158538515D+00
 SP   1 1.00       0.000000000000
      0.4834560000D+00  0.1000000000D+01  0.1000000000D+01
 SP   1 1.00       0.000000000000
      0.1455850000D+00  0.1000000000D+01  0.1000000000D+01
 SP   1 1.00       0.000000000000
      0.4380000000D-01  0.1000000000D+01  0.1000000000D+01
 D   1 1.00       0.000000000000
      0.6260000000D+00  0.1000000000D+01
 ****
     14 0
 S   6 1.00       0.000000000000
      0.4563240000D+04  0.1966650249D-02
      0.6820240000D+03  0.1523060193D-01
      0.1549730000D+03  0.7612690966D-01
      0.4445530000D+02  0.2608010331D+00
      0.1302900000D+02  0.6164620782D+00
      0.1827730000D+01  0.2210060280D+00
 SP   3 1.00       0.000000000000
      0.2096420000D+02  0.1146600807D+00  0.4024869267D-01
      0.4803310000D+01  0.9199996477D+00  0.2375939567D+00
      0.1459330000D+01 -0.3030682134D-02  0.8158538515D+00
 SP   1 1.00       0.000000000000
      0.4834560000D+00  0.1000000000D+01  0.1000000000D+01
 SP   1 1.00       0.000000000000
      0.1455850000D+00  0.1000000000D+01  0.1000000000D+01
 SP   1 1.00       0.000000000000
      0.4380000000D-01  0.1000000000D+01  0.1000000000D+01
 D   1 1.00       0.000000000000
      0.6260000000D+00  0.1000000000D+01
 ****
     15 0
 S   6 1.00       0.000000000000
      0.4563240000D+04  0.1966650249D-02
      0.6820240000D+03  0.1523060193D-01
      0.1549730000D+03  0.7612690966D-01
      0.4445530000D+02  0.2608010331D+00
      0.1302900000D+02  0.6164620782D+00
      0.1827730000D+01  0.2210060280D+00
 SP   3 1.00       0.000000000000
      0.2096420000D+02  0.1146600807D+00  0.4024869267D-01
      0.4803310000D+01  0.9199996477D+00  0.2375939567D+00
      0.1459330000D+01 -0.3030682134D-02  0.8158538515D+00
 SP   1 1.00       0.000000000000
      0.4834560000D+00  0.1000000000D+01  0.1000000000D+01
 SP   1 1.00       0.000000000000
      0.1455850000D+00  0.1000000000D+01  0.1000000000D+01
 SP   1 1.00       0.000000000000
      0.4380000000D-01  0.1000000000D+01  0.1000000000D+01
 D   1 1.00       0.000000000000
      0.6260000000D+00  0.1000000000D+01
 ****
     16 0
 S   6 1.00       0.000000000000
      0.4563240000D+04  0.1966650249D-02
      0.6820240000D+03  0.1523060193D-01
      0.1549730000D+03  0.7612690966D-01
      0.4445530000D+02  0.2608010331D+00
      0.1302900000D+02  0.6164620782D+00
      0.1827730000D+01  0.2210060280D+00
 SP   3 1.00       0.000000000000
      0.2096420000D+02  0.1146600807D+00  0.4024869267D-01
      0.4803310000D+01  0.9199996477D+00  0.2375939567D+00
      0.1459330000D+01 -0.3030682134D-02  0.8158538515D+00
 SP   1 1.00       0.000000000000
      0.4834560000D+00  0.1000000000D+01  0.1000000000D+01
 SP   1 1.00       0.000000000000
      0.1455850000D+00  0.1000000000D+01  0.1000000000D+01
 SP   1 1.00       0.000000000000
      0.4380000000D-01  0.1000000000D+01  0.1000000000D+01
 D   1 1.00       0.000000000000
      0.6260000000D+00  0.1000000000D+01
 ****
     17 0
 S   3 1.00       0.000000000000
      0.3386500000D+02  0.2549381454D-01
      0.5094790000D+01  0.1903731086D+00
      0.1158790000D+01  0.8521614860D+00
 S   1 1.00       0.000000000000
      0.3258400000D+00  0.1000000000D+01
 S   1 1.00       0.000000000000
      0.1027410000D+00  0.1000000000D+01
 P   1 1.00       0.000000000000
      0.7500000000D+00  0.1000000000D+01
 ****
     18 0
 S   3 1.00       0.000000000000
      0.3386500000D+02  0.2549381454D-01
      0.5094790000D+01  0.1903731086D+00
      0.1158790000D+01  0.8521614860D+00
 S   1 1.00       0.000000000000
      0.3258400000D+00  0.1000000000D+01
 S   1 1.00       0.000000000000
      0.1027410000D+00  0.1000000000D+01
 P   1 1.00       0.000000000000
      0.7500000000D+00  0.1000000000D+01
 ****
     19 0
 S   3 1.00       0.000000000000
      0.3386500000D+02  0.2549381454D-01
      0.5094790000D+01  0.1903731086D+00
      0.1158790000D+01  0.8521614860D+00
 S   1 1.00       0.000000000000
      0.3258400000D+00  0.1000000000D+01
 S   1 1.00       0.000000000000
      0.1027410000D+00  0.1000000000D+01
 P   1 1.00       0.000000000000
      0.7500000000D+00  0.1000000000D+01
 ****
     20 0
 S   3 1.00       0.000000000000
      0.3386500000D+02  0.2549381454D-01
      0.5094790000D+01  0.1903731086D+00
      0.1158790000D+01  0.8521614860D+00
 S   1 1.00       0.000000000000
      0.3258400000D+00  0.1000000000D+01
 S   1 1.00       0.000000000000
      0.1027410000D+00  0.1000000000D+01
 P   1 1.00       0.000000000000
      0.7500000000D+00  0.1000000000D+01
 ****
     21 0
 S   3 1.00       0.000000000000
      0.3386500000D+02  0.2549381454D-01
      0.5094790000D+01  0.1903731086D+00
      0.1158790000D+01  0.8521614860D+00
 S   1 1.00       0.000000000000
      0.3258400000D+00  0.1000000000D+01
 S   1 1.00       0.000000000000
      0.1027410000D+00  0.1000000000D+01
 P   1 1.00       0.000000000000
      0.7500000000D+00  0.1000000000D+01
 ****
     22 0
 S   3 1.00       0.000000000000
      0.3386500000D+02  0.2549381454D-01
      0.5094790000D+01  0.1903731086D+00
      0.1158790000D+01  0.8521614860D+00
 S   1 1.00       0.000000000000
      0.3258400000D+00  0.1000000000D+01
 S   1 1.00       0.000000000000
      0.1027410000D+00  0.1000000000D+01
 P   1 1.00       0.000000000000
      0.7500000000D+00  0.1000000000D+01
 ****
     23 0
 S   3 1.00       0.000000000000
      0.3386500000D+02  0.2549381454D-01
      0.5094790000D+01  0.1903731086D+00
      0.1158790000D+01  0.8521614860D+00
 S   1 1.00       0.000000000000
      0.3258400000D+00  0.1000000000D+01
 S   1 1.00       0.000000000000
      0.1027410000D+00  0.1000000000D+01
 P   1 1.00       0.000000000000
      0.7500000000D+00  0.1000000000D+01
 ****
     24 0
 S   3 1.00       0.000000000000
      0.3386500000D+02  0.2549381454D-01
      0.5094790000D+01  0.1903731086D+00
      0.1158790000D+01  0.8521614860D+00
 S   1 1.00       0.000000000000
      0.3258400000D+00  0.1000000000D+01
 S   1 1.00       0.000000000000
      0.1027410000D+00  0.1000000000D+01
 P   1 1.00       0.000000000000
      0.7500000000D+00  0.1000000000D+01
 ****
     25 0
 S   3 1.00       0.000000000000
      0.3386500000D+02  0.2549381454D-01
      0.5094790000D+01  0.1903731086D+00
      0.1158790000D+01  0.8521614860D+00
 S   1 1.00       0.000000000000
      0.3258400000D+00  0.1000000000D+01
 S   1 1.00       0.000000000000
      0.1027410000D+00  0.1000000000D+01
 P   1 1.00       0.000000000000
      0.7500000000D+00  0.1000000000D+01
 ****
     26 0
 S   3 1.00       0.000000000000
      0.3386500000D+02  0.2549381454D-01
      0.5094790000D+01  0.1903731086D+00
      0.1158790000D+01  0.8521614860D+00
 S   1 1.00       0.000000000000
      0.3258400000D+00  0.1000000000D+01
 S   1 1.00       0.000000000000
      0.1027410000D+00  0.1000000000D+01
 P   1 1.00       0.000000000000
      0.7500000000D+00  0.1000000000D+01
 ****
     27 0
 S   3 1.00       0.000000000000
      0.3386500000D+02  0.2549381454D-01
      0.5094790000D+01  0.1903731086D+00
      0.1158790000D+01  0.8521614860D+00
 S   1 1.00       0.000000000000
      0.3258400000D+00  0.1000000000D+01
 S   1 1.00       0.000000000000
      0.1027410000D+00  0.1000000000D+01
 P   1 1.00       0.000000000000
      0.7500000000D+00  0.1000000000D+01
 ****
     28 0
 S   3 1.00       0.000000000000
      0.3386500000D+02  0.2549381454D-01
      0.5094790000D+01  0.1903731086D+00
      0.1158790000D+01  0.8521614860D+00
 S   1 1.00       0.000000000000
      0.3258400000D+00  0.1000000000D+01
 S   1 1.00       0.000000000000
      0.1027410000D+00  0.1000000000D+01
 P   1 1.00       0.000000000000
      0.7500000000D+00  0.1000000000D+01
 ****
     29 0
 S   3 1.00       0.000000000000
      0.3386500000D+02  0.2549381454D-01
      0.5094790000D+01  0.1903731086D+00
      0.1158790000D+01  0.8521614860D+00
 S   1 1.00       0.000000000000
      0.3258400000D+00  0.1000000000D+01
 S   1 1.00       0.000000000000
      0.1027410000D+00  0.1000000000D+01
 P   1 1.00       0.000000000000
      0.7500000000D+00  0.1000000000D+01
 ****
     30 0
 S   3 1.00       0.000000000000
      0.3386500000D+02  0.2549381454D-01
      0.5094790000D+01  0.1903731086D+00
      0.1158790000D+01  0.8521614860D+00
 S   1 1.00       0.000000000000
      0.3258400000D+00  0.1000000000D+01
 S   1 1.00       0.000000000000
      0.1027410000D+00  0.1000000000D+01
 P   1 1.00       0.000000000000
      0.7500000000D+00  0.1000000000D+01
 ****
     31 0
 S   3 1.00       0.000000000000
      0.3386500000D+02  0.2549381454D-01
      0.5094790000D+01  0.1903731086D+00
      0.1158790000D+01  0.8521614860D+00
 S   1 1.00       0.000000000000
      0.3258400000D+00  0.1000000000D+01
 S   1 1.00       0.000000000000
      0.1027410000D+00  0.1000000000D+01
 P   1 1.00       0.000000000000
      0.7500000000D+00  0.1000000000D+01
 ****
     32 0
 S   3 1.00       0.000000000000
      0.3386500000D+02  0.2549381454D-01
      0.5094790000D+01  0.1903731086D+00
      0.1158790000D+01  0.8521614860D+00
 S   1 1.00       0.000000000000
      0.3258400000D+00  0.1000000000D+01
 S   1 1.00       0.000000000000
      0.1027410000D+00  0.1000000000D+01
 P   1 1.00       0.000000000000
      0.7500000000D+00  0.1000000000D+01
 ****
     33 0
 S   3 1.00       0.000000000000
      0.3386500000D+02  0.2549381454D-01
      0.5094790000D+01  0.1903731086D+00
      0.1158790000D+01  0.8521614860D+00
 S   1 1.00       0.000000000000
      0.3258400000D+00  0.1000000000D+01
 S   1 1.00       0.000000000000
      0.1027410000D+00  0.1000000000D+01
 P   1 1.00       0.000000000000
      0.7500000000D+00  0.1000000000D+01
 ****
     34 0
 S   3 1.00       0.000000000000
      0.3386500000D+02  0.2549381454D-01
      0.5094790000D+01  0.1903731086D+00
      0.1158790000D+01  0.8521614860D+00
 S   1 1.00       0.000000000000
      0.3258400000D+00  0.1000000000D+01
 S   1 1.00       0.000000000000
      0.1027410000D+00  0.1000000000D+01
 P   1 1.00       0.000000000000
      0.7500000000D+00  0.1000000000D+01
 ****
     35 0
 S   3 1.00       0.000000000000
      0.3386500000D+02  0.2549381454D-01
      0.5094790000D+01  0.1903731086D+00
      0.1158790000D+01  0.8521614860D+00
 S   1 1.00       0.000000000000
      0.3258400000D+00  0.1000000000D+01
 S   1 1.00       0.000000000000
      0.1027410000D+00  0.1000000000D+01
 P   1 1.00       0.000000000000
      0.7500000000D+00  0.1000000000D+01
 ****
     36 0
 S   3 1.00       0.000000000000
      0.3386500000D+02  0.2549381454D-01
      0.5094790000D+01  0.1903731086D+00
      0.1158790000D+01  0.8521614860D+00
 S   1 1.00       0.000000000000
      0.3258400000D+00  0.1000000000D+01
 S   1 1.00       0.000000000000
      0.1027410000D+00  0.1000000000D+01
 P   1 1.00       0.000000000000
      0.7500000000D+00  0.1000000000D+01
 ****
     37 0
 S   3 1.00       0.000000000000
      0.3386500000D+02  0.2549381454D-01
      0.5094790000D+01  0.1903731086D+00
      0.1158790000D+01  0.8521614860D+00
 S   1 1.00       0.000000000000
      0.3258400000D+00  0.1000000000D+01
 S   1 1.00       0.000000000000
      0.1027410000D+00  0.1000000000D+01
 P   1 1.00       0.000000000000
      0.7500000000D+00  0.1000000000D+01
 ****
     38 0
 S   3 1.00       0.000000000000
      0.3386500000D+02  0.2549381454D-01
      0.5094790000D+01  0.1903731086D+00
      0.1158790000D+01  0.8521614860D+00
 S   1 1.00       0.000000000000
      0.3258400000D+00  0.1000000000D+01
 S   1 1.00       0.000000000000
      0.1027410000D+00  0.1000000000D+01
 P   1 1.00       0.000000000000
      0.7500000000D+00  0.1000000000D+01
 ****
     39 0
 S   3 1.00       0.000000000000
      0.3386500000D+02  0.2549381454D-01
      0.5094790000D+01  0.1903731086D+00
      0.1158790000D+01  0.8521614860D+00
 S   1 1.00       0.000000000000
      0.3258400000D+00  0.1000000000D+01
 S   1 1.00       0.000000000000
      0.1027410000D+00  0.1000000000D+01
 P   1 1.00       0.000000000000
      0.7500000000D+00  0.1000000000D+01
 ****
     40 0
 S   3 1.00       0.000000000000
      0.3386500000D+02  0.2549381454D-01
      0.5094790000D+01  0.1903731086D+00
      0.1158790000D+01  0.8521614860D+00
 S   1 1.00       0.000000000000
      0.3258400000D+00  0.1000000000D+01
 S   1 1.00       0.000000000000
      0.1027410000D+00  0.1000000000D+01
 P   1 1.00       0.000000000000
      0.7500000000D+00  0.1000000000D+01
 ****
     41 0
 S   3 1.00       0.000000000000
      0.3386500000D+02  0.2549381454D-01
      0.5094790000D+01  0.1903731086D+00
      0.1158790000D+01  0.8521614860D+00
 S   1 1.00       0.000000000000
      0.3258400000D+00  0.1000000000D+01
 S   1 1.00       0.000000000000
      0.1027410000D+00  0.1000000000D+01
 P   1 1.00       0.000000000000
      0.7500000000D+00  0.1000000000D+01
 ****
     42 0
 S   3 1.00       0.000000000000
      0.3386500000D+02  0.2549381454D-01
      0.5094790000D+01  0.1903731086D+00
[...]
 00000266,-0.00011740,0.00000692,0.00001264,-0.00000432,-0.00000757,-0.
 00000239,-0.00002265,-0.00011669,-0.00016767,-0.00000222,0.00000989,-0
 .00000147,0.00146409,0.00161122,0.00032496,0.00000510,-0.00000273,0.00
 000030,0.02290395,-0.00029475,-0.00207403,-0.00000745,0.00000428,0.000
 00045,-0.00800848,-0.04655964,0.00148461,0.00000486,-0.00000515,0.0000
 0070,0.00000869,0.00000718,0.00000489,-0.00000758,0.00000037,-0.000008
 06,0.00000683,0.00000351,0.00001067,0.00001023,0.00001032,0.00000202,-
 0.00001008,0.00001964,-0.00004282,-0.00000623,-0.00002200,0.00002265,0
 .00000681,0.00000488,0.00000338,0.00000730,0.00000212,0.00001715,-0.00
 001484,0.00000764,-0.00000238,-0.00000446,0.00000339,0.00001161,-0.000
 00433,-0.00000266,-0.00000089,0.00000864,0.00000105,0.00000130,0.00000
 133,0.00003810,0.00000111,0.00000896,-0.00002809,0.00000539,0.00000110
 ,-0.00000069,0.00000058,-0.00000012,0.00000449,0.00000555,-0.00025416,
 0.00004016,0.00010538,0.00002536,0.00002749,0.00003497,0.00000057,-0.0
 0000324,0.00000116,0.00000273,-0.00000090,0.00000043,-0.00066823,-0.00
 026568,-0.00004248,-0.00001226,-0.00007008,0.00003082,-0.00000075,0.00
 000176,-0.00000037,-0.00000026,-0.00000174,0.00000090,0.00137622,-0.00
 275185,-0.00337448,-0.00069132,0.00077825,0.00060851,0.00000087,-0.000
 00027,-0.00000039,0.00716845,-0.00079534,-0.00097591,0.00717860,0.0485
 6460,-0.00000286,-0.00003750,0.00001436,-0.00000059,0.00001476,-0.0000
 1032,-0.00001287,-0.00006813,0.00002977,0.00000686,0.00001210,0.000007
 40,0.00002027,-0.00001598,0.00001340,-0.00000304,-0.00001491,0.0000040
 0,-0.00009635,0.00003222,0.00001764,0.00001200,0.00001112,0.00001253,-
 0.00003615,0.00004381,-0.00008837,-0.00000126,-0.00000443,-0.00000319,
 0.00000110,0.00123101,0.00051768,0.00000542,0.00000436,0.00000493,0.02
 440249,0.00046052,-0.00320571,-0.00000005,-0.00000119,-0.00000345,0.02
 616119,0.00146022,-0.04911602,0.00000226,0.00000264,0.00000089,-0.0000
 0140,0.00000716,-0.00000450,-0.00000457,0.00001497,-0.00000952,-0.0000
 0002,-0.00000588,-0.00000388,0.00000133,0.00000936,0.00000047,0.000003
 03,0.00000823,-0.00001236,0.00000301,0.00001583,-0.00001293,0.00000101
 ,0.00000497,-0.00000530,-0.00000360,-0.00000641,0.00000314,-0.00002127
 ,-0.00000156,-0.00000192,0.00000101,0.00000043,-0.00000436,-0.00000295
 ,0.00000791,0.00000065,-0.00000235,0.00000092,-0.00000384,0.00000658,0
 .00001353,-0.00001357,-0.00000681,-0.00001094,-0.00000249,-0.00000071,
 0.00000066,-0.00000388,-0.00000457,-0.00000462,-0.00000498,-0.00016330
 ,0.00010083,0.00004234,0.00003638,0.00000155,-0.00004473,0.00000084,0.
 00000251,0.00000193,-0.00000384,-0.00000109,-0.00000125,-0.00046461,-0
 .00034663,0.00031850,-0.00014995,-0.00007414,0.00002509,-0.00000125,-0
 .00000265,-0.00000337,-0.00000005,0.00000020,-0.00000082,0.00138523,-0
 .00376385,-0.00282597,-0.00005380,0.00090687,0.00058409,-0.00000202,-0
 .00000074,-0.00000018,-0.02900038,-0.00166180,0.00371864,-0.03128441,0
 .00168105,0.05201672,-0.00000433,0.00000269,0.00000212,0.00000936,-0.0
 0000418,0.00000017,0.00000552,0.00001181,0.00000840,0.00002121,0.00001
 229,0.00001588,-0.00002961,0.00000793,-0.00000562,0.00000003,-0.000002
 96,-0.00000386,-0.00008658,0.00008180,0.00015890,0.00000870,0.00000683
 ,0.00000595,0.00065900,0.00055369,-0.00001416,0.00000112,-0.00000530,-
 0.00000134,-0.00048692,0.00085079,0.00155806,-0.00000125,0.00000287,0.
 00000107,0.00176035,0.01042218,-0.00365743,0.00000537,-0.00000361,-0.0
 0000088,-0.06438867,-0.06364640,0.01871128,-0.00000269,0.00000398,0.00
 000039,-0.00000296,-0.00000554,-0.00000447,0.00000469,-0.00000012,0.00
 000660,-0.00000219,-0.00000231,-0.00000675,-0.00000381,-0.00000394,-0.
 00000053,0.00000059,-0.00000674,0.00002248,0.00000013,0.00001339,-0.00
 001423,-0.00000557,-0.00000502,-0.00000319,-0.00000804,0.00000126,-0.0
 0001129,0.00001616,-0.00000009,-0.00000082,0.00000552,-0.00000285,-0.0
 0000495,0.00000500,0.00000044,0.00000319,-0.00000636,-0.00000300,-0.00
 000163,0.00000501,0.00005933,-0.00000264,-0.00000955,-0.00001270,-0.00
 000578,-0.00000216,-0.00000118,-0.00000067,-0.00000217,-0.00000268,-0.
 00000688,0.00000091,-0.00007621,-0.00010134,-0.00000891,0.00001928,0.0
 0002660,0.00000122,0.00000148,0.00000026,-0.00000330,-0.00000047,-0.00
 000053,0.00041968,0.00037058,0.00001614,-0.00006729,-0.00027837,0.0001
 8280,0.00000003,-0.00000156,-0.00000129,-0.00000028,0.00000068,-0.0000
 0045,0.00031529,-0.00002955,-0.00061980,0.00016456,-0.00057871,-0.0002
 6355,-0.00000127,0.00000008,0.,0.00327328,0.01384555,-0.00345663,-0.00
 773444,-0.03033346,0.00927668,0.06617627,0.00000286,-0.00002440,-0.000
 00898,0.00002434,0.00001431,0.00002980,-0.00002688,0.00000430,-0.00004
 242,0.00000604,0.00002044,0.00000513,0.00006360,-0.00004667,0.00006581
 ,0.00000723,-0.00001528,0.00000527,0.00031011,-0.00012607,-0.00045903,
 -0.00000441,0.00000787,-0.00000346,-0.00083238,-0.00094227,0.00104650,
 0.00000418,-0.00000828,0.00000470,0.00249232,-0.00133364,-0.00485860,-
 0.00000804,0.00000386,-0.00000100,-0.00608734,-0.01858731,0.00730692,0
 .00001141,-0.00000684,0.00000168,-0.06319645,-0.26778530,0.06630695,-0
 .00000657,0.00000605,0.00000178,-0.00002714,-0.00000297,-0.00000149,0.
 00000642,0.00000759,0.00000596,-0.00000694,-0.00000337,-0.00001000,-0.
 00001455,-0.00001392,-0.00000444,0.00002956,-0.00002210,0.00003355,0.0
 0001433,0.00001424,-0.00001437,-0.00000086,-0.00000047,-0.00000191,-0.
 00000049,-0.00000972,-0.00001542,-0.00005968,-0.00004656,-0.00000590,-
 0.00000747,0.00001237,-0.00001979,0.00000076,0.00000570,-0.00000065,-0
 .00000875,-0.00000040,-0.00000138,-0.00004274,-0.00022781,0.00000194,-
 0.00001986,0.00004547,0.00002467,0.00000059,0.00000128,-0.00000045,0.0
 0000048,-0.00000367,-0.00000236,0.00011081,-0.00001593,-0.00000044,-0.
 00004708,-0.00001003,-0.00011779,-0.00000058,0.00000323,-0.00000091,-0
 .00000234,-0.00000011,-0.00000081,-0.00003559,0.00032497,-0.00000743,0
 .00008267,0.00038033,-0.00000626,0.00000053,-0.00000138,0.00000033,0.0
 0000003,0.00000150,-0.00000109,0.00058828,0.00053282,0.00034010,-0.000
 46897,0.00073252,-0.00029616,-0.00000129,0.00000047,-0.00000053,-0.001
 47421,-0.00550435,0.00150107,-0.00011388,-0.00015407,-0.00002571,0.068
 73881,0.29277315,0.00000333,-0.00001313,-0.00000362,-0.00000121,0.0000
 0712,0.00001223,-0.00000642,-0.00000787,-0.00002963,-0.00001406,-0.000
 00299,-0.00000967,0.00004190,-0.00003607,0.00003941,0.00000224,-0.0000
 0374,0.00000471,0.00023658,-0.00021220,-0.00038712,-0.00000911,-0.0000
 0401,-0.00000649,-0.00035897,-0.00129497,0.00087357,0.00000009,0.00000
 103,0.00000347,0.00193281,-0.00191607,-0.00369577,-0.00000101,-0.00000
 195,-0.00000113,-0.00731026,-0.02275941,0.00675317,-0.00000329,0.00000
 262,0.00000041,0.01880850,0.06713483,-0.06587809,0.00000153,-0.0000016
 2,-0.00000131,-0.00000508,0.00000307,0.00000344,-0.00000123,0.00000466
 ,-0.00000132,0.00000050,-0.00000083,0.00000151,-0.00000149,0.00000017,
 -0.00000278,0.00000708,0.00000347,0.00000397,0.00000108,-0.00000350,0.
 00000610,0.00000245,0.00000289,0.00000004,0.00000562,-0.00000063,0.000
 00176,-0.00003335,-0.00001345,-0.00000788,-0.00000396,0.00000328,-0.00
 000494,-0.00000275,0.00000204,-0.00000182,0.00000272,0.00000202,0.0000
 0158,-0.00002631,-0.00016560,0.00000426,-0.00000247,0.00002839,0.00000
 621,0.00000129,0.00000127,-0.00000022,0.00000220,0.00000251,0.00000450
 ,0.00004265,0.00001889,0.00002695,-0.00008881,0.00008991,0.00002404,-0
 .00000101,0.00000028,-0.00000033,0.00000250,0.00000036,0.00000049,-0.0
 0006561,0.00016687,-0.00015294,0.00025690,-0.00026081,0.00026183,0.000
 00015,0.00000138,0.00000135,0.00000026,-0.00000008,-0.00000016,-0.0000
 9965,0.00081483,0.00086282,-0.00062007,0.00056204,0.00082305,0.0000010
 2,-0.00000038,0.00000039,0.00879274,0.02628302,-0.00759050,0.00031701,
 0.00233697,-0.00194700,-0.02180748,-0.07077480,0.07000102,-0.00001196,
 0.00000843,-0.00001354,0.00000459,-0.00000454,0.00000615,-0.00000197,0
 .00000596,-0.00000343,0.00001004,-0.00001018,0.00002095,0.00000236,-0.
 00000421,-0.00000217,-0.00001460,0.00000388,-0.00003129,0.00000087,0.0
 0000208,0.,-0.00000141,-0.00004205,0.00003031,0.00000019,-0.00000049,-
 0.00000128,0.00026438,0.00020091,-0.00012540,0.00000502,0.00000040,-0.
 00000024,0.00151863,0.00104530,-0.00098856,-0.00000041,0.00000116,-0.0
 0000104,-0.00208227,-0.00137037,-0.00163212,0.00000342,0.00000023,-0.0
 0000023,-0.29749739,0.09335477,0.03181792,0.00000110,0.00000116,0.0000
 0202,-0.00000059,-0.00000301,0.00000203,-0.00000664,0.00000199,0.00000
 720,-0.00000065,-0.00000001,-0.00000279,0.00000082,-0.00000076,0.00000
 021,0.00000328,-0.00000065,0.00000415,-0.00000011,0.00000091,-0.000001
 30,0.00000199,0.00000019,-0.00000229,-0.00000012,0.00000030,-0.0000005
 9,-0.00000172,0.00000053,0.00000286,-0.00000427,-0.00000694,0.00000685
 ,0.00000322,0.00000459,0.00000671,-0.00000368,0.00000042,0.00000063,0.
 00000095,-0.00000094,0.00000081,0.00001585,-0.00001429,-0.00000452,0.0
 0001518,0.00000244,-0.00000494,-0.00000325,-0.00000050,0.00000018,0.00
 000141,0.00000019,0.00000053,-0.00002671,-0.00005122,0.00000571,-0.000
 02360,0.00002698,0.00009779,-0.00000380,0.00000078,-0.00000028,0.00000
 084,-0.00000041,0.00000047,0.00061107,-0.00013807,0.00005781,-0.000329
 63,0.00037908,0.00039373,-0.00000277,-0.00000032,0.00000074,0.00000103
 ,0.00000006,0.00000098,0.00112759,-0.00028388,0.00101396,0.00000147,0.
 00000051,0.00000012,-0.00000258,0.00000133,-0.00000142,-0.00000152,-0.
 00000244,0.00000111,0.31100349,0.00005206,-0.00002922,0.00002644,-0.00
 000923,0.00001154,-0.00002200,0.00000264,-0.00000970,-0.00000110,-0.00
 003087,0.00003390,-0.00013610,-0.00000242,0.00000752,0.00000313,0.0002
 8286,-0.00015245,0.00010656,-0.00000107,-0.00000321,-0.00000319,-0.000
 13663,0.00016303,-0.00084839,-0.00000009,-0.00000024,0.00000102,0.0019
 1378,-0.00124214,0.00037852,-0.00000625,0.00000060,-0.00000126,-0.0010
 1154,0.00260060,-0.00826362,0.00000003,-0.00000165,0.00000024,0.025949
 42,-0.00618265,-0.00318679,-0.00000285,0.00000075,-0.00000084,0.089225
 18,-0.08094910,-0.02260711,-0.00000223,-0.00000056,-0.00000095,-0.0000
 0085,0.00000301,-0.00000212,0.00001413,-0.00000478,-0.00001023,0.00000
 136,-0.00000226,0.00000452,-0.00000148,0.00000048,-0.00000038,-0.00000
 461,0.00000066,-0.00000309,-0.00000072,-0.00000876,0.00000339,0.000003
 28,0.00000504,0.00000574,0.00000017,-0.00000127,0.00000028,0.00000197,
 -0.00000085,-0.00000199,-0.00000311,0.00001538,0.00000281,-0.00001300,
 -0.00000731,-0.00000070,0.00000525,-0.00000008,-0.00000044,-0.00000087
 ,0.00000107,0.00000108,-0.00002254,-0.00004031,0.00001901,0.00001255,0
 .00003079,0.00002466,0.00000352,0.00000107,-0.00000005,-0.00000153,-0.
 00000042,0.00000119,0.00001002,0.00000264,0.00003413,-0.00007363,-0.00
 005932,-0.00003830,0.00000326,-0.00000139,-0.00000128,0.00000124,-0.00
 000022,0.00000111,0.00008585,0.00010354,0.00022018,-0.00060235,0.00030
 973,0.00042723,0.00000240,0.00000079,-0.00000043,-0.00000079,-0.000000
 08,0.00000110,-0.00066499,-0.00194716,0.00407079,0.00000094,-0.0000009
 6,0.00000120,0.00000142,-0.00000073,-0.00000069,0.00000034,0.00000166,
 -0.00000037,-0.10166848,0.08078976,-0.00001386,0.00000705,-0.00000162,
 0.00000081,-0.00000314,0.00000557,-0.00000014,-0.00000016,0.00000248,0
 .00000186,-0.00001359,0.00004553,0.00000012,-0.00000129,-0.00000057,-0
 .00012251,0.00011395,-0.00002414,-0.00000018,-0.00000021,0.00000163,0.
 00010938,-0.00008071,0.00032907,0.00000029,-0.00000022,-0.00000029,-0.
 00126331,0.00084653,0.00029126,0.00000114,-0.00000018,0.00000114,-0.00
 190532,-0.00839555,0.00729827,0.00000023,-0.00000102,0.00000004,0.0181
 4350,-0.00650342,0.00058945,0.00000230,0.00000058,0.00000038,0.0288170
 2,-0.02218819,-0.04537343,-0.00000009,-0.00000105,-0.00000045,0.000001
 30,0.00000224,-0.00000188,-0.00000163,0.00000081,0.00000007,-0.0000001
 9,0.00000230,-0.00000050,0.00000035,0.00000146,-0.00000084,-0.00000005
 ,-0.00000070,-0.00000083,-0.00000029,0.00000759,0.00000059,-0.00000161
 ,-0.00000261,-0.00000039,0.00000002,0.00000144,0.00000018,0.00000013,0
 .00000002,-0.00000056,0.00001036,0.00000298,-0.00002792,0.00000225,-0.
 00000422,-0.00000847,-0.00000081,0.00000060,0.00000031,0.00000013,-0.0
 0000033,-0.00000111,-0.00003369,0.00010268,0.00000573,-0.00000993,-0.0
 0001849,-0.00000193,-0.00000043,0.00000006,0.00000019,-0.00000003,0.00
 000024,-0.00000073,-0.00001864,0.00011664,-0.00018729,0.00002063,0.000
 00820,0.00002406,-0.00000054,-0.00000052,0.00000028,-0.00000064,0.0000
 0020,-0.00000084,0.00011265,0.00018048,-0.00004100,0.00215622,-0.00113
 636,-0.00084904,-0.00000098,0.00000056,0.00000038,0.00000017,0.0000002
 2,-0.00000092,0.00073498,0.00414691,-0.00456692,-0.00000061,0.00000020
 ,-0.00000058,-0.00000157,-0.00000108,0.00000029,0.00000069,0.00000070,
 0.00000003,-0.03467565,0.02823670,0.03887111,0.00000603,-0.00000657,0.
 00000611,-0.00000281,0.00000309,-0.00000390,0.00000124,-0.00000411,0.0
 0000052,-0.00000709,0.00000272,-0.00001321,-0.00000122,0.00000257,0.00
 000115,0.00000182,-0.00001595,0.00000757,-0.00000079,-0.00000161,-0.00
 000107,0.00001550,0.00002625,-0.00003817,0.00000020,-0.00000004,-0.000
 00017,0.00001454,0.00006967,0.00015394,-0.00000301,0.00000017,-0.00000
 012,0.00138687,0.00063078,0.00185355,0.00000014,-0.00000148,-0.0000005
 2,0.00526373,0.00345629,0.00234593,-0.00000081,0.00000089,-0.00000023,
 -0.21080809,-0.09805350,-0.09616210,0.00000101,0.00000100,0.00000057,-
 0.00000021,0.00000137,-0.00000171,0.00000349,-0.00000112,-0.00000289,0
 .00000038,0.00000031,0.00000122,-0.00000058,0.00000099,-0.00000069,-0.
 00000174,0.00000005,-0.00000097,-0.00000029,-0.00000064,0.00000046,0.0
 0000145,0.00000094,0.00000275,0.00000022,0.00000037,-0.00000002,0.0000
 0082,-0.00000051,-0.00000062,0.00000082,0.00000410,-0.00000542,0.00000
 164,0.00000184,-0.00000642,0.00000200,0.00000046,-0.00000010,-0.000000
 34,0.00000034,0.00000041,-0.00000921,0.00000672,0.00000446,-0.00001452
 ,0.00000071,0.00000291,0.00000162,0.00000059,0.00000001,-0.00000065,-0
 .00000021,0.00000067,-0.00000310,-0.00001498,-0.00004642,-0.00010671,-
 0.00000957,0.00002564,0.00000144,-0.00000091,-0.00000058,0.00000048,-0
 .00000012,0.00000050,0.00045524,-0.00048668,-0.00037921,0.00010353,-0.
 00010447,-0.00004111,0.00000069,0.00000075,-0.00000005,-0.00000017,0.0
 0000007,0.00000063,0.00121233,0.00191777,-0.00012506,0.00000041,-0.000
 00076,0.00000076,-0.00000016,-0.00000123,-0.00000021,0.00000085,0.0000
 0161,-0.00000064,-0.01457715,-0.01331154,-0.01206383,0.21706016,-0.000
 01075,0.00000667,-0.00000655,0.00000051,-0.00000099,0.00000435,0.00000
 046,0.00000159,-0.00000299,0.00000150,-0.00000910,0.00003049,0.0000001
 4,-0.00000031,0.00000032,-0.00006946,0.00005816,-0.00001864,0.00000019
 ,0.00000054,-0.00000197,0.00006823,-0.00000569,0.00023929,-0.00000010,
 -0.00000027,0.00000006,-0.00023759,0.00050538,-0.00005825,-0.00000013,
 0.00000051,-0.00000160,-0.00241772,-0.00192688,0.00429880,-0.00000019,
 0.00000094,0.00000002,-0.02092006,-0.00845809,-0.01332082,-0.00000122,
 -0.00000029,-0.00000089,-0.09460403,-0.10999212,-0.06846112,0.00000163
 ,0.00000176,0.00000181,-0.00000109,-0.00000263,0.00000128,-0.00000222,
 0.00000108,0.00000213,0.00000021,-0.00000098,-0.00000059,-0.00000011,-
 0.00000097,0.00000061,0.00000057,0.00000018,0.00000166,0.00000064,-0.0
 0000221,-0.00000107,0.00000290,0.00000148,-0.00000120,-0.00000002,-0.0
 0000073,-0.00000036,-0.00000032,0.00000009,0.00000109,-0.00000100,-0.0
 0000917,-0.00000218,0.00000230,0.00000582,0.00000803,-0.00000005,-0.00
 000026,0.,0.00000007,-0.00000004,0.00000130,0.00000078,0.00000697,-0.0
 0000285,0.00005735,-0.00001436,-0.00001933,-0.00000028,0.00000001,-0.0
 0000008,0.00000028,-0.00000013,0.00000100,-0.00004189,0.00001601,-0.00
 003005,0.00003659,0.00010771,0.00029838,-0.00000055,0.00000044,-0.0000
 0061,0.00000123,-0.00000040,0.00000110,0.00111401,0.00009945,0.0000888
 0,0.00055631,-0.00036815,-0.00032264,0.00000011,-0.00000046,-0.0000001
 5,0.00000009,-0.00000020,0.00000126,0.00201918,0.00067578,-0.00767714,
 0.00000140,-0.00000005,0.00000074,0.00000051,0.00000142,-0.00000087,-0
 .00000113,-0.00000120,0.00000059,0.00855917,0.00656324,0.00457170,0.10
 588356,0.11274044,0.00001270,-0.00001213,0.00000394,0.00000038,-0.0000
 0021,-0.00000553,-0.00000147,-0.00000217,0.00000009,-0.00000279,0.0000
 1044,-0.00004640,0.00000144,-0.00000097,-0.00000062,0.00010528,-0.0000
 9731,0.00004043,-0.00000029,-0.00000066,0.00000115,-0.00005694,0.00004
 648,-0.00037763,0.00000040,-0.00000076,-0.00000141,0.00071358,-0.00063
 788,0.00008619,0.00000333,0.00000015,0.00000174,-0.00040947,0.00484560
 ,-0.00474826,-0.00000032,-0.00000187,-0.00000113,-0.01555948,-0.010001
 08,-0.00372781,0.00000655,0.00000147,0.00000051,-0.09364190,-0.0691633
 7,-0.09792976,0.00000047,0.00000032,0.00000221,0.00000153,0.00000431,-
 0.00000296,0.00000102,-0.00000103,0.00000077,-0.00000096,0.00000289,-0
 .00000083,0.00000075,0.00000255,-0.00000183,0.00000059,-0.00000122,0.0
 0000125,-0.00000417,0.00000615,0.00000010,0.00000590,-0.00000066,0.000
 00218,0.,0.00000229,-0.00000019,-0.00000049,-0.00000017,0.00000071,0.0
 0000116,0.00001584,-0.00000694,-0.00000160,0.00000400,0.00000988,-0.00
 000139,0.00000152,0.00000082,0.00000070,-0.00000062,-0.00000054,-0.000
 01949,-0.00000076,0.00000575,0.00002548,0.00000326,0.00001212,-0.00000
 132,0.00000041,0.00000055,0.00000023,0.00000018,-0.00000018,0.00005878
 ,-0.00001891,-0.00007800,-0.00003734,0.00002606,0.00002289,-0.00000225
 ,-0.00000130,-0.00000050,-0.00000013,0.00000013,-0.00000062,0.00085661
 ,-0.00010681,0.00024136,-0.00055317,0.00088021,0.00061649,-0.00000275,
 0.00000131,0.00000117,0.00000085,0.00000029,-0.00000056,0.00000730,-0.
 00774287,0.00595091,-0.00000030,0.00000041,-0.00000045,-0.00000437,-0.
 00000176,-0.00000056,0.00000052,0.00000069,0.00000042,0.00401113,0.001
 56040,0.00362422,0.10448569,0.08037715,0.09630489\\0.00000014,-0.00000
 021,0.00000007,0.00000017,-0.00000022,0.00000022,0.00000011,-0.0000001
 2,0.00000023,0.00000002,-0.00000005,0.00000007,0.00000016,-0.00000015,
 0.00000038,0.,-0.00000005,-0.00000007,0.00000013,-0.00000002,0.0000004
 1,-0.00000007,0.00000009,-0.00000019,0.00000011,-0.00000011,0.00000025
 ,0.,0.00000006,-0.00000031,0.00000002,-0.00000002,0.00000013,-0.000000
 16,0.00000027,-0.00000033,0.00000001,0.00000002,0.00000004,-0.00000025
 ,0.00000030,-0.00000041,-0.00000007,0.00000008,-0.00000011,-0.00000033
 ,0.00000046,-0.00000048,0.00000018,-0.00000029,0.00000007,0.00000014,-
 0.00000025,-0.00000003,0.00000024,-0.00000034,0.00000025,0.00000017,-0
 .00000019,0.00000034,0.00000012,-0.00000018,0.00000013,0.00000006,-0.0
 0000002,0.00000024,0.00000004,-0.00000003,0.00000016,0.,0.00000002,0.0
 0000004,0.00000017,-0.00000016,0.00000051,0.00000023,-0.00000028,0.000
 00040,0.00000002,-0.00000009,-0.00000021,0.00000006,-0.00000013,-0.000
 00009,0.00000015,-0.00000010,0.00000054,0.00000005,0.00000004,0.000000
 45,-0.00000009,0.00000013,0.,-0.00000012,0.00000018,-0.00000012,0.0000
 0010,-0.00000009,0.00000035,0.00000017,-0.00000021,0.00000025,-0.00000
 011,0.00000009,-0.00000039,-0.00000010,0.,-0.00000028,0.00000001,0.,0.
 00000009,-0.00000003,0.00000012,0.00000021,-0.00000022,0.00000035,-0.0
 0000030,-0.00000020,0.00000023,-0.00000017,0.00000003,-0.00000003,0.00
 000007,0.00000007,-0.00000014,-0.00000005,-0.00000026,0.00000012,-0.00
 000050,-0.00000013,0.00000019,-0.00000009,-0.00000006,0.00000007,-0.00
 000019,-0.00000007,0.00000003,-0.00000021,-0.00000024,0.00000028,-0.00
 000070,-0.00000038,0.00000035,-0.00000063\\\@


 I think that all right-thinking people in this
 country are sick and tired of being told that
 ordinary, decent people are fed up in this country
 with being sick and tired.  I'm certainly not!
 But I'm sick and tired of being told that I am!
                               -- Monty Python
 Job cpu time:       0 days 14 hours 56 minutes 44.0 seconds.
 File lengths (MBytes):  RWF=   1172 Int=      0 D2E=      0 Chk=     22 Scr=      1
 Normal termination of Gaussian 09 at Mon Apr 27 01:10:35 2015.
