 Entering Gaussian System, Link 0=g09
 Input=0_0freq-b971_64-18-6.gau
 Output=0_0freq-b971_64-18-6.log
 Initial command:
 /opt/g09/l1.exe "/scratch/pb556/g09_run/add_hco//Gau-21459.inp" -scrdir="/scratch/pb556/g09_run/add_hco//"
 Entering Link 1 = /opt/g09/l1.exe PID=     21468.
  
 Copyright (c) 1988,1990,1992,1993,1995,1998,2003,2009,2013,
            Gaussian, Inc.  All Rights Reserved.
  
 This is part of the Gaussian(R) 09 program.  It is based on
 the Gaussian(R) 03 system (copyright 2003, Gaussian, Inc.),
 the Gaussian(R) 98 system (copyright 1998, Gaussian, Inc.),
 the Gaussian(R) 94 system (copyright 1995, Gaussian, Inc.),
 the Gaussian 92(TM) system (copyright 1992, Gaussian, Inc.),
 the Gaussian 90(TM) system (copyright 1990, Gaussian, Inc.),
 the Gaussian 88(TM) system (copyright 1988, Gaussian, Inc.),
 the Gaussian 86(TM) system (copyright 1986, Carnegie Mellon
 University), and the Gaussian 82(TM) system (copyright 1983,
 Carnegie Mellon University). Gaussian is a federally registered
 trademark of Gaussian, Inc.
  
 This software contains proprietary and confidential information,
 including trade secrets, belonging to Gaussian, Inc.
  
 This software is provided under written license and may be
 used, copied, transmitted, or stored only in accord with that
 written license.
  
 The following legend is applicable only to US Government
 contracts under FAR:
  
                    RESTRICTED RIGHTS LEGEND
  
 Use, reproduction and disclosure by the US Government is
 subject to restrictions as set forth in subparagraphs (a)
 and (c) of the Commercial Computer Software - Restricted
 Rights clause in FAR 52.227-19.
  
 Gaussian, Inc.
 340 Quinnipiac St., Bldg. 40, Wallingford CT 06492
  
  
 ---------------------------------------------------------------
 Warning -- This program may not be used in any manner that
 competes with the business of Gaussian, Inc. or will provide
 assistance to any competitor of Gaussian, Inc.  The licensee
 of this program is prohibited from giving any competitor of
 Gaussian, Inc. access to this program.  By using this program,
 the user acknowledges that Gaussian, Inc. is engaged in the
 business of creating and licensing software in the field of
 computational chemistry and represents and warrants to the
 licensee that it is not a competitor of Gaussian, Inc. and that
 it will not use this program in any manner prohibited above.
 ---------------------------------------------------------------
  

 Cite this work as:
 Gaussian 09, Revision D.01,
 M. J. Frisch, G. W. Trucks, H. B. Schlegel, G. E. Scuseria, 
 M. A. Robb, J. R. Cheeseman, G. Scalmani, V. Barone, B. Mennucci, 
 G. A. Petersson, H. Nakatsuji, M. Caricato, X. Li, H. P. Hratchian, 
 A. F. Izmaylov, J. Bloino, G. Zheng, J. L. Sonnenberg, M. Hada, 
 M. Ehara, K. Toyota, R. Fukuda, J. Hasegawa, M. Ishida, T. Nakajima, 
 Y. Honda, O. Kitao, H. Nakai, T. Vreven, J. A. Montgomery, Jr., 
 J. E. Peralta, F. Ogliaro, M. Bearpark, J. J. Heyd, E. Brothers, 
 K. N. Kudin, V. N. Staroverov, T. Keith, R. Kobayashi, J. Normand, 
 K. Raghavachari, A. Rendell, J. C. Burant, S. S. Iyengar, J. Tomasi, 
 M. Cossi, N. Rega, J. M. Millam, M. Klene, J. E. Knox, J. B. Cross, 
 V. Bakken, C. Adamo, J. Jaramillo, R. Gomperts, R. E. Stratmann, 
 O. Yazyev, A. J. Austin, R. Cammi, C. Pomelli, J. W. Ochterski, 
 R. L. Martin, K. Morokuma, V. G. Zakrzewski, G. A. Voth, 
 P. Salvador, J. J. Dannenberg, S. Dapprich, A. D. Daniels, 
 O. Farkas, J. B. Foresman, J. V. Ortiz, J. Cioslowski, 
 and D. J. Fox, Gaussian, Inc., Wallingford CT, 2013.
 
 ******************************************
 Gaussian 09:  ES64L-G09RevD.01 24-Apr-2013
                26-Apr-2015 
 ******************************************
 %NProcShared=8
 Will use up to    8 processors via shared memory.
 %Mem=500MW
 ----------------------------------------------------------------------
 #p rB971/6-311+G(d,p) Opt=(Tight, CalcAll) Freq GFInput Population=Non
 e Integral(Grid=UltraFine) Guess=MIX NoSymmetry
 ----------------------------------------------------------------------
 1/7=10,10=4,14=-1,18=20,19=15,26=4,38=1/1,3;
 2/9=110,12=2,15=1,17=6,18=5,40=1/2;
 3/5=4,6=6,7=111,11=2,16=1,24=10,25=1,30=1,71=2,74=-20,75=-5,116=1,140=1/1,2,3;
 4/13=-1/1;
 5/5=2,38=5/2;
 8/6=4,10=90,11=11/1;
 11/6=1,8=1,9=11,15=111,16=1,31=1/1,2,10;
 10/6=1,31=1/2;
 7/10=1,25=1,30=1/1,2,3,16;
 1/7=10,10=4,14=-1,18=20,19=15,26=4/3(3);
 2/9=110,15=1/2;
 7/8=1,9=1,25=1,30=1,44=-1/16;
 99//99;
 2/9=110,15=1/2;
 3/5=4,6=6,7=111,11=2,16=1,25=1,30=1,71=2,74=-20,75=-5,116=1,140=1/1,2,3;
 4/5=5,16=3,69=1/1;
 5/5=2,38=5/2;
 8/6=4,10=90,11=11/1;
 11/6=1,8=1,9=11,15=111,16=1,31=1/1,2,10;
 10/6=1,31=1/2;
 7/10=1,25=1,30=1/1,2,3,16;
 1/7=10,10=4,14=-1,18=20,19=15,26=4/3(-8);
 2/9=110,15=1/2;
 7/8=1,9=1,25=1,30=1,44=-1/16;
 99//99;
 Leave Link    1 at Sun Apr 26 22:22:28 2015, MaxMem=   524288000 cpu:         0.6
 (Enter /opt/g09/l101.exe)
 ---------------------
 freq-b971_64-18-6.gau
 ---------------------
 Symbolic Z-matrix:
 Charge =  0 Multiplicity = 1
 O                     1.9144    0.93234   1.87981 
 C                     0.97531   0.35429   1.11058 
 O                     1.14134  -0.0246   -0.0158 
 H                     2.73065   0.98155   1.35916 
 H                     0.03241   0.28202   1.67156 
 
 Add atom      2 valence  3 ND=      2 dihedral       1      2      3      5
 NAtoms=      5 NQM=        5 NQMF=       0 NMMI=      0 NMMIF=      0
                NMic=       0 NMicF=      0.
                    Isotopes and Nuclear Properties:
 (Nuclear quadrupole moments (NQMom) in fm**2, nuclear magnetic moments (NMagM)
  in nuclear magnetons)

  Atom         1           2           3           4           5
 IAtWgt=          16          12          16           1           1
 AtmWgt=  15.9949146  12.0000000  15.9949146   1.0078250   1.0078250
 NucSpn=           0           0           0           1           1
 AtZEff=   0.0000000   0.0000000   0.0000000   0.0000000   0.0000000
 NQMom=    0.0000000   0.0000000   0.0000000   0.0000000   0.0000000
 NMagM=    0.0000000   0.0000000   0.0000000   2.7928460   2.7928460
 AtZNuc=   8.0000000   6.0000000   8.0000000   1.0000000   1.0000000
 Leave Link  101 at Sun Apr 26 22:22:28 2015, MaxMem=   524288000 cpu:         1.9
 (Enter /opt/g09/l103.exe)

 GradGradGradGradGradGradGradGradGradGradGradGradGradGradGradGradGradGrad
 Berny optimization.
 Initialization pass.
                           ----------------------------
                           !    Initial Parameters    !
                           ! (Angstroms and Degrees)  !
 --------------------------                            --------------------------
 ! Name  Definition              Value          Derivative Info.                !
 --------------------------------------------------------------------------------
 ! R1    R(1,2)                  1.3445         calculate D2E/DX2 analytically  !
 ! R2    R(1,4)                  0.9694         calculate D2E/DX2 analytically  !
 ! R3    R(2,3)                  1.1999         calculate D2E/DX2 analytically  !
 ! R4    R(2,5)                  1.0995         calculate D2E/DX2 analytically  !
 ! A1    A(2,1,4)              107.617          calculate D2E/DX2 analytically  !
 ! A2    A(1,2,3)              125.1808         calculate D2E/DX2 analytically  !
 ! A3    A(1,2,5)              109.592          calculate D2E/DX2 analytically  !
 ! A4    A(3,2,5)              125.2272         calculate D2E/DX2 analytically  !
 ! D1    D(4,1,2,3)             -0.0002         calculate D2E/DX2 analytically  !
 ! D2    D(4,1,2,5)            179.9996         calculate D2E/DX2 analytically  !
 ! D3    D(1,2,3,5)            179.9998         calculate D2E/DX2 analytically  !
 --------------------------------------------------------------------------------
 Trust Radius=3.00D-01 FncErr=1.00D-07 GrdErr=1.00D-06
 Number of steps in this run=     21 maximum allowed number of steps=    100.
 GradGradGradGradGradGradGradGradGradGradGradGradGradGradGradGradGradGrad

 Leave Link  103 at Sun Apr 26 22:22:28 2015, MaxMem=   524288000 cpu:         0.1
 (Enter /opt/g09/l202.exe)
                          Input orientation:                          
 ---------------------------------------------------------------------
 Center     Atomic      Atomic             Coordinates (Angstroms)
 Number     Number       Type             X           Y           Z
 ---------------------------------------------------------------------
      1          8           0        1.914400    0.932340    1.879810
      2          6           0        0.975310    0.354290    1.110580
      3          8           0        1.141340   -0.024600   -0.015800
      4          1           0        2.730650    0.981550    1.359160
      5          1           0        0.032410    0.282020    1.671560
 ---------------------------------------------------------------------
                    Distance matrix (angstroms):
                    1          2          3          4          5
     1  O    0.000000
     2  C    1.344525   0.000000
     3  O    2.259799   1.199940   0.000000
     4  H    0.969413   1.880549   2.329970   0.000000
     5  H    2.002042   1.099537   2.042284   2.804895   0.000000
 Symmetry turned off by external request.
 Stoichiometry    CH2O2
 Framework group  C1[X(CH2O2)]
 Deg. of freedom     9
 Full point group                 C1      NOp   1
 Rotational constants (GHZ):     77.8831785     12.0393264     10.4274343
 Leave Link  202 at Sun Apr 26 22:22:28 2015, MaxMem=   524288000 cpu:         0.3
 (Enter /opt/g09/l301.exe)
 Standard basis: 6-311+G(d,p) (5D, 7F)
 Ernie: Thresh=  0.10000D-02 Tol=  0.10000D-05 Strict=F.
 AO basis set in the form of general basis input (Overlap normalization):
      1 0
 S   6 1.00       0.000000000000
      0.8588500000D+04  0.1895150083D-02
      0.1297230000D+04  0.1438590063D-01
      0.2992960000D+03  0.7073200310D-01
      0.8737710000D+02  0.2400010105D+00
      0.2567890000D+02  0.5947970261D+00
      0.3740040000D+01  0.2808020123D+00
 SP   3 1.00       0.000000000000
      0.4211750000D+02  0.1138890124D+00  0.3651139738D-01
      0.9628370000D+01  0.9208111006D+00  0.2371529830D+00
      0.2853320000D+01 -0.3274470358D-02  0.8197019412D+00
 SP   1 1.00       0.000000000000
      0.9056610000D+00  0.1000000000D+01  0.1000000000D+01
 SP   1 1.00       0.000000000000
      0.2556110000D+00  0.1000000000D+01  0.1000000000D+01
 SP   1 1.00       0.000000000000
      0.8450000000D-01  0.1000000000D+01  0.1000000000D+01
 D   1 1.00       0.000000000000
      0.1292000000D+01  0.1000000000D+01
 ****
      2 0
 S   6 1.00       0.000000000000
      0.4563240000D+04  0.1966650249D-02
      0.6820240000D+03  0.1523060193D-01
      0.1549730000D+03  0.7612690966D-01
      0.4445530000D+02  0.2608010331D+00
      0.1302900000D+02  0.6164620782D+00
      0.1827730000D+01  0.2210060280D+00
 SP   3 1.00       0.000000000000
      0.2096420000D+02  0.1146600807D+00  0.4024869267D-01
      0.4803310000D+01  0.9199996477D+00  0.2375939567D+00
      0.1459330000D+01 -0.3030682134D-02  0.8158538515D+00
 SP   1 1.00       0.000000000000
      0.4834560000D+00  0.1000000000D+01  0.1000000000D+01
 SP   1 1.00       0.000000000000
      0.1455850000D+00  0.1000000000D+01  0.1000000000D+01
 SP   1 1.00       0.000000000000
      0.4380000000D-01  0.1000000000D+01  0.1000000000D+01
 D   1 1.00       0.000000000000
      0.6260000000D+00  0.1000000000D+01
 ****
      3 0
 S   6 1.00       0.000000000000
      0.8588500000D+04  0.1895150083D-02
      0.1297230000D+04  0.1438590063D-01
      0.2992960000D+03  0.7073200310D-01
      0.8737710000D+02  0.2400010105D+00
      0.2567890000D+02  0.5947970261D+00
      0.3740040000D+01  0.2808020123D+00
 SP   3 1.00       0.000000000000
      0.4211750000D+02  0.1138890124D+00  0.3651139738D-01
      0.9628370000D+01  0.9208111006D+00  0.2371529830D+00
      0.2853320000D+01 -0.3274470358D-02  0.8197019412D+00
 SP   1 1.00       0.000000000000
      0.9056610000D+00  0.1000000000D+01  0.1000000000D+01
 SP   1 1.00       0.000000000000
      0.2556110000D+00  0.1000000000D+01  0.1000000000D+01
 SP   1 1.00       0.000000000000
      0.8450000000D-01  0.1000000000D+01  0.1000000000D+01
 D   1 1.00       0.000000000000
      0.1292000000D+01  0.1000000000D+01
 ****
      4 0
 S   3 1.00       0.000000000000
      0.3386500000D+02  0.2549381454D-01
      0.5094790000D+01  0.1903731086D+00
      0.1158790000D+01  0.8521614860D+00
 S   1 1.00       0.000000000000
      0.3258400000D+00  0.1000000000D+01
 S   1 1.00       0.000000000000
      0.1027410000D+00  0.1000000000D+01
 P   1 1.00       0.000000000000
      0.7500000000D+00  0.1000000000D+01
 ****
      5 0
 S   3 1.00       0.000000000000
      0.3386500000D+02  0.2549381454D-01
      0.5094790000D+01  0.1903731086D+00
      0.1158790000D+01  0.8521614860D+00
 S   1 1.00       0.000000000000
      0.3258400000D+00  0.1000000000D+01
 S   1 1.00       0.000000000000
      0.1027410000D+00  0.1000000000D+01
 P   1 1.00       0.000000000000
      0.7500000000D+00  0.1000000000D+01
 ****

    78 basis functions,   124 primitive gaussians,    81 cartesian basis functions
    12 alpha electrons       12 beta electrons
       nuclear repulsion energy        70.1828738950 Hartrees.
 IExCor= 1614 DFT=T Ex+Corr=B971 ExCW=0 ScaHFX=  0.210000
 ScaDFX=  1.000000  1.000000  1.000000  1.000000 ScalE2=  1.000000  1.000000
 IRadAn=      5 IRanWt=     -1 IRanGd=            0 ICorTp=0 IEmpDi=  4
 NAtoms=    5 NActive=    5 NUniq=    5 SFac= 1.00D+00 NAtFMM=   60 NAOKFM=F Big=F
 Integral buffers will be    131072 words long.
 Raffenetti 2 integral format.
 Two-electron integral symmetry is turned off.
 Leave Link  301 at Sun Apr 26 22:22:28 2015, MaxMem=   524288000 cpu:         0.4
 (Enter /opt/g09/l302.exe)
 NPDir=0 NMtPBC=     1 NCelOv=     1 NCel=       1 NClECP=     1 NCelD=      1
         NCelK=      1 NCelE2=     1 NClLst=     1 CellRange=     0.0.
 One-electron integrals computed using PRISM.
 NBasis=    78 RedAO= T EigKep=  2.65D-03  NBF=    78
 NBsUse=    78 1.00D-06 EigRej= -1.00D+00 NBFU=    78
 Precomputing XC quadrature grid using
 IXCGrd= 4 IRadAn=           5 IRanWt=          -1 IRanGd=           0 AccXCQ= 0.00D+00.
 Generated NRdTot=       0 NPtTot=           0 NUsed=           0 NTot=          32
 NSgBfM=    81    81    81    81    81 MxSgAt=     5 MxSgA2=     5.
 Leave Link  302 at Sun Apr 26 22:22:29 2015, MaxMem=   524288000 cpu:         1.3
 (Enter /opt/g09/l303.exe)
 DipDrv:  MaxL=1.
 Leave Link  303 at Sun Apr 26 22:22:29 2015, MaxMem=   524288000 cpu:         0.3
 (Enter /opt/g09/l401.exe)
 ExpMin= 4.38D-02 ExpMax= 8.59D+03 ExpMxC= 1.30D+03 IAcc=3 IRadAn=         5 AccDes= 0.00D+00
 Harris functional with IExCor= 1614 and IRadAn=       5 diagonalized for initial guess.
 HarFok:  IExCor= 1614 AccDes= 0.00D+00 IRadAn=         5 IDoV= 1 UseB2=F ITyADJ=14
 ICtDFT=  3500011 ScaDFX=  1.000000  1.000000  1.000000  1.000000
 FoFCou: FMM=F IPFlag=           0 FMFlag=      100000 FMFlg1=           0
         NFxFlg=           0 DoJE=T BraDBF=F KetDBF=T FulRan=T
         wScrn=  0.000000 ICntrl=     500 IOpCl=  0 I1Cent=   200000004 NGrid=           0
         NMat0=    1 NMatS0=      1 NMatT0=    0 NMatD0=    1 NMtDS0=    0 NMtDT0=    0
 Symmetry not used in FoFCou.
 Harris En= -185.130276139823    
 JPrj=0 DoOrth=F DoCkMO=T.
 Mixing orbitals, IMix= 1 IMixAn=  0 NRI=1 NE=   12 Coef=  7.07106781D-01  7.07106781D-01
 Leave Link  401 at Sun Apr 26 22:22:29 2015, MaxMem=   524288000 cpu:         2.4
 (Enter /opt/g09/l502.exe)
 Closed shell SCF:
 Using DIIS extrapolation, IDIIS=  1040.
 Two-electron integral symmetry not used.
 Keep R1 ints in memory in canonical form, NReq=5691784.
 IVT=       39377 IEndB=       39377 NGot=   524288000 MDV=   519500803
 LenX=   519500803 LenY=   519493801
 Requested convergence on RMS density matrix=1.00D-08 within 128 cycles.
 Requested convergence on MAX density matrix=1.00D-06.
 Requested convergence on             energy=1.00D-06.
 No special actions if energy rises.
 FoFCou: FMM=F IPFlag=           0 FMFlag=           0 FMFlg1=           0
         NFxFlg=           0 DoJE=F BraDBF=F KetDBF=F FulRan=T
         wScrn=  0.000000 ICntrl=     600 IOpCl=  0 I1Cent=           0 NGrid=           0
         NMat0=    1 NMatS0=   3081 NMatT0=    0 NMatD0=    1 NMtDS0=    0 NMtDT0=    0
 Symmetry not used in FoFCou.

 Cycle   1  Pass 1  IDiag  1:
 E= -189.460344090900    
 DIIS: error= 9.71D-02 at cycle   1 NSaved=   1.
 NSaved= 1 IEnMin= 1 EnMin= -189.460344090900     IErMin= 1 ErrMin= 9.71D-02
 ErrMax= 9.71D-02  0.00D+00 EMaxC= 1.00D-01 BMatC= 3.92D-01 BMatP= 3.92D-01
 IDIUse=3 WtCom= 2.93D-02 WtEn= 9.71D-01
 Coeff-Com:  0.100D+01
 Coeff-En:   0.100D+01
 Coeff:      0.100D+01
 Gap=     0.062 Goal=   None    Shift=    0.000
 GapD=    0.062 DampG=0.500 DampE=0.500 DampFc=0.2500 IDamp=-1.
 Damping current iteration by 2.50D-01
 RMSDP=1.19D-02 MaxDP=2.03D-01              OVMax= 5.94D-01

 Cycle   2  Pass 1  IDiag  1:
 E= -189.540334695369     Delta-E=       -0.079990604469 Rises=F Damp=T
 DIIS: error= 6.91D-02 at cycle   2 NSaved=   2.
 NSaved= 2 IEnMin= 2 EnMin= -189.540334695369     IErMin= 2 ErrMin= 6.91D-02
 ErrMax= 6.91D-02  0.00D+00 EMaxC= 1.00D-01 BMatC= 1.76D-01 BMatP= 3.92D-01
 IDIUse=3 WtCom= 3.09D-01 WtEn= 6.91D-01
 Coeff-Com: -0.115D+01 0.215D+01
 Coeff-En:   0.000D+00 0.100D+01
 Coeff:     -0.355D+00 0.135D+01
 Gap=     0.283 Goal=   None    Shift=    0.000
 RMSDP=8.81D-03 MaxDP=1.36D-01 DE=-8.00D-02 OVMax= 1.41D-01

 Cycle   3  Pass 1  IDiag  1:
 E= -189.762007192663     Delta-E=       -0.221672497293 Rises=F Damp=F
 DIIS: error= 1.16D-02 at cycle   3 NSaved=   3.
 NSaved= 3 IEnMin= 3 EnMin= -189.762007192663     IErMin= 3 ErrMin= 1.16D-02
 ErrMax= 1.16D-02  0.00D+00 EMaxC= 1.00D-01 BMatC= 6.83D-03 BMatP= 1.76D-01
 IDIUse=3 WtCom= 8.84D-01 WtEn= 1.16D-01
 Coeff-Com:  0.911D-01-0.429D-01 0.952D+00
 Coeff-En:   0.000D+00 0.000D+00 0.100D+01
 Coeff:      0.805D-01-0.379D-01 0.957D+00
 Gap=     0.283 Goal=   None    Shift=    0.000
 RMSDP=1.29D-03 MaxDP=2.30D-02 DE=-2.22D-01 OVMax= 6.67D-02

 Cycle   4  Pass 1  IDiag  1:
 E= -189.765931851841     Delta-E=       -0.003924659178 Rises=F Damp=F
 DIIS: error= 8.41D-03 at cycle   4 NSaved=   4.
 NSaved= 4 IEnMin= 4 EnMin= -189.765931851841     IErMin= 4 ErrMin= 8.41D-03
 ErrMax= 8.41D-03  0.00D+00 EMaxC= 1.00D-01 BMatC= 5.91D-03 BMatP= 6.83D-03
 IDIUse=3 WtCom= 9.16D-01 WtEn= 8.41D-02
 Coeff-Com:  0.466D-01-0.498D-01 0.510D+00 0.494D+00
 Coeff-En:   0.000D+00 0.000D+00 0.226D+00 0.774D+00
 Coeff:      0.427D-01-0.456D-01 0.486D+00 0.517D+00
 Gap=     0.285 Goal=   None    Shift=    0.000
 RMSDP=6.82D-04 MaxDP=1.46D-02 DE=-3.92D-03 OVMax= 3.07D-02

 Cycle   5  Pass 1  IDiag  1:
 E= -189.769327314323     Delta-E=       -0.003395462482 Rises=F Damp=F
 DIIS: error= 5.24D-03 at cycle   5 NSaved=   5.
 NSaved= 5 IEnMin= 5 EnMin= -189.769327314323     IErMin= 5 ErrMin= 5.24D-03
 ErrMax= 5.24D-03  0.00D+00 EMaxC= 1.00D-01 BMatC= 1.22D-03 BMatP= 5.91D-03
 IDIUse=3 WtCom= 9.48D-01 WtEn= 5.24D-02
 Coeff-Com: -0.424D-01 0.567D-01 0.852D-01 0.305D+00 0.595D+00
 Coeff-En:   0.000D+00 0.000D+00 0.000D+00 0.161D+00 0.839D+00
 Coeff:     -0.402D-01 0.537D-01 0.807D-01 0.298D+00 0.608D+00
 Gap=     0.289 Goal=   None    Shift=    0.000
 RMSDP=3.32D-04 MaxDP=3.43D-03 DE=-3.40D-03 OVMax= 1.24D-02

 Cycle   6  Pass 1  IDiag  1:
 E= -189.770266846536     Delta-E=       -0.000939532213 Rises=F Damp=F
 DIIS: error= 6.67D-04 at cycle   6 NSaved=   6.
 NSaved= 6 IEnMin= 6 EnMin= -189.770266846536     IErMin= 6 ErrMin= 6.67D-04
 ErrMax= 6.67D-04  0.00D+00 EMaxC= 1.00D-01 BMatC= 3.87D-05 BMatP= 1.22D-03
 IDIUse=3 WtCom= 9.93D-01 WtEn= 6.67D-03
 Coeff-Com: -0.173D-01 0.229D-01-0.303D-01 0.400D-01 0.210D+00 0.774D+00
 Coeff-En:   0.000D+00 0.000D+00 0.000D+00 0.000D+00 0.000D+00 0.100D+01
 Coeff:     -0.172D-01 0.228D-01-0.301D-01 0.397D-01 0.209D+00 0.776D+00
 Gap=     0.290 Goal=   None    Shift=    0.000
 RMSDP=8.86D-05 MaxDP=1.71D-03 DE=-9.40D-04 OVMax= 4.88D-03

 Cycle   7  Pass 1  IDiag  1:
 E= -189.770311707545     Delta-E=       -0.000044861010 Rises=F Damp=F
 DIIS: error= 2.31D-04 at cycle   7 NSaved=   7.
 NSaved= 7 IEnMin= 7 EnMin= -189.770311707545     IErMin= 7 ErrMin= 2.31D-04
 ErrMax= 2.31D-04  0.00D+00 EMaxC= 1.00D-01 BMatC= 4.24D-06 BMatP= 3.87D-05
 IDIUse=3 WtCom= 9.98D-01 WtEn= 2.31D-03
 Coeff-Com:  0.166D-02-0.308D-02-0.185D-01-0.161D-01 0.141D-01 0.282D+00
 Coeff-Com:  0.740D+00
 Coeff-En:   0.000D+00 0.000D+00 0.000D+00 0.000D+00 0.000D+00 0.000D+00
 Coeff-En:   0.100D+01
 Coeff:      0.165D-02-0.307D-02-0.184D-01-0.161D-01 0.140D-01 0.281D+00
 Coeff:      0.741D+00
 Gap=     0.290 Goal=   None    Shift=    0.000
 RMSDP=2.71D-05 MaxDP=5.16D-04 DE=-4.49D-05 OVMax= 1.56D-03

 Cycle   8  Pass 1  IDiag  1:
 E= -189.770316664269     Delta-E=       -0.000004956724 Rises=F Damp=F
 DIIS: error= 3.39D-05 at cycle   8 NSaved=   8.
 NSaved= 8 IEnMin= 8 EnMin= -189.770316664269     IErMin= 8 ErrMin= 3.39D-05
 ErrMax= 3.39D-05  0.00D+00 EMaxC= 1.00D-01 BMatC= 6.49D-08 BMatP= 4.24D-06
 IDIUse=1 WtCom= 1.00D+00 WtEn= 0.00D+00
 Coeff-Com:  0.201D-03-0.315D-03-0.147D-03-0.285D-02-0.672D-02-0.142D-01
 Coeff-Com:  0.788D-01 0.945D+00
 Coeff:      0.201D-03-0.315D-03-0.147D-03-0.285D-02-0.672D-02-0.142D-01
 Coeff:      0.788D-01 0.945D+00
 Gap=     0.289 Goal=   None    Shift=    0.000
 RMSDP=3.99D-06 MaxDP=4.13D-05 DE=-4.96D-06 OVMax= 2.32D-04

 Cycle   9  Pass 1  IDiag  1:
 E= -189.770316742825     Delta-E=       -0.000000078556 Rises=F Damp=F
 DIIS: error= 7.27D-06 at cycle   9 NSaved=   9.
 NSaved= 9 IEnMin= 9 EnMin= -189.770316742825     IErMin= 9 ErrMin= 7.27D-06
 ErrMax= 7.27D-06  0.00D+00 EMaxC= 1.00D-01 BMatC= 2.56D-09 BMatP= 6.49D-08
 IDIUse=1 WtCom= 1.00D+00 WtEn= 0.00D+00
 Coeff-Com: -0.120D-03 0.175D-03 0.350D-03-0.509D-04-0.185D-02-0.935D-02
 Coeff-Com: -0.136D-02 0.190D+00 0.822D+00
 Coeff:     -0.120D-03 0.175D-03 0.350D-03-0.509D-04-0.185D-02-0.935D-02
 Coeff:     -0.136D-02 0.190D+00 0.822D+00
 Gap=     0.289 Goal=   None    Shift=    0.000
 RMSDP=5.46D-07 MaxDP=6.17D-06 DE=-7.86D-08 OVMax= 2.15D-05

 Cycle  10  Pass 1  IDiag  1:
 E= -189.770316745028     Delta-E=       -0.000000002203 Rises=F Damp=F
 DIIS: error= 8.13D-07 at cycle  10 NSaved=  10.
 NSaved=10 IEnMin=10 EnMin= -189.770316745028     IErMin=10 ErrMin= 8.13D-07
 ErrMax= 8.13D-07  0.00D+00 EMaxC= 1.00D-01 BMatC= 3.85D-11 BMatP= 2.56D-09
 IDIUse=1 WtCom= 1.00D+00 WtEn= 0.00D+00
 Coeff-Com:  0.316D-05-0.341D-05 0.297D-04 0.645D-04-0.408D-04-0.359D-03
 Coeff-Com: -0.197D-02-0.521D-02 0.926D-01 0.915D+00
 Coeff:      0.316D-05-0.341D-05 0.297D-04 0.645D-04-0.408D-04-0.359D-03
 Coeff:     -0.197D-02-0.521D-02 0.926D-01 0.915D+00
 Gap=     0.289 Goal=   None    Shift=    0.000
 RMSDP=9.08D-08 MaxDP=8.91D-07 DE=-2.20D-09 OVMax= 3.07D-06

 Cycle  11  Pass 1  IDiag  1:
 E= -189.770316745061     Delta-E=       -0.000000000033 Rises=F Damp=F
 DIIS: error= 1.03D-07 at cycle  11 NSaved=  11.
 NSaved=11 IEnMin=11 EnMin= -189.770316745061     IErMin=11 ErrMin= 1.03D-07
 ErrMax= 1.03D-07  0.00D+00 EMaxC= 1.00D-01 BMatC= 8.46D-13 BMatP= 3.85D-11
 IDIUse=1 WtCom= 1.00D+00 WtEn= 0.00D+00
 Coeff-Com: -0.185D-06 0.269D-06-0.363D-05 0.440D-05 0.423D-04 0.897D-04
 Coeff-Com: -0.319D-03-0.305D-02-0.348D-02 0.573D-01 0.949D+00
 Coeff:     -0.185D-06 0.269D-06-0.363D-05 0.440D-05 0.423D-04 0.897D-04
 Coeff:     -0.319D-03-0.305D-02-0.348D-02 0.573D-01 0.949D+00
 Gap=     0.289 Goal=   None    Shift=    0.000
 RMSDP=1.34D-08 MaxDP=1.23D-07 DE=-3.26D-11 OVMax= 3.64D-07

 Cycle  12  Pass 1  IDiag  1:
 E= -189.770316745062     Delta-E=       -0.000000000001 Rises=F Damp=F
 DIIS: error= 2.76D-08 at cycle  12 NSaved=  12.
 NSaved=12 IEnMin=12 EnMin= -189.770316745062     IErMin=12 ErrMin= 2.76D-08
 ErrMax= 2.76D-08  0.00D+00 EMaxC= 1.00D-01 BMatC= 5.31D-14 BMatP= 8.46D-13
 IDIUse=1 WtCom= 1.00D+00 WtEn= 0.00D+00
 Coeff-Com: -0.411D-07 0.595D-07-0.792D-06 0.295D-06 0.118D-04 0.170D-04
 Coeff-Com: -0.458D-04-0.305D-03-0.211D-02-0.162D-01 0.173D+00 0.846D+00
 Coeff:     -0.411D-07 0.595D-07-0.792D-06 0.295D-06 0.118D-04 0.170D-04
 Coeff:     -0.458D-04-0.305D-03-0.211D-02-0.162D-01 0.173D+00 0.846D+00
 Gap=     0.289 Goal=   None    Shift=    0.000
 RMSDP=3.52D-09 MaxDP=4.65D-08 DE=-6.25D-13 OVMax= 8.08D-08

 SCF Done:  E(RB971) =  -189.770316745     A.U. after   12 cycles
            NFock= 12  Conv=0.35D-08     -V/T= 2.0027
 KE= 1.892577325392D+02 PE=-5.874425394930D+02 EE= 1.382316163137D+02
 Leave Link  502 at Sun Apr 26 22:22:33 2015, MaxMem=   524288000 cpu:        24.5
 (Enter /opt/g09/l801.exe)
 DoSCS=F DFT=T ScalE2(SS,OS)=  1.000000  1.000000
 Range of M.O.s used for correlation:     1    78
 NBasis=    78 NAE=    12 NBE=    12 NFC=     0 NFV=     0
 NROrb=     78 NOA=    12 NOB=    12 NVA=    66 NVB=    66
 Leave Link  801 at Sun Apr 26 22:22:33 2015, MaxMem=   524288000 cpu:         0.3
 (Enter /opt/g09/l1101.exe)
 Using compressed storage, NAtomX=     5.
 Will process      6 centers per pass.
 Leave Link 1101 at Sun Apr 26 22:22:33 2015, MaxMem=   524288000 cpu:         1.3
 (Enter /opt/g09/l1102.exe)
 Symmetrizing basis deriv contribution to polar:
 IMax=3 JMax=2 DiffMx= 0.00D+00
 Leave Link 1102 at Sun Apr 26 22:22:33 2015, MaxMem=   524288000 cpu:         0.3
 (Enter /opt/g09/l1110.exe)
 Forming Gx(P) for the SCF density, NAtomX=     5.
 Integral derivatives from FoFJK, PRISM(SPDF).
 Do as many integral derivatives as possible in FoFJK.
 G2DrvN: MDV=     524287856.
 G2DrvN: will do     6 centers at a time, making    1 passes.
 Calling FoFCou, ICntrl=  3107 FMM=F I1Cent=   0 AccDes= 0.00D+00.
 FoFJK:  IHMeth= 1 ICntrl=    3107 DoSepK=F KAlg= 0 I1Cent=   0 FoldK=F
 IRaf=         0 NMat=   1 IRICut=       1 DoRegI=T DoRafI=F ISym2E= 0.
 FoFCou: FMM=F IPFlag=           0 FMFlag=      100000 FMFlg1=           0
         NFxFlg=           0 DoJE=F BraDBF=F KetDBF=F FulRan=T
         wScrn=  0.000000 ICntrl=    3107 IOpCl=  0 I1Cent=           0 NGrid=           0
         NMat0=    1 NMatS0=      1 NMatT0=    0 NMatD0=    1 NMtDS0=    0 NMtDT0=    0
 Symmetry not used in FoFCou.
 End of G2Drv F.D. properties file   721 does not exist.
 End of G2Drv F.D. properties file   722 does not exist.
 End of G2Drv F.D. properties file   788 does not exist.
 Leave Link 1110 at Sun Apr 26 22:22:36 2015, MaxMem=   524288000 cpu:        26.4
 (Enter /opt/g09/l1002.exe)
 Minotr:  Closed shell wavefunction.
          IDoAtm=11111
          Direct CPHF calculation.
          Differentiating once with respect to electric field.
                with respect to dipole field.
          Differentiating once with respect to nuclear coordinates.
          Requested convergence is 1.0D-08 RMS, and 1.0D-07 maximum.
          Secondary convergence is 1.0D-12 RMS, and 1.0D-12 maximum.
          NewPWx=T KeepS1=F KeepF1=F KeepIn=T MapXYZ=F SortEE=F KeepMc=T.
          MDV=     524287868 using IRadAn=       1.
 Generate precomputed XC quadrature information.
 Keep R1 ints in memory in canonical form, NReq=5651465.
 FoFCou: FMM=F IPFlag=           0 FMFlag=           0 FMFlg1=           0
         NFxFlg=           0 DoJE=F BraDBF=F KetDBF=F FulRan=T
         wScrn=  0.000000 ICntrl=     600 IOpCl=  0 I1Cent=           0 NGrid=           0
         NMat0=    1 NMatS0=   3081 NMatT0=    0 NMatD0=    1 NMtDS0=    0 NMtDT0=    0
 Symmetry not used in FoFCou.
          Solving linear equations simultaneously, MaxMat=       0.
          There are    18 degrees of freedom in the 1st order CPHF.  IDoFFX=6 NUNeed=     3.
     15 vectors produced by pass  0 Test12= 4.40D-15 5.56D-09 XBig12= 1.61D+01 2.25D+00.
 AX will form    15 AO Fock derivatives at one time.
     15 vectors produced by pass  1 Test12= 4.40D-15 5.56D-09 XBig12= 1.98D+00 3.67D-01.
     15 vectors produced by pass  2 Test12= 4.40D-15 5.56D-09 XBig12= 8.99D-03 2.29D-02.
     15 vectors produced by pass  3 Test12= 4.40D-15 5.56D-09 XBig12= 3.85D-05 1.53D-03.
     15 vectors produced by pass  4 Test12= 4.40D-15 5.56D-09 XBig12= 7.77D-08 7.98D-05.
     13 vectors produced by pass  5 Test12= 4.40D-15 5.56D-09 XBig12= 1.76D-10 3.29D-06.
      3 vectors produced by pass  6 Test12= 4.40D-15 5.56D-09 XBig12= 2.35D-13 8.38D-08.
 InvSVY:  IOpt=1 It=  1 EMax= 1.55D-15
 Solved reduced A of dimension    91 with    15 vectors.
 FullF1:  Do perturbations    1 to     3.
 Isotropic polarizability for W=    0.000000       20.16 Bohr**3.
 End of Minotr F.D. properties file   721 does not exist.
 End of Minotr F.D. properties file   722 does not exist.
 End of Minotr F.D. properties file   788 does not exist.
 Leave Link 1002 at Sun Apr 26 22:22:41 2015, MaxMem=   524288000 cpu:        34.4
 (Enter /opt/g09/l701.exe)
 Compute integral second derivatives.
 ... and contract with generalized density number  0.
 Leave Link  701 at Sun Apr 26 22:22:41 2015, MaxMem=   524288000 cpu:         2.2
 (Enter /opt/g09/l702.exe)
 L702 exits ... SP integral derivatives will be done elsewhere.
 Leave Link  702 at Sun Apr 26 22:22:41 2015, MaxMem=   524288000 cpu:         0.3
 (Enter /opt/g09/l703.exe)
 Compute integral second derivatives, UseDBF=F ICtDFT=           0.
 Integral derivatives from FoFJK, PRISM(SPDF).
 Calling FoFJK, ICntrl=    100127 FMM=F ISym2X=0 I1Cent= 0 IOpClX= 0 NMat=1 NMatS=1 NMatT=0.
 FoFJK:  IHMeth= 1 ICntrl=  100127 DoSepK=F KAlg= 0 I1Cent=   0 FoldK=F
 IRaf=         0 NMat=   1 IRICut=       1 DoRegI=T DoRafI=F ISym2E= 0.
 FoFCou: FMM=F IPFlag=           0 FMFlag=      100000 FMFlg1=         800
         NFxFlg=           0 DoJE=F BraDBF=F KetDBF=F FulRan=T
         wScrn=  0.000000 ICntrl=  100127 IOpCl=  0 I1Cent=           0 NGrid=           0
         NMat0=    1 NMatS0=      1 NMatT0=    0 NMatD0=    1 NMtDS0=    0 NMtDT0=    0
 Symmetry not used in FoFCou.
 Leave Link  703 at Sun Apr 26 22:22:49 2015, MaxMem=   524288000 cpu:        58.2
 (Enter /opt/g09/l716.exe)
 Dipole        = 1.82138946D-01 2.48913266D-01 5.08165066D-01
 Polarizability= 2.10122937D+01 2.46281575D+00 1.52963255D+01
                 1.52716104D-02 4.28982127D+00 2.41581740D+01
 -------------------------------------------------------------------
 Center     Atomic                   Forces (Hartrees/Bohr)
 Number     Number              X              Y              Z
 -------------------------------------------------------------------
      1        8          -0.000015953   -0.000005502   -0.000002650
      2        6           0.000008334    0.000008232    0.000014687
      3        8          -0.000000109   -0.000003162   -0.000007005
      4        1           0.000007594    0.000000306   -0.000004278
      5        1           0.000000133    0.000000127   -0.000000754
 -------------------------------------------------------------------
 Cartesian Forces:  Max     0.000015953 RMS     0.000007213
 Force constants in Cartesian coordinates: 
                1             2             3             4             5 
      1  0.577191D+00
      2  0.122151D+00  0.115807D+00
      3 -0.107066D+00  0.101382D+00  0.391377D+00
      4 -0.222897D+00 -0.648619D-01 -0.408235D-01  0.639630D+00
      5 -0.733330D-01 -0.100697D+00 -0.473962D-01  0.721322D-01  0.300525D+00
      6 -0.630455D-01 -0.541377D-01 -0.152248D+00 -0.168183D+00  0.230980D+00
      7  0.245979D-01 -0.198146D-01 -0.489169D-01 -0.137609D+00  0.232263D-01
      8 -0.163455D-01  0.438278D-02 -0.501680D-01  0.276792D-01 -0.140296D+00
      9 -0.398244D-01 -0.474078D-01 -0.642394D-01  0.125091D+00 -0.198365D+00
     10 -0.348088D+00 -0.284544D-01  0.187689D+00 -0.438689D-01 -0.767511D-02
     11 -0.127579D-01 -0.248044D-01 -0.621044D-02 -0.236691D-01  0.249563D-02
     12  0.228878D+00  0.628497D-02 -0.184288D+00 -0.232156D-01 -0.427090D-03
     13 -0.308035D-01 -0.901993D-02  0.911761D-02 -0.235254D+00 -0.143503D-01
     14 -0.197145D-01  0.531179D-02  0.239294D-02 -0.112804D-01 -0.620278D-01
     15 -0.189414D-01 -0.612130D-02  0.939775D-02  0.107131D+00  0.152085D-01
                6             7             8             9            10 
      6  0.930529D+00
      7  0.113401D+00  0.990126D-01
      8 -0.201912D+00 -0.164049D-01  0.122409D+00
      9 -0.691789D+00 -0.991445D-01  0.259288D+00  0.787825D+00
     10  0.187528D-01  0.759858D-02  0.547340D-02  0.312361D-02  0.386168D+00
     11  0.123050D-01  0.540849D-02 -0.425242D-02  0.165064D-02  0.344661D-01
     12  0.223448D-01  0.295287D-02  0.159947D-02 -0.467777D-02 -0.205955D+00
     13  0.990744D-01  0.640036D-02 -0.402162D-03  0.107541D-01 -0.180960D-02
     14  0.127646D-01  0.758475D-02  0.177562D-01 -0.151657D-01 -0.380992D-02
     15 -0.108838D+00  0.317073D-01 -0.880750D-02 -0.271193D-01 -0.360995D-02
               11            12            13            14            15 
     11  0.227887D-01
     12 -0.408357D-02  0.167141D+00
     13 -0.344766D-02 -0.265933D-02  0.261467D+00
     14  0.377256D-02 -0.337378D-02  0.272201D-01  0.351872D-01
     15 -0.366163D-02 -0.520490D-03 -0.116287D+00  0.338194D-02  0.127080D+00
 FormGI is forming the generalized inverse of G from B-inverse, IUseBI=4.
 Force constants in internal coordinates: 
                1             2             3             4             5 
      1  0.408929D+00
      2  0.123574D-01  0.511499D+00
      3  0.893109D-01 -0.531747D-02  0.889188D+00
      4  0.142310D-01 -0.119225D-02  0.237980D-01  0.330104D+00
      5  0.327657D-01  0.269185D-01  0.341702D-02  0.379560D-02  0.170213D+00
      6  0.160607D-01 -0.112962D-01  0.355959D-01 -0.145374D-01 -0.306045D-01
      7  0.211297D-01  0.872352D-02 -0.447752D-01  0.126438D-01  0.267200D-01
      8 -0.371904D-01  0.257265D-02  0.917931D-02  0.189352D-02  0.388451D-02
      9 -0.161771D-05  0.880613D-05  0.340511D-05  0.000000D+00  0.232598D-05
     10  0.000000D+00  0.106091D-04 -0.201286D-05  0.406371D-05  0.111014D-05
     11  0.130744D-05  0.208310D-05 -0.631321D-05  0.445355D-05 -0.138272D-05
                6             7             8             9            10 
      6  0.181216D+00
      7 -0.941727D-01  0.122255D+00
      8 -0.870431D-01 -0.280819D-01  0.115125D+00
      9  0.221487D-05  0.000000D+00 -0.125797D-05  0.171089D-01
     10 -0.128235D-05  0.000000D+00  0.104453D-05  0.404606D-02  0.171440D-01
     11 -0.395281D-05  0.163160D-05  0.239230D-05 -0.150655D-01  0.151060D-01
               11 
     11  0.347971D-01
 Leave Link  716 at Sun Apr 26 22:22:49 2015, MaxMem=   524288000 cpu:         0.3
 (Enter /opt/g09/l103.exe)

 GradGradGradGradGradGradGradGradGradGradGradGradGradGradGradGradGradGrad
 Berny optimization.
 Red2BG is reusing G-inverse.
 Internal  Forces:  Max     0.000011971 RMS     0.000005044
 Search for a local minimum.
 Step number   1 out of a maximum of   21
 All quantities printed in internal units (Hartrees-Bohrs-Radians)
 RMS Force = .50440D-05 SwitMx=.10000D-02 MixMth= 2
 Mixed Optimization -- En-DIIS/RFO-DIIS
 Second derivative matrix not updated -- analytic derivatives used.
 The second derivative matrix:
                          R1        R2        R3        R4        A1
           R1           0.40893
           R2           0.01236   0.51150
           R3           0.08931  -0.00532   0.88919
           R4           0.01423  -0.00119   0.02380   0.33010
           A1           0.03277   0.02692   0.00342   0.00380   0.17021
           A2           0.01606  -0.01130   0.03560  -0.01454  -0.03060
           A3           0.02113   0.00872  -0.04478   0.01264   0.02672
           A4          -0.03719   0.00257   0.00918   0.00189   0.00388
           D1           0.00000   0.00001   0.00000   0.00000   0.00000
           D2           0.00000   0.00001   0.00000   0.00000   0.00000
           D3           0.00000   0.00000  -0.00001   0.00000   0.00000
                          A2        A3        A4        D1        D2
           A2           0.18122
           A3          -0.09417   0.12225
           A4          -0.08704  -0.02808   0.11512
           D1           0.00000   0.00000   0.00000   0.01711
           D2           0.00000   0.00000   0.00000   0.00405   0.01714
           D3           0.00000   0.00000   0.00000  -0.01507   0.01511
                          D3
           D3           0.03480
 ITU=  0
     Eigenvalues ---    0.02117   0.04788   0.13268   0.15433   0.27270
     Eigenvalues ---    0.33513   0.40575   0.51696   0.91097
 RFO step:  Lambda= 0.00000000D+00 EMin= 2.11724851D-02
 Linear search not attempted -- first point.
 Iteration  1 RMS(Cart)=  0.00000851 RMS(Int)=  0.00000000
 Iteration  2 RMS(Cart)=  0.00000000 RMS(Int)=  0.00000000
 ITry= 1 IFail=0 DXMaxC= 1.69D-05 DCOld= 1.00D+10 DXMaxT= 3.00D-01 DXLimC= 3.00D+00 Rises=F
 Variable       Old X    -DE/DX   Delta X   Delta X   Delta X     New X
                                 (Linear)    (Quad)   (Total)
    R1        2.54078  -0.00001   0.00000  -0.00004  -0.00004   2.54075
    R2        1.83193   0.00001   0.00000   0.00002   0.00002   1.83194
    R3        2.26756   0.00001   0.00000   0.00001   0.00001   2.26757
    R4        2.07782   0.00000   0.00000   0.00000   0.00000   2.07782
    A1        1.87827   0.00000   0.00000   0.00001   0.00001   1.87828
    A2        2.18482   0.00000   0.00000   0.00001   0.00001   2.18483
    A3        1.91274   0.00000   0.00000   0.00001   0.00001   1.91275
    A4        2.18563   0.00000   0.00000  -0.00002  -0.00002   2.18561
    D1        0.00000   0.00000   0.00000  -0.00001  -0.00001  -0.00001
    D2        3.14159   0.00000   0.00000  -0.00001  -0.00001   3.14158
    D3        3.14159   0.00000   0.00000   0.00000   0.00000   3.14159
         Item               Value     Threshold  Converged?
 Maximum Force            0.000012     0.000015     YES
 RMS     Force            0.000005     0.000010     YES
 Maximum Displacement     0.000017     0.000060     YES
 RMS     Displacement     0.000009     0.000040     YES
 Predicted change in Energy=-3.570632D-10
 Optimization completed.
    -- Stationary point found.
                           ----------------------------
                           !   Optimized Parameters   !
                           ! (Angstroms and Degrees)  !
 --------------------------                            --------------------------
 ! Name  Definition              Value          Derivative Info.                !
 --------------------------------------------------------------------------------
 ! R1    R(1,2)                  1.3445         -DE/DX =    0.0                 !
 ! R2    R(1,4)                  0.9694         -DE/DX =    0.0                 !
 ! R3    R(2,3)                  1.1999         -DE/DX =    0.0                 !
 ! R4    R(2,5)                  1.0995         -DE/DX =    0.0                 !
 ! A1    A(2,1,4)              107.617          -DE/DX =    0.0                 !
 ! A2    A(1,2,3)              125.1808         -DE/DX =    0.0                 !
 ! A3    A(1,2,5)              109.592          -DE/DX =    0.0                 !
 ! A4    A(3,2,5)              125.2272         -DE/DX =    0.0                 !
 ! D1    D(4,1,2,3)             -0.0002         -DE/DX =    0.0                 !
 ! D2    D(4,1,2,5)            179.9996         -DE/DX =    0.0                 !
 ! D3    D(1,2,3,5)            179.9998         -DE/DX =    0.0                 !
 --------------------------------------------------------------------------------
 Lowest energy point so far.  Saving SCF results.
 GradGradGradGradGradGradGradGradGradGradGradGradGradGradGradGradGradGrad

 Largest change from initial coordinates is atom    0       0.000 Angstoms.
 Leave Link  103 at Sun Apr 26 22:22:49 2015, MaxMem=   524288000 cpu:         0.0
 (Enter /opt/g09/l202.exe)
                          Input orientation:                          
 ---------------------------------------------------------------------
 Center     Atomic      Atomic             Coordinates (Angstroms)
 Number     Number       Type             X           Y           Z
 ---------------------------------------------------------------------
      1          8           0        1.914400    0.932340    1.879810
      2          6           0        0.975310    0.354290    1.110580
      3          8           0        1.141340   -0.024600   -0.015800
      4          1           0        2.730650    0.981550    1.359160
      5          1           0        0.032410    0.282020    1.671560
 ---------------------------------------------------------------------
                    Distance matrix (angstroms):
                    1          2          3          4          5
     1  O    0.000000
     2  C    1.344525   0.000000
     3  O    2.259799   1.199940   0.000000
     4  H    0.969413   1.880549   2.329970   0.000000
     5  H    2.002042   1.099537   2.042284   2.804895   0.000000
 Symmetry turned off by external request.
 Stoichiometry    CH2O2
 Framework group  C1[X(CH2O2)]
 Deg. of freedom     9
 Full point group                 C1      NOp   1
 Rotational constants (GHZ):     77.8831785     12.0393264     10.4274343
 Leave Link  202 at Sun Apr 26 22:22:49 2015, MaxMem=   524288000 cpu:         0.3
 (Enter /opt/g09/l716.exe)
 Dipole        = 1.82138946D-01 2.48913266D-01 5.08165066D-01
 Polarizability= 2.10122937D+01 2.46281575D+00 1.52963255D+01
                 1.52716104D-02 4.28982127D+00 2.41581740D+01
 Full mass-weighted force constant matrix:
 Low frequencies ---   -6.3728   -0.0007   -0.0004    0.0010    3.6798    5.5546
 Low frequencies ---  632.0091  680.5027 1051.9180
 Diagonal vibrational polarizability:
        6.7604637       9.3610392       5.4943982
 Harmonic frequencies (cm**-1), IR intensities (KM/Mole), Raman scattering
 activities (A**4/AMU), depolarization ratios for plane and unpolarized
 incident light, reduced masses (AMU), force constants (mDyne/A),
 and normal coordinates:
                      1                      2                      3
                      A                      A                      A
 Frequencies --    632.0091               680.5027              1051.9180
 Red. masses --      3.4618                 1.2583                 1.5752
 Frc consts  --      0.8147                 0.3433                 1.0269
 IR Inten    --     45.3423               157.9725                 2.6457
  Atom  AN      X      Y      Z        X      Y      Z        X      Y      Z
     1   8     0.01   0.08   0.20    -0.03   0.08  -0.03     0.01  -0.03   0.01
     2   6     0.20   0.01  -0.13     0.02  -0.08   0.03    -0.06   0.19  -0.07
     3   8    -0.20  -0.12  -0.15    -0.01   0.04  -0.02     0.02  -0.05   0.02
     4   1     0.32   0.37   0.72     0.27  -0.87   0.33     0.04  -0.12   0.05
     5   1     0.24   0.06  -0.04     0.05  -0.17   0.07     0.26  -0.87   0.33
                      4                      5                      6
                      A                      A                      A
 Frequencies --   1134.5649              1298.6980              1402.8336
 Red. masses --      3.3517                 1.7475                 1.1331
 Frc consts  --      2.5420                 1.7365                 1.3138
 IR Inten    --    269.1874                12.2488                 2.2829
  Atom  AN      X      Y      Z        X      Y      Z        X      Y      Z
     1   8     0.20   0.14   0.21    -0.08  -0.01   0.04     0.03  -0.01  -0.04
     2   6    -0.22  -0.09  -0.06     0.21   0.08   0.04     0.02   0.01   0.01
     3   8     0.01  -0.04  -0.10    -0.05  -0.02  -0.01    -0.03   0.02   0.07
     4   1    -0.28  -0.32  -0.61    -0.47  -0.40  -0.66     0.17   0.14   0.22
     5   1    -0.35  -0.23  -0.32     0.03  -0.11  -0.32    -0.38  -0.41  -0.76
                      7                      8                      9
                      A                      A                      A
 Frequencies --   1827.5630              3054.5363              3769.9011
 Red. masses --      8.3377                 1.0923                 1.0640
 Frc consts  --     16.4075                 6.0047                 8.9096
 IR Inten    --    399.4579                44.2246                61.2691
  Atom  AN      X      Y      Z        X      Y      Z        X      Y      Z
     1   8     0.00  -0.02  -0.06     0.00   0.00   0.00    -0.05   0.00   0.03
     2   6    -0.06   0.21   0.60     0.07   0.00  -0.05     0.00   0.00   0.00
     3   8     0.06  -0.14  -0.41     0.00   0.00   0.00     0.00   0.00   0.00
     4   1     0.19   0.16   0.28     0.01   0.00  -0.02     0.85   0.06  -0.52
     5   1    -0.48  -0.16  -0.04    -0.86  -0.07   0.49     0.01   0.00  -0.01

 -------------------
 - Thermochemistry -
 -------------------
 Temperature   298.150 Kelvin.  Pressure   1.00000 Atm.
 Atom     1 has atomic number  8 and mass  15.99491
 Atom     2 has atomic number  6 and mass  12.00000
 Atom     3 has atomic number  8 and mass  15.99491
 Atom     4 has atomic number  1 and mass   1.00783
 Atom     5 has atomic number  1 and mass   1.00783
 Molecular mass:    46.00548 amu.
 Principal axes and moments of inertia in atomic units:
                           1         2         3
     Eigenvalues --    23.17241 149.90384 173.07625
           X            0.37933   0.88415  -0.27274
           Y            0.42775   0.09381   0.89902
           Z            0.82045  -0.45769  -0.34261
 This molecule is an asymmetric top.
 Rotational symmetry number  1.
 Rotational temperatures (Kelvin)      3.73780     0.57780     0.50044
 Rotational constants (GHZ):          77.88318    12.03933    10.42743
 Zero-point vibrational energy      88837.8 (Joules/Mol)
                                   21.23275 (Kcal/Mol)
 Vibrational temperatures:    909.32   979.09  1513.47  1632.38  1868.53
          (Kelvin)           2018.36  2629.45  4394.79  5424.04
 
 Zero-point correction=                           0.033837 (Hartree/Particle)
 Thermal correction to Energy=                    0.037005
 Thermal correction to Enthalpy=                  0.037949
 Thermal correction to Gibbs Free Energy=         0.009757
 Sum of electronic and zero-point Energies=           -189.736480
 Sum of electronic and thermal Energies=              -189.733312
 Sum of electronic and thermal Enthalpies=            -189.732368
 Sum of electronic and thermal Free Energies=         -189.760559
 
                     E (Thermal)             CV                S
                      KCal/Mol        Cal/Mol-Kelvin    Cal/Mol-Kelvin
 Total                   23.221              8.645             59.334
 Electronic               0.000              0.000              0.000
 Translational            0.889              2.981             37.404
 Rotational               0.889              2.981             21.024
 Vibrational             21.443              2.684              0.906
                       Q            Log10(Q)             Ln(Q)
 Total Bot       0.325032D-04         -4.488074        -10.334172
 Total V=0       0.119021D+12         11.075623         25.502565
 Vib (Bot)       0.301925D-15        -15.520101        -35.736352
 Vib (V=0)       0.110560D+01          0.043597          0.100385
 Electronic      0.100000D+01          0.000000          0.000000
 Translational   0.122651D+08          7.088670         16.322265
 Rotational      0.877722D+04          3.943357          9.079915
 
                                                        freq-b971_64-18-6.gau
                                                             IR Spectrum
 
     3                        3                                        1             1   1    1  1                                   
     7                        0                                        8             4   2    1  0            66                     
     7                        5                                        2             0   9    3  5            83                     
     0                        5                                        8             3   9    5  2            12                     
 
     X                        X                                        X             X   X    X  X            XX                     
     X                        X                                        X                      X               XX                     
     X                                                                 X                      X               X                      
                                                                       X                      X               X                      
                                                                       X                      X               X                      
                                                                       X                      X               X                      
                                                                       X                      X               X                      
                                                                       X                      X               X                      
                                                                       X                      X                                      
                                                                       X                      X                                      
                                                                       X                      X                                      
                                                                       X                      X                                      
                                                                       X                      X                                      
                                                                       X                                                             
                                                                       X                                                             
                                                                       X                                                             
                                                                       X                                                             
                                                                       X                                                             
                                                                       X                                                             
                                                                       X                                                             
 
 -------------------------------------------------------------------
 Center     Atomic                   Forces (Hartrees/Bohr)
 Number     Number              X              Y              Z
 -------------------------------------------------------------------
      1        8          -0.000015953   -0.000005502   -0.000002650
      2        6           0.000008334    0.000008232    0.000014687
      3        8          -0.000000109   -0.000003162   -0.000007005
      4        1           0.000007594    0.000000306   -0.000004278
      5        1           0.000000133    0.000000127   -0.000000754
 -------------------------------------------------------------------
 Cartesian Forces:  Max     0.000015953 RMS     0.000007213
 Force constants in Cartesian coordinates: 
                1             2             3             4             5 
      1  0.577191D+00
      2  0.122151D+00  0.115807D+00
      3 -0.107066D+00  0.101382D+00  0.391377D+00
      4 -0.222897D+00 -0.648619D-01 -0.408235D-01  0.639630D+00
      5 -0.733330D-01 -0.100697D+00 -0.473962D-01  0.721322D-01  0.300525D+00
      6 -0.630455D-01 -0.541377D-01 -0.152248D+00 -0.168183D+00  0.230980D+00
      7  0.245979D-01 -0.198146D-01 -0.489169D-01 -0.137609D+00  0.232263D-01
      8 -0.163455D-01  0.438278D-02 -0.501680D-01  0.276792D-01 -0.140296D+00
      9 -0.398244D-01 -0.474078D-01 -0.642394D-01  0.125091D+00 -0.198365D+00
     10 -0.348088D+00 -0.284544D-01  0.187689D+00 -0.438689D-01 -0.767511D-02
     11 -0.127579D-01 -0.248044D-01 -0.621044D-02 -0.236691D-01  0.249563D-02
     12  0.228878D+00  0.628497D-02 -0.184288D+00 -0.232156D-01 -0.427090D-03
     13 -0.308035D-01 -0.901993D-02  0.911761D-02 -0.235254D+00 -0.143503D-01
     14 -0.197145D-01  0.531179D-02  0.239294D-02 -0.112804D-01 -0.620278D-01
     15 -0.189414D-01 -0.612130D-02  0.939775D-02  0.107131D+00  0.152085D-01
                6             7             8             9            10 
      6  0.930529D+00
      7  0.113401D+00  0.990126D-01
      8 -0.201912D+00 -0.164049D-01  0.122409D+00
      9 -0.691789D+00 -0.991445D-01  0.259288D+00  0.787825D+00
     10  0.187528D-01  0.759858D-02  0.547340D-02  0.312361D-02  0.386168D+00
     11  0.123050D-01  0.540849D-02 -0.425242D-02  0.165064D-02  0.344661D-01
     12  0.223448D-01  0.295287D-02  0.159947D-02 -0.467777D-02 -0.205955D+00
     13  0.990744D-01  0.640036D-02 -0.402162D-03  0.107541D-01 -0.180960D-02
     14  0.127646D-01  0.758475D-02  0.177562D-01 -0.151657D-01 -0.380992D-02
     15 -0.108838D+00  0.317073D-01 -0.880750D-02 -0.271193D-01 -0.360995D-02
               11            12            13            14            15 
     11  0.227887D-01
     12 -0.408357D-02  0.167141D+00
     13 -0.344766D-02 -0.265933D-02  0.261467D+00
     14  0.377256D-02 -0.337378D-02  0.272201D-01  0.351872D-01
     15 -0.366163D-02 -0.520490D-03 -0.116287D+00  0.338194D-02  0.127080D+00
 Red2BG is reusing G-inverse.
 Force constants in internal coordinates: 
                1             2             3             4             5 
      1  0.408929D+00
      2  0.123574D-01  0.511499D+00
      3  0.893109D-01 -0.531747D-02  0.889188D+00
      4  0.142310D-01 -0.119225D-02  0.237980D-01  0.330104D+00
      5  0.327657D-01  0.269185D-01  0.341702D-02  0.379560D-02  0.170213D+00
      6  0.160607D-01 -0.112962D-01  0.355959D-01 -0.145374D-01 -0.306045D-01
      7  0.211297D-01  0.872352D-02 -0.447752D-01  0.126438D-01  0.267200D-01
      8 -0.371904D-01  0.257265D-02  0.917931D-02  0.189352D-02  0.388451D-02
      9 -0.161771D-05  0.880613D-05  0.340511D-05  0.000000D+00  0.232598D-05
     10  0.000000D+00  0.106091D-04 -0.201286D-05  0.406371D-05  0.111014D-05
     11  0.130744D-05  0.208310D-05 -0.631321D-05  0.445355D-05 -0.138272D-05
                6             7             8             9            10 
      6  0.181216D+00
      7 -0.941727D-01  0.122255D+00
      8 -0.870431D-01 -0.280819D-01  0.115125D+00
      9  0.221487D-05  0.000000D+00 -0.125797D-05  0.171089D-01
     10 -0.128235D-05  0.000000D+00  0.104453D-05  0.404606D-02  0.171440D-01
     11 -0.395281D-05  0.163160D-05  0.239230D-05 -0.150655D-01  0.151060D-01
               11 
     11  0.347971D-01
 Leave Link  716 at Sun Apr 26 22:22:49 2015, MaxMem=   524288000 cpu:         0.3
 (Enter /opt/g09/l9999.exe)
 1\1\GINC-REYNOLDS\Freq\RB971\6-311+G(d,p)\C1H2O2\PB556\26-Apr-2015\0\\
 #p rB971/6-311+G(d,p) Opt=(Tight, CalcAll) Freq GFInput Population=Non
 e Integral(Grid=UltraFine) Guess=MIX NoSymmetry\\freq-b971_64-18-6.gau
 \\0,1\O,1.9144,0.93234,1.87981\C,0.97531,0.35429,1.11058\O,1.14134,-0.
 0246,-0.0158\H,2.73065,0.98155,1.35916\H,0.03241,0.28202,1.67156\\Vers
 ion=ES64L-G09RevD.01\HF=-189.7703167\RMSD=3.518e-09\RMSF=7.213e-06\Zer
 oPoint=0.0338365\Thermal=0.0370047\Dipole=0.1821389,0.2489133,0.508165
 1\DipoleDeriv=-0.835669,-0.3516567,-0.5690951,-0.2517784,-0.5773205,-0
 .2871988,-0.3070589,-0.2077172,-0.6920654,1.1297496,0.3633726,0.281017
 6,0.363985,0.6215932,0.5932511,0.2826861,0.5937849,1.6181279,-0.534252
 7,0.0088461,0.1545194,-0.110093,-0.4974783,-0.2487671,-0.1575635,-0.34
 34688,-1.1451304,0.3015961,0.0001563,0.0476533,0.0126073,0.3496569,-0.
 039586,0.0802737,-0.029692,0.2190974,-0.061424,-0.0207182,0.0859049,-0
 .0147209,0.1035486,-0.0176992,0.1016626,-0.0129069,-0.0000295\Polar=21
 .0122937,2.4628157,15.2963255,0.0152716,4.2898213,24.158174\PG=C01 [X(
 C1H2O2)]\NImag=0\\0.57719125,0.12215090,0.11580694,-0.10706622,0.10138
 177,0.39137744,-0.22289741,-0.06486193,-0.04082349,0.63963010,-0.07333
 304,-0.10069708,-0.04739623,0.07213217,0.30052532,-0.06304554,-0.05413
 767,-0.15224769,-0.16818291,0.23097995,0.93052923,0.02459788,-0.019814
 58,-0.04891687,-0.13760939,0.02322628,0.11340123,0.09901257,-0.0163455
 5,0.00438278,-0.05016803,0.02767925,-0.14029605,-0.20191184,-0.0164049
 4,0.12240946,-0.03982436,-0.04740776,-0.06423944,0.12509117,-0.1983651
 2,-0.69178880,-0.09914450,0.25928790,0.78782536,-0.34808819,-0.0284544
 5,0.18768897,-0.04386894,-0.00767511,0.01875278,0.00759858,0.00547340,
 0.00312361,0.38616815,-0.01275785,-0.02480443,-0.00621044,-0.02366905,
 0.00249563,0.01230501,0.00540849,-0.00425242,0.00165064,0.03446607,0.0
 2278865,0.22887751,0.00628497,-0.18428806,-0.02321564,-0.00042709,0.02
 234484,0.00295287,0.00159947,-0.00467777,-0.20595541,-0.00408357,0.167
 14148,-0.03080353,-0.00901993,0.00911761,-0.23525436,-0.01435031,0.099
 07444,0.00640036,-0.00040216,0.01075408,-0.00180960,-0.00344766,-0.002
 65933,0.26146714,-0.01971446,0.00531179,0.00239294,-0.01128043,-0.0620
 2781,0.01276456,0.00758475,0.01775623,-0.01516566,-0.00380992,0.003772
 56,-0.00337378,0.02722006,0.03518723,-0.01894140,-0.00612130,0.0093977
 5,0.10713088,0.01520849,-0.10883759,0.03170727,-0.00880750,-0.02711935
 ,-0.00360995,-0.00366163,-0.00052049,-0.11628680,0.00338194,0.12707968
 \\0.00001595,0.00000550,0.00000265,-0.00000833,-0.00000823,-0.00001469
 ,0.00000011,0.00000316,0.00000701,-0.00000759,-0.00000031,0.00000428,-
 0.00000013,-0.00000013,0.00000075\\\@


 DIATOMIC MOLECULES ARE PECULIAR BECAUSE THEY ONLY HAVE TWO ENDS,
 AND THESE ENDS ARE VERY CLOSE TOGETHER.
 KLAUS RUEDENBERG, REV.MOD.PHYS. PG 176, 32, (1960)
 Leave Link 9999 at Sun Apr 26 22:22:49 2015, MaxMem=   524288000 cpu:         0.4
 Job cpu time:       0 days  0 hours  2 minutes 41.6 seconds.
 File lengths (MBytes):  RWF=      7 Int=      0 D2E=      0 Chk=      2 Scr=      1
 Normal termination of Gaussian 09 at Sun Apr 26 22:22:49 2015.
 (Enter /opt/g09/l1.exe)
 Link1:  Proceeding to internal job step number  2.
 ----------------------------------------------------------------------
 #P Geom=AllCheck Guess=TCheck SCRF=Check GenChk RB971/6-311+G(d,p) Fre
 q
 ----------------------------------------------------------------------
 1/7=10,10=4,29=7,30=1,38=1,40=1/1,3;
 2/12=2,15=1,40=1/2;
 3/5=4,6=6,7=111,11=2,14=-4,16=1,24=10,25=1,30=1,70=2,71=2,74=-20,75=-5,116=1,140=1/1,2,3;
 4/5=101/1;
 5/5=2,98=1/2;
 8/6=4,10=90,11=11/1;
 11/6=1,8=1,9=11,15=111,16=1,31=1/1,2,10;
 10/6=1,31=1/2;
 7/8=1,10=1,25=1,30=1/1,2,3,16;
 1/7=10,10=4,30=1/3;
 99//99;
 Leave Link    1 at Sun Apr 26 22:22:49 2015, MaxMem=   524288000 cpu:         0.4
 (Enter /opt/g09/l101.exe)
 Structure from the checkpoint file:  "/scratch/pb556/g09_run/add_hco//Gau-21468.chk"
 ---------------------
 freq-b971_64-18-6.gau
 ---------------------
 Charge =  0 Multiplicity = 1
 Redundant internal coordinates found in file.
 O,0,1.9144,0.93234,1.87981
 C,0,0.97531,0.35429,1.11058
 O,0,1.14134,-0.0246,-0.0158
 H,0,2.73065,0.98155,1.35916
 H,0,0.03241,0.28202,1.67156
 Recover connectivity data from disk.
 NAtoms=      5 NQM=        5 NQMF=       0 NMMI=      0 NMMIF=      0
                NMic=       0 NMicF=      0.
                    Isotopes and Nuclear Properties:
 (Nuclear quadrupole moments (NQMom) in fm**2, nuclear magnetic moments (NMagM)
  in nuclear magnetons)

  Atom         1           2           3           4           5
 IAtWgt=          16          12          16           1           1
 AtmWgt=  15.9949146  12.0000000  15.9949146   1.0078250   1.0078250
 NucSpn=           0           0           0           1           1
 AtZEff=  -5.6000000  -3.6000000  -5.6000000  -1.0000000  -1.0000000
 NQMom=    0.0000000   0.0000000   0.0000000   0.0000000   0.0000000
 NMagM=    0.0000000   0.0000000   0.0000000   2.7928460   2.7928460
 AtZNuc=   8.0000000   6.0000000   8.0000000   1.0000000   1.0000000
 Leave Link  101 at Sun Apr 26 22:22:49 2015, MaxMem=   524288000 cpu:         1.8
 (Enter /opt/g09/l103.exe)

 GradGradGradGradGradGradGradGradGradGradGradGradGradGradGradGradGradGrad
 Berny optimization.
 Initialization pass.
                           ----------------------------
                           !    Initial Parameters    !
                           ! (Angstroms and Degrees)  !
 --------------------------                            --------------------------
 ! Name  Definition              Value          Derivative Info.                !
 --------------------------------------------------------------------------------
 ! R1    R(1,2)                  1.3445         calculate D2E/DX2 analytically  !
 ! R2    R(1,4)                  0.9694         calculate D2E/DX2 analytically  !
 ! R3    R(2,3)                  1.1999         calculate D2E/DX2 analytically  !
 ! R4    R(2,5)                  1.0995         calculate D2E/DX2 analytically  !
 ! A1    A(2,1,4)              107.617          calculate D2E/DX2 analytically  !
 ! A2    A(1,2,3)              125.1808         calculate D2E/DX2 analytically  !
 ! A3    A(1,2,5)              109.592          calculate D2E/DX2 analytically  !
 ! A4    A(3,2,5)              125.2272         calculate D2E/DX2 analytically  !
 ! D1    D(4,1,2,3)             -0.0002         calculate D2E/DX2 analytically  !
 ! D2    D(4,1,2,5)            179.9996         calculate D2E/DX2 analytically  !
 ! D3    D(1,2,3,5)            179.9998         calculate D2E/DX2 analytically  !
 --------------------------------------------------------------------------------
 Trust Radius=3.00D-01 FncErr=1.00D-07 GrdErr=1.00D-07
 Number of steps in this run=      2 maximum allowed number of steps=      2.
 GradGradGradGradGradGradGradGradGradGradGradGradGradGradGradGradGradGrad

 Leave Link  103 at Sun Apr 26 22:22:49 2015, MaxMem=   524288000 cpu:         0.1
 (Enter /opt/g09/l202.exe)
                          Input orientation:                          
 ---------------------------------------------------------------------
 Center     Atomic      Atomic             Coordinates (Angstroms)
 Number     Number       Type             X           Y           Z
 ---------------------------------------------------------------------
      1          8           0        1.914400    0.932340    1.879810
      2          6           0        0.975310    0.354290    1.110580
      3          8           0        1.141340   -0.024600   -0.015800
      4          1           0        2.730650    0.981550    1.359160
      5          1           0        0.032410    0.282020    1.671560
 ---------------------------------------------------------------------
                    Distance matrix (angstroms):
                    1          2          3          4          5
     1  O    0.000000
     2  C    1.344525   0.000000
     3  O    2.259799   1.199940   0.000000
     4  H    0.969413   1.880549   2.329970   0.000000
     5  H    2.002042   1.099537   2.042284   2.804895   0.000000
 Symmetry turned off by external request.
 Stoichiometry    CH2O2
 Framework group  C1[X(CH2O2)]
 Deg. of freedom     9
 Full point group                 C1      NOp   1
 Rotational constants (GHZ):     77.8831785     12.0393264     10.4274343
 Leave Link  202 at Sun Apr 26 22:22:50 2015, MaxMem=   524288000 cpu:         0.0
 (Enter /opt/g09/l301.exe)
 Standard basis: 6-311+G(d,p) (5D, 7F)
 Ernie: Thresh=  0.10000D-02 Tol=  0.10000D-05 Strict=F.
 AO basis set in the form of general basis input (Overlap normalization):
      1 0
 S   6 1.00       0.000000000000
      0.8588500000D+04  0.1895150083D-02
      0.1297230000D+04  0.1438590063D-01
      0.2992960000D+03  0.7073200310D-01
      0.8737710000D+02  0.2400010105D+00
      0.2567890000D+02  0.5947970261D+00
      0.3740040000D+01  0.2808020123D+00
 SP   3 1.00       0.000000000000
      0.4211750000D+02  0.1138890124D+00  0.3651139738D-01
      0.9628370000D+01  0.9208111006D+00  0.2371529830D+00
      0.2853320000D+01 -0.3274470358D-02  0.8197019412D+00
 SP   1 1.00       0.000000000000
      0.9056610000D+00  0.1000000000D+01  0.1000000000D+01
 SP   1 1.00       0.000000000000
      0.2556110000D+00  0.1000000000D+01  0.1000000000D+01
 SP   1 1.00       0.000000000000
      0.8450000000D-01  0.1000000000D+01  0.1000000000D+01
 D   1 1.00       0.000000000000
      0.1292000000D+01  0.1000000000D+01
 ****
      2 0
 S   6 1.00       0.000000000000
      0.4563240000D+04  0.1966650249D-02
      0.6820240000D+03  0.1523060193D-01
      0.1549730000D+03  0.7612690966D-01
      0.4445530000D+02  0.2608010331D+00
      0.1302900000D+02  0.6164620782D+00
      0.1827730000D+01  0.2210060280D+00
 SP   3 1.00       0.000000000000
      0.2096420000D+02  0.1146600807D+00  0.4024869267D-01
      0.4803310000D+01  0.9199996477D+00  0.2375939567D+00
      0.1459330000D+01 -0.3030682134D-02  0.8158538515D+00
 SP   1 1.00       0.000000000000
      0.4834560000D+00  0.1000000000D+01  0.1000000000D+01
 SP   1 1.00       0.000000000000
      0.1455850000D+00  0.1000000000D+01  0.1000000000D+01
 SP   1 1.00       0.000000000000
      0.4380000000D-01  0.1000000000D+01  0.1000000000D+01
 D   1 1.00       0.000000000000
      0.6260000000D+00  0.1000000000D+01
 ****
      3 0
 S   6 1.00       0.000000000000
      0.8588500000D+04  0.1895150083D-02
      0.1297230000D+04  0.1438590063D-01
      0.2992960000D+03  0.7073200310D-01
      0.8737710000D+02  0.2400010105D+00
      0.2567890000D+02  0.5947970261D+00
      0.3740040000D+01  0.2808020123D+00
 SP   3 1.00       0.000000000000
      0.4211750000D+02  0.1138890124D+00  0.3651139738D-01
      0.9628370000D+01  0.9208111006D+00  0.2371529830D+00
      0.2853320000D+01 -0.3274470358D-02  0.8197019412D+00
 SP   1 1.00       0.000000000000
      0.9056610000D+00  0.1000000000D+01  0.1000000000D+01
 SP   1 1.00       0.000000000000
      0.2556110000D+00  0.1000000000D+01  0.1000000000D+01
 SP   1 1.00       0.000000000000
      0.8450000000D-01  0.1000000000D+01  0.1000000000D+01
 D   1 1.00       0.000000000000
      0.1292000000D+01  0.1000000000D+01
 ****
      4 0
 S   3 1.00       0.000000000000
      0.3386500000D+02  0.2549381454D-01
      0.5094790000D+01  0.1903731086D+00
      0.1158790000D+01  0.8521614860D+00
 S   1 1.00       0.000000000000
      0.3258400000D+00  0.1000000000D+01
 S   1 1.00       0.000000000000
      0.1027410000D+00  0.1000000000D+01
 P   1 1.00       0.000000000000
      0.7500000000D+00  0.1000000000D+01
 ****
      5 0
 S   3 1.00       0.000000000000
      0.3386500000D+02  0.2549381454D-01
      0.5094790000D+01  0.1903731086D+00
      0.1158790000D+01  0.8521614860D+00
 S   1 1.00       0.000000000000
      0.3258400000D+00  0.1000000000D+01
 S   1 1.00       0.000000000000
      0.1027410000D+00  0.1000000000D+01
 P   1 1.00       0.000000000000
      0.7500000000D+00  0.1000000000D+01
 ****

    78 basis functions,   124 primitive gaussians,    81 cartesian basis functions
    12 alpha electrons       12 beta electrons
       nuclear repulsion energy        70.1828738950 Hartrees.
 IExCor= 1614 DFT=T Ex+Corr=B971 ExCW=0 ScaHFX=  0.210000
 ScaDFX=  1.000000  1.000000  1.000000  1.000000 ScalE2=  1.000000  1.000000
 IRadAn=      5 IRanWt=     -1 IRanGd=            0 ICorTp=0 IEmpDi=  4
 NAtoms=    5 NActive=    5 NUniq=    5 SFac= 1.00D+00 NAtFMM=   60 NAOKFM=F Big=F
 Integral buffers will be    131072 words long.
 Raffenetti 2 integral format.
 Two-electron integral symmetry is turned off.
 Leave Link  301 at Sun Apr 26 22:22:50 2015, MaxMem=   524288000 cpu:         0.4
 (Enter /opt/g09/l302.exe)
 NPDir=0 NMtPBC=     1 NCelOv=     1 NCel=       1 NClECP=     1 NCelD=      1
         NCelK=      1 NCelE2=     1 NClLst=     1 CellRange=     0.0.
 One-electron integrals computed using PRISM.
 NBasis=    78 RedAO= T EigKep=  2.65D-03  NBF=    78
 NBsUse=    78 1.00D-06 EigRej= -1.00D+00 NBFU=    78
 Precomputing XC quadrature grid using
 IXCGrd= 4 IRadAn=           5 IRanWt=          -1 IRanGd=           0 AccXCQ= 0.00D+00.
 Generated NRdTot=       0 NPtTot=           0 NUsed=           0 NTot=          32
 NSgBfM=    81    81    81    81    81 MxSgAt=     5 MxSgA2=     5.
 Leave Link  302 at Sun Apr 26 22:22:50 2015, MaxMem=   524288000 cpu:         1.3
 (Enter /opt/g09/l303.exe)
 DipDrv:  MaxL=1.
 Leave Link  303 at Sun Apr 26 22:22:50 2015, MaxMem=   524288000 cpu:         0.3
 (Enter /opt/g09/l401.exe)
 Initial guess from the checkpoint file:  "/scratch/pb556/g09_run/add_hco//Gau-21468.chk"
 B after Tr=     0.000000    0.000000    0.000000
         Rot=    1.000000    0.000000    0.000000    0.000000 Ang=   0.00 deg.
 Guess basis will be translated and rotated to current coordinates.
 JPrj=2 DoOrth=T DoCkMO=T.
 Leave Link  401 at Sun Apr 26 22:22:50 2015, MaxMem=   524288000 cpu:         0.8
 (Enter /opt/g09/l502.exe)
 Closed shell SCF:
 Using DIIS extrapolation, IDIIS=  1040.
 Two-electron integral symmetry not used.
 Keep R1 ints in memory in canonical form, NReq=5691784.
 IVT=       39377 IEndB=       39377 NGot=   524288000 MDV=   519500803
 LenX=   519500803 LenY=   519493801
 Requested convergence on RMS density matrix=1.00D-08 within 128 cycles.
 Requested convergence on MAX density matrix=1.00D-06.
 Requested convergence on             energy=1.00D-06.
 No special actions if energy rises.
 FoFCou: FMM=F IPFlag=           0 FMFlag=           0 FMFlg1=           0
         NFxFlg=           0 DoJE=F BraDBF=F KetDBF=F FulRan=T
         wScrn=  0.000000 ICntrl=     600 IOpCl=  0 I1Cent=           0 NGrid=           0
         NMat0=    1 NMatS0=   3081 NMatT0=    0 NMatD0=    1 NMtDS0=    0 NMtDT0=    0
 Symmetry not used in FoFCou.

 Cycle   1  Pass 1  IDiag  1:
 E= -189.770316745061    
 DIIS: error= 3.15D-09 at cycle   1 NSaved=   1.
 NSaved= 1 IEnMin= 1 EnMin= -189.770316745061     IErMin= 1 ErrMin= 3.15D-09
 ErrMax= 3.15D-09  0.00D+00 EMaxC= 1.00D-01 BMatC= 9.49D-16 BMatP= 9.49D-16
 IDIUse=1 WtCom= 1.00D+00 WtEn= 0.00D+00
 Coeff-Com:  0.100D+01
 Coeff:      0.100D+01
 Gap=     0.289 Goal=   None    Shift=    0.000
 RMSDP=7.78D-10 MaxDP=7.58D-09              OVMax= 2.09D-08

 SCF Done:  E(RB971) =  -189.770316745     A.U. after    1 cycles
            NFock=  1  Conv=0.78D-09     -V/T= 2.0027
 KE= 1.892577323697D+02 PE=-5.874425389248D+02 EE= 1.382316159150D+02
 Leave Link  502 at Sun Apr 26 22:22:51 2015, MaxMem=   524288000 cpu:         3.6
 (Enter /opt/g09/l801.exe)
 DoSCS=F DFT=T ScalE2(SS,OS)=  1.000000  1.000000
 Range of M.O.s used for correlation:     1    78
 NBasis=    78 NAE=    12 NBE=    12 NFC=     0 NFV=     0
 NROrb=     78 NOA=    12 NOB=    12 NVA=    66 NVB=    66
 Leave Link  801 at Sun Apr 26 22:22:51 2015, MaxMem=   524288000 cpu:         0.3
 (Enter /opt/g09/l1101.exe)
 Using compressed storage, NAtomX=     5.
 Will process      6 centers per pass.
 Leave Link 1101 at Sun Apr 26 22:22:51 2015, MaxMem=   524288000 cpu:         1.2
 (Enter /opt/g09/l1102.exe)
 Symmetrizing basis deriv contribution to polar:
 IMax=3 JMax=2 DiffMx= 0.00D+00
 Leave Link 1102 at Sun Apr 26 22:22:51 2015, MaxMem=   524288000 cpu:         0.3
 (Enter /opt/g09/l1110.exe)
 Forming Gx(P) for the SCF density, NAtomX=     5.
 Integral derivatives from FoFJK, PRISM(SPDF).
 Do as many integral derivatives as possible in FoFJK.
 G2DrvN: MDV=     524287856.
 G2DrvN: will do     6 centers at a time, making    1 passes.
 Calling FoFCou, ICntrl=  3107 FMM=F I1Cent=   0 AccDes= 0.00D+00.
 FoFJK:  IHMeth= 1 ICntrl=    3107 DoSepK=F KAlg= 0 I1Cent=   0 FoldK=F
 IRaf=         0 NMat=   1 IRICut=       1 DoRegI=T DoRafI=F ISym2E= 0.
 FoFCou: FMM=F IPFlag=           0 FMFlag=      100000 FMFlg1=           0
         NFxFlg=           0 DoJE=F BraDBF=F KetDBF=F FulRan=T
         wScrn=  0.000000 ICntrl=    3107 IOpCl=  0 I1Cent=           0 NGrid=           0
         NMat0=    1 NMatS0=      1 NMatT0=    0 NMatD0=    1 NMtDS0=    0 NMtDT0=    0
 Symmetry not used in FoFCou.
 End of G2Drv F.D. properties file   721 does not exist.
 End of G2Drv F.D. properties file   722 does not exist.
 End of G2Drv F.D. properties file   788 does not exist.
 Leave Link 1110 at Sun Apr 26 22:22:54 2015, MaxMem=   524288000 cpu:        26.4
 (Enter /opt/g09/l1002.exe)
 Minotr:  Closed shell wavefunction.
          IDoAtm=11111
          Direct CPHF calculation.
          Differentiating once with respect to electric field.
                with respect to dipole field.
          Differentiating once with respect to nuclear coordinates.
          Requested convergence is 1.0D-08 RMS, and 1.0D-07 maximum.
          Secondary convergence is 1.0D-12 RMS, and 1.0D-12 maximum.
          NewPWx=T KeepS1=F KeepF1=F KeepIn=T MapXYZ=F SortEE=F KeepMc=T.
          MDV=     524287868 using IRadAn=       1.
 Generate precomputed XC quadrature information.
 Keep R1 ints in memory in canonical form, NReq=5651465.
 FoFCou: FMM=F IPFlag=           0 FMFlag=           0 FMFlg1=           0
         NFxFlg=           0 DoJE=F BraDBF=F KetDBF=F FulRan=T
         wScrn=  0.000000 ICntrl=     600 IOpCl=  0 I1Cent=           0 NGrid=           0
         NMat0=    1 NMatS0=   3081 NMatT0=    0 NMatD0=    1 NMtDS0=    0 NMtDT0=    0
 Symmetry not used in FoFCou.
          Solving linear equations simultaneously, MaxMat=       0.
          There are    18 degrees of freedom in the 1st order CPHF.  IDoFFX=6 NUNeed=     3.
     15 vectors produced by pass  0 Test12= 4.40D-15 5.56D-09 XBig12= 1.61D+01 2.25D+00.
 AX will form    15 AO Fock derivatives at one time.
     15 vectors produced by pass  1 Test12= 4.40D-15 5.56D-09 XBig12= 1.98D+00 3.67D-01.
     15 vectors produced by pass  2 Test12= 4.40D-15 5.56D-09 XBig12= 8.99D-03 2.29D-02.
     15 vectors produced by pass  3 Test12= 4.40D-15 5.56D-09 XBig12= 3.85D-05 1.53D-03.
     15 vectors produced by pass  4 Test12= 4.40D-15 5.56D-09 XBig12= 7.77D-08 7.98D-05.
     13 vectors produced by pass  5 Test12= 4.40D-15 5.56D-09 XBig12= 1.76D-10 3.29D-06.
      3 vectors produced by pass  6 Test12= 4.40D-15 5.56D-09 XBig12= 2.35D-13 8.38D-08.
 InvSVY:  IOpt=1 It=  1 EMax= 1.78D-15
 Solved reduced A of dimension    91 with    15 vectors.
 FullF1:  Do perturbations    1 to     3.
 Isotropic polarizability for W=    0.000000       20.16 Bohr**3.
 End of Minotr F.D. properties file   721 does not exist.
 End of Minotr F.D. properties file   722 does not exist.
 End of Minotr F.D. properties file   788 does not exist.
 Leave Link 1002 at Sun Apr 26 22:22:59 2015, MaxMem=   524288000 cpu:        34.0
 (Enter /opt/g09/l701.exe)
 Compute integral second derivatives.
 ... and contract with generalized density number  0.
 Leave Link  701 at Sun Apr 26 22:22:59 2015, MaxMem=   524288000 cpu:         2.5
 (Enter /opt/g09/l702.exe)
 L702 exits ... SP integral derivatives will be done elsewhere.
 Leave Link  702 at Sun Apr 26 22:22:59 2015, MaxMem=   524288000 cpu:         0.3
 (Enter /opt/g09/l703.exe)
 Compute integral second derivatives, UseDBF=F ICtDFT=           0.
 Integral derivatives from FoFJK, PRISM(SPDF).
 Calling FoFJK, ICntrl=    100127 FMM=F ISym2X=0 I1Cent= 0 IOpClX= 0 NMat=1 NMatS=1 NMatT=0.
 FoFJK:  IHMeth= 1 ICntrl=  100127 DoSepK=F KAlg= 0 I1Cent=   0 FoldK=F
 IRaf=         0 NMat=   1 IRICut=       1 DoRegI=T DoRafI=F ISym2E= 0.
 FoFCou: FMM=F IPFlag=           0 FMFlag=      100000 FMFlg1=         800
         NFxFlg=           0 DoJE=F BraDBF=F KetDBF=F FulRan=T
         wScrn=  0.000000 ICntrl=  100127 IOpCl=  0 I1Cent=           0 NGrid=           0
         NMat0=    1 NMatS0=      1 NMatT0=    0 NMatD0=    1 NMtDS0=    0 NMtDT0=    0
 Symmetry not used in FoFCou.
 Leave Link  703 at Sun Apr 26 22:23:07 2015, MaxMem=   524288000 cpu:        58.5
 (Enter /opt/g09/l716.exe)
 Dipole        = 1.82138948D-01 2.48913142D-01 5.08164945D-01
 Polarizability= 2.10122942D+01 2.46281585D+00 1.52963258D+01
                 1.52715455D-02 4.28982146D+00 2.41581746D+01
 Full mass-weighted force constant matrix:
 Low frequencies ---   -6.3748   -0.0016   -0.0008   -0.0006    3.6797    5.5549
 Low frequencies ---  632.0091  680.5027 1051.9180
 Diagonal vibrational polarizability:
        6.7604630       9.3610374       5.4943977
 Harmonic frequencies (cm**-1), IR intensities (KM/Mole), Raman scattering
 activities (A**4/AMU), depolarization ratios for plane and unpolarized
 incident light, reduced masses (AMU), force constants (mDyne/A),
 and normal coordinates:
                      1                      2                      3
                      A                      A                      A
 Frequencies --    632.0091               680.5027              1051.9180
 Red. masses --      3.4618                 1.2583                 1.5752
 Frc consts  --      0.8147                 0.3433                 1.0269
 IR Inten    --     45.3423               157.9724                 2.6457
  Atom  AN      X      Y      Z        X      Y      Z        X      Y      Z
     1   8     0.01   0.08   0.20    -0.03   0.08  -0.03     0.01  -0.03   0.01
     2   6     0.20   0.01  -0.13     0.02  -0.08   0.03    -0.06   0.19  -0.07
     3   8    -0.20  -0.12  -0.15    -0.01   0.04  -0.02     0.02  -0.05   0.02
     4   1     0.32   0.37   0.72     0.27  -0.87   0.33     0.04  -0.12   0.05
     5   1     0.24   0.06  -0.04     0.05  -0.17   0.07     0.26  -0.87   0.33
                      4                      5                      6
                      A                      A                      A
 Frequencies --   1134.5649              1298.6979              1402.8336
 Red. masses --      3.3517                 1.7475                 1.1331
 Frc consts  --      2.5420                 1.7365                 1.3138
 IR Inten    --    269.1874                12.2488                 2.2829
  Atom  AN      X      Y      Z        X      Y      Z        X      Y      Z
     1   8     0.20   0.14   0.21    -0.08  -0.01   0.04     0.03  -0.01  -0.04
     2   6    -0.22  -0.09  -0.06     0.21   0.08   0.04     0.02   0.01   0.01
     3   8     0.01  -0.04  -0.10    -0.05  -0.02  -0.01    -0.03   0.02   0.07
     4   1    -0.28  -0.32  -0.61    -0.47  -0.40  -0.66     0.17   0.14   0.22
     5   1    -0.35  -0.23  -0.32     0.03  -0.11  -0.32    -0.38  -0.41  -0.76
                      7                      8                      9
                      A                      A                      A
 Frequencies --   1827.5629              3054.5363              3769.9011
 Red. masses --      8.3377                 1.0923                 1.0640
 Frc consts  --     16.4075                 6.0047                 8.9096
 IR Inten    --    399.4579                44.2245                61.2691
  Atom  AN      X      Y      Z        X      Y      Z        X      Y      Z
     1   8     0.00  -0.02  -0.06     0.00   0.00   0.00    -0.05   0.00   0.03
     2   6    -0.06   0.21   0.60     0.07   0.00  -0.05     0.00   0.00   0.00
     3   8     0.06  -0.14  -0.41     0.00   0.00   0.00     0.00   0.00   0.00
     4   1     0.19   0.16   0.28     0.01   0.00  -0.02     0.85   0.06  -0.52
     5   1    -0.48  -0.16  -0.04    -0.86  -0.07   0.49     0.01   0.00  -0.01

 -------------------
 - Thermochemistry -
 -------------------
 Temperature   298.150 Kelvin.  Pressure   1.00000 Atm.
 Atom     1 has atomic number  8 and mass  15.99491
 Atom     2 has atomic number  6 and mass  12.00000
 Atom     3 has atomic number  8 and mass  15.99491
 Atom     4 has atomic number  1 and mass   1.00783
 Atom     5 has atomic number  1 and mass   1.00783
 Molecular mass:    46.00548 amu.
 Principal axes and moments of inertia in atomic units:
                           1         2         3
     Eigenvalues --    23.17241 149.90384 173.07625
           X            0.37933   0.88415  -0.27274
           Y            0.42775   0.09381   0.89902
           Z            0.82045  -0.45769  -0.34261
 This molecule is an asymmetric top.
 Rotational symmetry number  1.
 Rotational temperatures (Kelvin)      3.73780     0.57780     0.50044
 Rotational constants (GHZ):          77.88318    12.03933    10.42743
 Zero-point vibrational energy      88837.8 (Joules/Mol)
                                   21.23275 (Kcal/Mol)
 Vibrational temperatures:    909.32   979.09  1513.47  1632.38  1868.53
          (Kelvin)           2018.36  2629.45  4394.79  5424.04
 
 Zero-point correction=                           0.033837 (Hartree/Particle)
 Thermal correction to Energy=                    0.037005
 Thermal correction to Enthalpy=                  0.037949
 Thermal correction to Gibbs Free Energy=         0.009757
 Sum of electronic and zero-point Energies=           -189.736480
 Sum of electronic and thermal Energies=              -189.733312
 Sum of electronic and thermal Enthalpies=            -189.732368
 Sum of electronic and thermal Free Energies=         -189.760559
 
                     E (Thermal)             CV                S
                      KCal/Mol        Cal/Mol-Kelvin    Cal/Mol-Kelvin
 Total                   23.221              8.645             59.334
 Electronic               0.000              0.000              0.000
 Translational            0.889              2.981             37.404
 Rotational               0.889              2.981             21.024
 Vibrational             21.443              2.684              0.906
                       Q            Log10(Q)             Ln(Q)
 Total Bot       0.325032D-04         -4.488074        -10.334172
 Total V=0       0.119021D+12         11.075623         25.502565
 Vib (Bot)       0.301925D-15        -15.520100        -35.736352
 Vib (V=0)       0.110560D+01          0.043597          0.100385
 Electronic      0.100000D+01          0.000000          0.000000
 Translational   0.122651D+08          7.088670         16.322265
 Rotational      0.877722D+04          3.943357          9.079915
 
                                                        freq-b971_64-18-6.gau
                                                             IR Spectrum
 
     3                        3                                        1             1   1    1  1                                   
     7                        0                                        8             4   2    1  0            66                     
     7                        5                                        2             0   9    3  5            83                     
     0                        5                                        8             3   9    5  2            12                     
 
     X                        X                                        X             X   X    X  X            XX                     
     X                        X                                        X                      X               XX                     
     X                                                                 X                      X               X                      
                                                                       X                      X               X                      
                                                                       X                      X               X                      
                                                                       X                      X               X                      
                                                                       X                      X               X                      
                                                                       X                      X               X                      
                                                                       X                      X                                      
                                                                       X                      X                                      
                                                                       X                      X                                      
                                                                       X                      X                                      
                                                                       X                      X                                      
                                                                       X                                                             
                                                                       X                                                             
                                                                       X                                                             
                                                                       X                                                             
                                                                       X                                                             
                                                                       X                                                             
                                                                       X                                                             
 
 -------------------------------------------------------------------
 Center     Atomic                   Forces (Hartrees/Bohr)
 Number     Number              X              Y              Z
 -------------------------------------------------------------------
      1        8          -0.000015952   -0.000005494   -0.000002637
      2        6           0.000008333    0.000008220    0.000014662
      3        8          -0.000000110   -0.000003159   -0.000006995
      4        1           0.000007599    0.000000305   -0.000004280
      5        1           0.000000129    0.000000127   -0.000000749
 -------------------------------------------------------------------
 Cartesian Forces:  Max     0.000015952 RMS     0.000007208
 Force constants in Cartesian coordinates: 
                1             2             3             4             5 
      1  0.577191D+00
      2  0.122151D+00  0.115807D+00
      3 -0.107066D+00  0.101382D+00  0.391377D+00
      4 -0.222897D+00 -0.648619D-01 -0.408235D-01  0.639630D+00
      5 -0.733330D-01 -0.100697D+00 -0.473962D-01  0.721322D-01  0.300525D+00
      6 -0.630455D-01 -0.541377D-01 -0.152248D+00 -0.168183D+00  0.230980D+00
      7  0.245979D-01 -0.198146D-01 -0.489169D-01 -0.137609D+00  0.232263D-01
      8 -0.163455D-01  0.438278D-02 -0.501680D-01  0.276792D-01 -0.140296D+00
      9 -0.398244D-01 -0.474078D-01 -0.642394D-01  0.125091D+00 -0.198365D+00
     10 -0.348088D+00 -0.284544D-01  0.187689D+00 -0.438689D-01 -0.767511D-02
     11 -0.127578D-01 -0.248044D-01 -0.621044D-02 -0.236691D-01  0.249563D-02
     12  0.228878D+00  0.628496D-02 -0.184288D+00 -0.232156D-01 -0.427089D-03
     13 -0.308035D-01 -0.901993D-02  0.911761D-02 -0.235254D+00 -0.143503D-01
     14 -0.197145D-01  0.531179D-02  0.239294D-02 -0.112804D-01 -0.620278D-01
     15 -0.189414D-01 -0.612130D-02  0.939775D-02  0.107131D+00  0.152085D-01
                6             7             8             9            10 
      6  0.930529D+00
      7  0.113401D+00  0.990126D-01
      8 -0.201912D+00 -0.164049D-01  0.122409D+00
      9 -0.691789D+00 -0.991445D-01  0.259288D+00  0.787825D+00
     10  0.187528D-01  0.759858D-02  0.547340D-02  0.312361D-02  0.386168D+00
     11  0.123050D-01  0.540849D-02 -0.425242D-02  0.165063D-02  0.344661D-01
     12  0.223448D-01  0.295287D-02  0.159947D-02 -0.467777D-02 -0.205955D+00
     13  0.990744D-01  0.640036D-02 -0.402162D-03  0.107541D-01 -0.180960D-02
     14  0.127646D-01  0.758476D-02  0.177562D-01 -0.151657D-01 -0.380992D-02
     15 -0.108838D+00  0.317073D-01 -0.880750D-02 -0.271193D-01 -0.360995D-02
               11            12            13            14            15 
     11  0.227886D-01
     12 -0.408357D-02  0.167141D+00
     13 -0.344766D-02 -0.265933D-02  0.261467D+00
     14  0.377256D-02 -0.337378D-02  0.272201D-01  0.351872D-01
     15 -0.366163D-02 -0.520490D-03 -0.116287D+00  0.338194D-02  0.127080D+00
 FormGI is forming the generalized inverse of G from B-inverse, IUseBI=4.
 Force constants in internal coordinates: 
                1             2             3             4             5 
      1  0.408929D+00
      2  0.123574D-01  0.511499D+00
      3  0.893109D-01 -0.531747D-02  0.889188D+00
      4  0.142310D-01 -0.119225D-02  0.237980D-01  0.330104D+00
      5  0.327657D-01  0.269185D-01  0.341702D-02  0.379560D-02  0.170213D+00
      6  0.160607D-01 -0.112962D-01  0.355959D-01 -0.145374D-01 -0.306045D-01
      7  0.211297D-01  0.872352D-02 -0.447752D-01  0.126438D-01  0.267200D-01
      8 -0.371904D-01  0.257265D-02  0.917931D-02  0.189352D-02  0.388451D-02
      9 -0.161836D-05  0.880439D-05  0.340492D-05  0.000000D+00  0.232496D-05
     10  0.000000D+00  0.106073D-04 -0.201256D-05  0.406401D-05  0.110961D-05
     11  0.130845D-05  0.208301D-05 -0.631265D-05  0.445374D-05 -0.138216D-05
                6             7             8             9            10 
      6  0.181216D+00
      7 -0.941727D-01  0.122255D+00
      8 -0.870431D-01 -0.280819D-01  0.115125D+00
      9  0.221337D-05  0.000000D+00 -0.125772D-05  0.171089D-01
     10 -0.128330D-05  0.000000D+00  0.104480D-05  0.404606D-02  0.171440D-01
     11 -0.395218D-05  0.163094D-05  0.239233D-05 -0.150655D-01  0.151060D-01
               11 
     11  0.347971D-01
 Leave Link  716 at Sun Apr 26 22:23:07 2015, MaxMem=   524288000 cpu:         0.3
 (Enter /opt/g09/l103.exe)

 GradGradGradGradGradGradGradGradGradGradGradGradGradGradGradGradGradGrad
 Berny optimization.
 Red2BG is reusing G-inverse.
 Internal  Forces:  Max     0.000011958 RMS     0.000005041
 Search for a local minimum.
 Step number   1 out of a maximum of    2
 All quantities printed in internal units (Hartrees-Bohrs-Radians)
 Second derivative matrix not updated -- analytic derivatives used.
 The second derivative matrix:
                          R1        R2        R3        R4        A1
           R1           0.40893
           R2           0.01236   0.51150
           R3           0.08931  -0.00532   0.88919
           R4           0.01423  -0.00119   0.02380   0.33010
           A1           0.03277   0.02692   0.00342   0.00380   0.17021
           A2           0.01606  -0.01130   0.03560  -0.01454  -0.03060
           A3           0.02113   0.00872  -0.04478   0.01264   0.02672
           A4          -0.03719   0.00257   0.00918   0.00189   0.00388
           D1           0.00000   0.00001   0.00000   0.00000   0.00000
           D2           0.00000   0.00001   0.00000   0.00000   0.00000
           D3           0.00000   0.00000  -0.00001   0.00000   0.00000
                          A2        A3        A4        D1        D2
           A2           0.18122
           A3          -0.09417   0.12225
           A4          -0.08704  -0.02808   0.11512
           D1           0.00000   0.00000   0.00000   0.01711
           D2           0.00000   0.00000   0.00000   0.00405   0.01714
           D3           0.00000   0.00000   0.00000  -0.01507   0.01511
                          D3
           D3           0.03480
 ITU=  0
     Eigenvalues ---    0.02117   0.04788   0.13268   0.15433   0.27270
     Eigenvalues ---    0.33513   0.40575   0.51696   0.91097
 Angle between quadratic step and forces=  27.33 degrees.
 Linear search not attempted -- first point.
 Iteration  1 RMS(Cart)=  0.00000851 RMS(Int)=  0.00000000
 Iteration  2 RMS(Cart)=  0.00000000 RMS(Int)=  0.00000000
 ITry= 1 IFail=0 DXMaxC= 1.69D-05 DCOld= 1.00D+10 DXMaxT= 3.00D-01 DXLimC= 3.00D+00 Rises=F
 Variable       Old X    -DE/DX   Delta X   Delta X   Delta X     New X
                                 (Linear)    (Quad)   (Total)
    R1        2.54078  -0.00001   0.00000  -0.00004  -0.00004   2.54075
    R2        1.83193   0.00001   0.00000   0.00002   0.00002   1.83194
    R3        2.26756   0.00001   0.00000   0.00001   0.00001   2.26757
    R4        2.07782   0.00000   0.00000   0.00000   0.00000   2.07782
    A1        1.87827   0.00000   0.00000   0.00001   0.00001   1.87828
    A2        2.18482   0.00000   0.00000   0.00001   0.00001   2.18483
    A3        1.91274   0.00000   0.00000   0.00001   0.00001   1.91275
    A4        2.18563   0.00000   0.00000  -0.00002  -0.00002   2.18561
    D1        0.00000   0.00000   0.00000  -0.00001  -0.00001  -0.00001
    D2        3.14159   0.00000   0.00000  -0.00001  -0.00001   3.14158
    D3        3.14159   0.00000   0.00000   0.00000   0.00000   3.14159
         Item               Value     Threshold  Converged?
 Maximum Force            0.000012     0.000015     YES
 RMS     Force            0.000005     0.000010     YES
 Maximum Displacement     0.000017     0.000060     YES
 RMS     Displacement     0.000009     0.000040     YES
 Predicted change in Energy=-3.565079D-10
 Optimization completed.
    -- Stationary point found.
                           ----------------------------
                           !   Optimized Parameters   !
                           ! (Angstroms and Degrees)  !
 --------------------------                            --------------------------
 ! Name  Definition              Value          Derivative Info.                !
 --------------------------------------------------------------------------------
 ! R1    R(1,2)                  1.3445         -DE/DX =    0.0                 !
 ! R2    R(1,4)                  0.9694         -DE/DX =    0.0                 !
 ! R3    R(2,3)                  1.1999         -DE/DX =    0.0                 !
 ! R4    R(2,5)                  1.0995         -DE/DX =    0.0                 !
 ! A1    A(2,1,4)              107.617          -DE/DX =    0.0                 !
 ! A2    A(1,2,3)              125.1808         -DE/DX =    0.0                 !
 ! A3    A(1,2,5)              109.592          -DE/DX =    0.0                 !
 ! A4    A(3,2,5)              125.2272         -DE/DX =    0.0                 !
 ! D1    D(4,1,2,3)             -0.0002         -DE/DX =    0.0                 !
 ! D2    D(4,1,2,5)            179.9996         -DE/DX =    0.0                 !
 ! D3    D(1,2,3,5)            179.9998         -DE/DX =    0.0                 !
 --------------------------------------------------------------------------------
 GradGradGradGradGradGradGradGradGradGradGradGradGradGradGradGradGradGrad

 Leave Link  103 at Sun Apr 26 22:23:07 2015, MaxMem=   524288000 cpu:         0.0
 (Enter /opt/g09/l9999.exe)
 1\1\GINC-REYNOLDS\Freq\RB971\6-311+G(d,p)\C1H2O2\PB556\26-Apr-2015\0\\
 #P Geom=AllCheck Guess=TCheck SCRF=Check GenChk RB971/6-311+G(d,p) Fre
 q\\freq-b971_64-18-6.gau\\0,1\O,1.9144,0.93234,1.87981\C,0.97531,0.354
 29,1.11058\O,1.14134,-0.0246,-0.0158\H,2.73065,0.98155,1.35916\H,0.032
 41,0.28202,1.67156\\Version=ES64L-G09RevD.01\HF=-189.7703167\RMSD=7.78
 1e-10\RMSF=7.208e-06\ZeroPoint=0.0338365\Thermal=0.0370047\Dipole=0.18
 21389,0.2489131,0.5081649\DipoleDeriv=-0.835669,-0.3516567,-0.5690951,
 -0.2517784,-0.5773204,-0.2871988,-0.3070589,-0.2077172,-0.6920654,1.12
 97495,0.3633725,0.2810176,0.363985,0.6215931,0.593251,0.2826861,0.5937
 848,1.6181278,-0.5342527,0.0088461,0.1545194,-0.110093,-0.4974783,-0.2
 487671,-0.1575635,-0.3434688,-1.1451303,0.3015961,0.0001563,0.0476532,
 0.0126073,0.3496569,-0.0395859,0.0802737,-0.029692,0.2190974,-0.061424
 ,-0.0207182,0.0859049,-0.0147209,0.1035486,-0.0176992,0.1016626,-0.012
 9069,-0.0000295\Polar=21.0122942,2.4628158,15.2963258,0.0152715,4.2898
 215,24.1581746\PG=C01 [X(C1H2O2)]\NImag=0\\0.57719125,0.12215089,0.115
 80694,-0.10706621,0.10138177,0.39137744,-0.22289741,-0.06486193,-0.040
 82350,0.63963009,-0.07333304,-0.10069709,-0.04739624,0.07213217,0.3005
 2531,-0.06304554,-0.05413768,-0.15224768,-0.16818291,0.23097995,0.9305
 2921,0.02459788,-0.01981458,-0.04891687,-0.13760938,0.02322628,0.11340
 123,0.09901256,-0.01634555,0.00438278,-0.05016803,0.02767925,-0.140296
 04,-0.20191184,-0.01640494,0.12240945,-0.03982436,-0.04740776,-0.06423
 944,0.12509117,-0.19836512,-0.69178878,-0.09914450,0.25928790,0.787825
 35,-0.34808819,-0.02845445,0.18768897,-0.04386894,-0.00767511,0.018752
 78,0.00759858,0.00547340,0.00312361,0.38616815,-0.01275785,-0.02480443
 ,-0.00621044,-0.02366905,0.00249563,0.01230501,0.00540849,-0.00425242,
 0.00165063,0.03446607,0.02278865,0.22887751,0.00628496,-0.18428805,-0.
 02321564,-0.00042709,0.02234484,0.00295287,0.00159947,-0.00467777,-0.2
 0595541,-0.00408357,0.16714148,-0.03080353,-0.00901993,0.00911761,-0.2
 3525436,-0.01435031,0.09907444,0.00640036,-0.00040216,0.01075409,-0.00
 180960,-0.00344766,-0.00265933,0.26146714,-0.01971446,0.00531179,0.002
 39294,-0.01128043,-0.06202781,0.01276456,0.00758476,0.01775623,-0.0151
 6566,-0.00380992,0.00377256,-0.00337378,0.02722006,0.03518723,-0.01894
 140,-0.00612130,0.00939775,0.10713088,0.01520849,-0.10883758,0.0317072
 7,-0.00880750,-0.02711935,-0.00360995,-0.00366163,-0.00052049,-0.11628
 680,0.00338194,0.12707967\\0.00001595,0.00000549,0.00000264,-0.0000083
 3,-0.00000822,-0.00001466,0.00000011,0.00000316,0.00000700,-0.00000760
 ,-0.00000031,0.00000428,-0.00000013,-0.00000013,0.00000075\\\@


 THEORY:  SUPPOSITION WHICH HAS SCIENTIFIC BASIS,
          BUT NOT EXPERIMENTALLY PROVEN.
 FACT:    A THEORY WHICH HAS BEEN PROVEN BY ENOUGH 
          MONEY TO PAY FOR THE EXPERIMENTS.

                          --  THE WIZARD OF ID
 Job cpu time:       0 days  0 hours  2 minutes 17.1 seconds.
 File lengths (MBytes):  RWF=      7 Int=      0 D2E=      0 Chk=      2 Scr=      1
 Normal termination of Gaussian 09 at Sun Apr 26 22:23:07 2015.
