 Entering Gaussian System, Link 0=g09
 Input=0_0freq-b971_6812-38-0.gau
 Output=0_0freq-b971_6812-38-0.log
 Initial command:
 /opt/g09/l1.exe "/scratch/pb556/g09_run/add_hco//Gau-11394.inp" -scrdir="/scratch/pb556/g09_run/add_hco//"
 Entering Link 1 = /opt/g09/l1.exe PID=     11403.
  
 Copyright (c) 1988,1990,1992,1993,1995,1998,2003,2009,2013,
            Gaussian, Inc.  All Rights Reserved.
  
 This is part of the Gaussian(R) 09 program.  It is based on
 the Gaussian(R) 03 system (copyright 2003, Gaussian, Inc.),
 the Gaussian(R) 98 system (copyright 1998, Gaussian, Inc.),
 the Gaussian(R) 94 system (copyright 1995, Gaussian, Inc.),
 the Gaussian 92(TM) system (copyright 1992, Gaussian, Inc.),
 the Gaussian 90(TM) system (copyright 1990, Gaussian, Inc.),
 the Gaussian 88(TM) system (copyright 1988, Gaussian, Inc.),
 the Gaussian 86(TM) system (copyright 1986, Carnegie Mellon
 University), and the Gaussian 82(TM) system (copyright 1983,
 Carnegie Mellon University). Gaussian is a federally registered
 trademark of Gaussian, Inc.
  
 This software contains proprietary and confidential information,
 including trade secrets, belonging to Gaussian, Inc.
  
 This software is provided under written license and may be
 used, copied, transmitted, or stored only in accord with that
 written license.
  
 The following legend is applicable only to US Government
 contracts under FAR:
  
                    RESTRICTED RIGHTS LEGEND
  
 Use, reproduction and disclosure by the US Government is
 subject to restrictions as set forth in subparagraphs (a)
 and (c) of the Commercial Computer Software - Restricted
 Rights clause in FAR 52.227-19.
  
 Gaussian, Inc.
 340 Quinnipiac St., Bldg. 40, Wallingford CT 06492
  
  
 ---------------------------------------------------------------
 Warning -- This program may not be used in any manner that
 competes with the business of Gaussian, Inc. or will provide
 assistance to any competitor of Gaussian, Inc.  The licensee
 of this program is prohibited from giving any competitor of
 Gaussian, Inc. access to this program.  By using this program,
 the user acknowledges that Gaussian, Inc. is engaged in the
 business of creating and licensing software in the field of
 computational chemistry and represents and warrants to the
 licensee that it is not a competitor of Gaussian, Inc. and that
 it will not use this program in any manner prohibited above.
 ---------------------------------------------------------------
  

 Cite this work as:
 Gaussian 09, Revision D.01,
 M. J. Frisch, G. W. Trucks, H. B. Schlegel, G. E. Scuseria, 
 M. A. Robb, J. R. Cheeseman, G. Scalmani, V. Barone, B. Mennucci, 
 G. A. Petersson, H. Nakatsuji, M. Caricato, X. Li, H. P. Hratchian, 
 A. F. Izmaylov, J. Bloino, G. Zheng, J. L. Sonnenberg, M. Hada, 
 M. Ehara, K. Toyota, R. Fukuda, J. Hasegawa, M. Ishida, T. Nakajima, 
 Y. Honda, O. Kitao, H. Nakai, T. Vreven, J. A. Montgomery, Jr., 
 J. E. Peralta, F. Ogliaro, M. Bearpark, J. J. Heyd, E. Brothers, 
 K. N. Kudin, V. N. Staroverov, T. Keith, R. Kobayashi, J. Normand, 
 K. Raghavachari, A. Rendell, J. C. Burant, S. S. Iyengar, J. Tomasi, 
 M. Cossi, N. Rega, J. M. Millam, M. Klene, J. E. Knox, J. B. Cross, 
 V. Bakken, C. Adamo, J. Jaramillo, R. Gomperts, R. E. Stratmann, 
 O. Yazyev, A. J. Austin, R. Cammi, C. Pomelli, J. W. Ochterski, 
 R. L. Martin, K. Morokuma, V. G. Zakrzewski, G. A. Voth, 
 P. Salvador, J. J. Dannenberg, S. Dapprich, A. D. Daniels, 
 O. Farkas, J. B. Foresman, J. V. Ortiz, J. Cioslowski, 
 and D. J. Fox, Gaussian, Inc., Wallingford CT, 2013.
 
 ******************************************
 Gaussian 09:  ES64L-G09RevD.01 24-Apr-2013
                27-Apr-2015 
 ******************************************
 %NProcShared=8
 Will use up to    8 processors via shared memory.
 %Mem=500MW
 ----------------------------------------------------------------------
 #p rB971/6-311+G(d,p) Opt=(Tight, CalcAll) Freq GFInput Population=Non
 e Integral(Grid=UltraFine) Guess=MIX NoSymmetry
 ----------------------------------------------------------------------
 1/7=10,10=4,14=-1,18=20,19=15,26=4,38=1/1,3;
 2/9=110,12=2,15=1,17=6,18=5,40=1/2;
 3/5=4,6=6,7=111,11=2,16=1,24=10,25=1,30=1,71=2,74=-20,75=-5,116=1,140=1/1,2,3;
 4/13=-1/1;
 5/5=2,38=5/2;
 8/6=4,10=90,11=11/1;
 11/6=1,8=1,9=11,15=111,16=1,31=1/1,2,10;
 10/6=1,31=1/2;
 7/10=1,25=1,30=1/1,2,3,16;
 1/7=10,10=4,14=-1,18=20,19=15,26=4/3(3);
 2/9=110,15=1/2;
 7/8=1,9=1,25=1,30=1,44=-1/16;
 99//99;
 2/9=110,15=1/2;
 3/5=4,6=6,7=111,11=2,16=1,25=1,30=1,71=2,74=-20,75=-5,116=1,140=1/1,2,3;
 4/5=5,16=3,69=1/1;
 5/5=2,38=5/2;
 8/6=4,10=90,11=11/1;
 11/6=1,8=1,9=11,15=111,16=1,31=1/1,2,10;
 10/6=1,31=1/2;
 7/10=1,25=1,30=1/1,2,3,16;
 1/7=10,10=4,14=-1,18=20,19=15,26=4/3(-8);
 2/9=110,15=1/2;
 7/8=1,9=1,25=1,30=1,44=-1/16;
 99//99;
 Leave Link    1 at Mon Apr 27 01:11:54 2015, MaxMem=   524288000 cpu:         0.8
 (Enter /opt/g09/l101.exe)
 -----------------------
 freq-b971_6812-38-0.gau
 -----------------------
 Symbolic Z-matrix:
 Charge =  0 Multiplicity = 1
 C                     0.38851   6.84231   2.0057 
 C                     1.90399   6.63261   1.76723 
 C                     0.11224   7.26033   3.4582 
 C                     2.64327   6.10257   3.02752 
 C                     1.68057   5.26614   3.89212 
 C                     3.96426   5.37627   2.68645 
 C                     0.52675   6.13862   4.4459 
 C                     3.82017   4.00168   2.00833 
 C                     5.15547   3.39639   1.53411 
 C                     6.13019   3.04192   2.67101 
 C                     7.37884   2.26043   2.22038 
 C                     8.33415   3.0569    1.31493 
 C                     9.58422   2.27718   0.86602 
 C                     10.56319   1.91831   1.99617 
 C                     11.83727   1.22771   1.4822 
 C                     12.80843   0.76538   2.58371 
 C                     13.44483   1.90356   3.39785 
 C                     14.4747   1.40997   4.42532 
 C                     15.11246   2.54104   5.2457 
 C                     16.14308   2.0488    6.27239 
 C                     16.78014   3.17968   7.09379 
 C                     17.80813   2.67791   8.11663 
 H                    -0.15487   5.91137   1.7943 
 H                    -0.00187   7.58995   1.30567 
 H                     2.36627   7.58061   1.46272 
 H                     2.04319   5.94044   0.92759 
 H                     0.67586   8.17764   3.67527 
 H                    -0.94572   7.51137   3.59508 
 H                     2.9263    6.97794   3.63162 
 H                     1.26886   4.44695   3.28808 
 H                     2.22309   4.79327   4.72058 
 H                     4.53964   5.26066   3.6146 
 H                     4.5634    6.03179   2.03604 
 H                     0.82818   6.5877    5.40028 
 H                    -0.33633   5.49821   4.66546 
 H                     3.33609   3.29753   2.69903 
 H                     3.15257   4.08613   1.14096 
 H                     4.9427    2.4828    0.96054 
 H                     5.6326    4.09445   0.8328 
 H                     5.5904    2.44077   3.41676 
 H                     6.45116   3.95558   3.1897 
 H                     7.91909   1.92751   3.11561 
 H                     7.06358   1.34638   1.69468 
 H                     7.79401   3.38812   0.41903 
 H                     8.64751   3.97233   1.83929 
 H                     9.27092   1.35673   0.35136 
 H                     10.12037   2.87597   0.11649 
 H                     10.82708   2.83576   2.54004 
 H                     10.07258   1.25776   2.72421 
 H                     12.36529   1.90573   0.79541 
 H                     11.5452   0.35463   0.88201 
 H                     13.61046   0.17431   2.11993 
 H                     12.28244   0.0816    3.26627 
 H                     13.93038   2.61093   2.70904 
 H                     12.66425   2.472     3.92109 
 H                     15.26507   0.84869   3.90582 
 H                     13.99159   0.6955    5.1078 
 H                     14.32192   3.10111   5.76624 
 H                     15.59425   3.25635   4.56319 
 H                     16.93498   1.48946   5.75291 
 H                     15.66222   1.33305   6.95528 
 H                     15.98912   3.73801   7.61325 
 H                     17.26096   3.89437   6.41164 
 H                     18.24409   3.50593   8.68596 
 H                     17.34772   1.9868    8.83261 
 H                     18.62874   2.14433   7.62254 
 
 NAtoms=     66 NQM=       66 NQMF=       0 NMMI=      0 NMMIF=      0
                NMic=       0 NMicF=      0.
                    Isotopes and Nuclear Properties:
 (Nuclear quadrupole moments (NQMom) in fm**2, nuclear magnetic moments (NMagM)
  in nuclear magnetons)

  Atom         1           2           3           4           5           6           7           8           9          10
 IAtWgt=          12          12          12          12          12          12          12          12          12          12
 AtmWgt=  12.0000000  12.0000000  12.0000000  12.0000000  12.0000000  12.0000000  12.0000000  12.0000000  12.0000000  12.0000000
 NucSpn=           0           0           0           0           0           0           0           0           0           0
 AtZEff=   0.0000000   0.0000000   0.0000000   0.0000000   0.0000000   0.0000000   0.0000000   0.0000000   0.0000000   0.0000000
 NQMom=    0.0000000   0.0000000   0.0000000   0.0000000   0.0000000   0.0000000   0.0000000   0.0000000   0.0000000   0.0000000
 NMagM=    0.0000000   0.0000000   0.0000000   0.0000000   0.0000000   0.0000000   0.0000000   0.0000000   0.0000000   0.0000000
 AtZNuc=   6.0000000   6.0000000   6.0000000   6.0000000   6.0000000   6.0000000   6.0000000   6.0000000   6.0000000   6.0000000

  Atom        11          12          13          14          15          16          17          18          19          20
 IAtWgt=          12          12          12          12          12          12          12          12          12          12
 AtmWgt=  12.0000000  12.0000000  12.0000000  12.0000000  12.0000000  12.0000000  12.0000000  12.0000000  12.0000000  12.0000000
 NucSpn=           0           0           0           0           0           0           0           0           0           0
 AtZEff=   0.0000000   0.0000000   0.0000000   0.0000000   0.0000000   0.0000000   0.0000000   0.0000000   0.0000000   0.0000000
 NQMom=    0.0000000   0.0000000   0.0000000   0.0000000   0.0000000   0.0000000   0.0000000   0.0000000   0.0000000   0.0000000
 NMagM=    0.0000000   0.0000000   0.0000000   0.0000000   0.0000000   0.0000000   0.0000000   0.0000000   0.0000000   0.0000000
 AtZNuc=   6.0000000   6.0000000   6.0000000   6.0000000   6.0000000   6.0000000   6.0000000   6.0000000   6.0000000   6.0000000

  Atom        21          22          23          24          25          26          27          28          29          30
 IAtWgt=          12          12           1           1           1           1           1           1           1           1
 AtmWgt=  12.0000000  12.0000000   1.0078250   1.0078250   1.0078250   1.0078250   1.0078250   1.0078250   1.0078250   1.0078250
 NucSpn=           0           0           1           1           1           1           1           1           1           1
 AtZEff=   0.0000000   0.0000000   0.0000000   0.0000000   0.0000000   0.0000000   0.0000000   0.0000000   0.0000000   0.0000000
 NQMom=    0.0000000   0.0000000   0.0000000   0.0000000   0.0000000   0.0000000   0.0000000   0.0000000   0.0000000   0.0000000
 NMagM=    0.0000000   0.0000000   2.7928460   2.7928460   2.7928460   2.7928460   2.7928460   2.7928460   2.7928460   2.7928460
 AtZNuc=   6.0000000   6.0000000   1.0000000   1.0000000   1.0000000   1.0000000   1.0000000   1.0000000   1.0000000   1.0000000

  Atom        31          32          33          34          35          36          37          38          39          40
 IAtWgt=           1           1           1           1           1           1           1           1           1           1
 AtmWgt=   1.0078250   1.0078250   1.0078250   1.0078250   1.0078250   1.0078250   1.0078250   1.0078250   1.0078250   1.0078250
 NucSpn=           1           1           1           1           1           1           1           1           1           1
 AtZEff=   0.0000000   0.0000000   0.0000000   0.0000000   0.0000000   0.0000000   0.0000000   0.0000000   0.0000000   0.0000000
 NQMom=    0.0000000   0.0000000   0.0000000   0.0000000   0.0000000   0.0000000   0.0000000   0.0000000   0.0000000   0.0000000
 NMagM=    2.7928460   2.7928460   2.7928460   2.7928460   2.7928460   2.7928460   2.7928460   2.7928460   2.7928460   2.7928460
 AtZNuc=   1.0000000   1.0000000   1.0000000   1.0000000   1.0000000   1.0000000   1.0000000   1.0000000   1.0000000   1.0000000

  Atom        41          42          43          44          45          46          47          48          49          50
 IAtWgt=           1           1           1           1           1           1           1           1           1           1
 AtmWgt=   1.0078250   1.0078250   1.0078250   1.0078250   1.0078250   1.0078250   1.0078250   1.0078250   1.0078250   1.0078250
 NucSpn=           1           1           1           1           1           1           1           1           1           1
 AtZEff=   0.0000000   0.0000000   0.0000000   0.0000000   0.0000000   0.0000000   0.0000000   0.0000000   0.0000000   0.0000000
 NQMom=    0.0000000   0.0000000   0.0000000   0.0000000   0.0000000   0.0000000   0.0000000   0.0000000   0.0000000   0.0000000
 NMagM=    2.7928460   2.7928460   2.7928460   2.7928460   2.7928460   2.7928460   2.7928460   2.7928460   2.7928460   2.7928460
 AtZNuc=   1.0000000   1.0000000   1.0000000   1.0000000   1.0000000   1.0000000   1.0000000   1.0000000   1.0000000   1.0000000

  Atom        51          52          53          54          55          56          57          58          59          60
 IAtWgt=           1           1           1           1           1           1           1           1           1           1
 AtmWgt=   1.0078250   1.0078250   1.0078250   1.0078250   1.0078250   1.0078250   1.0078250   1.0078250   1.0078250   1.0078250
 NucSpn=           1           1           1           1           1           1           1           1           1           1
 AtZEff=   0.0000000   0.0000000   0.0000000   0.0000000   0.0000000   0.0000000   0.0000000   0.0000000   0.0000000   0.0000000
 NQMom=    0.0000000   0.0000000   0.0000000   0.0000000   0.0000000   0.0000000   0.0000000   0.0000000   0.0000000   0.0000000
 NMagM=    2.7928460   2.7928460   2.7928460   2.7928460   2.7928460   2.7928460   2.7928460   2.7928460   2.7928460   2.7928460
 AtZNuc=   1.0000000   1.0000000   1.0000000   1.0000000   1.0000000   1.0000000   1.0000000   1.0000000   1.0000000   1.0000000

  Atom        61          62          63          64          65          66
 IAtWgt=           1           1           1           1           1           1
 AtmWgt=   1.0078250   1.0078250   1.0078250   1.0078250   1.0078250   1.0078250
 NucSpn=           1           1           1           1           1           1
 AtZEff=   0.0000000   0.0000000   0.0000000   0.0000000   0.0000000   0.0000000
 NQMom=    0.0000000   0.0000000   0.0000000   0.0000000   0.0000000   0.0000000
 NMagM=    2.7928460   2.7928460   2.7928460   2.7928460   2.7928460   2.7928460
 AtZNuc=   1.0000000   1.0000000   1.0000000   1.0000000   1.0000000   1.0000000
 Leave Link  101 at Mon Apr 27 01:11:55 2015, MaxMem=   524288000 cpu:         2.2
 (Enter /opt/g09/l103.exe)

 GradGradGradGradGradGradGradGradGradGradGradGradGradGradGradGradGradGrad
 Berny optimization.
 Initialization pass.
                           ----------------------------
                           !    Initial Parameters    !
                           ! (Angstroms and Degrees)  !
 --------------------------                            --------------------------
 ! Name  Definition              Value          Derivative Info.                !
 --------------------------------------------------------------------------------
 ! R1    R(1,2)                  1.5484         calculate D2E/DX2 analytically  !
 ! R2    R(1,3)                  1.5365         calculate D2E/DX2 analytically  !
 ! R3    R(1,23)                 1.0985         calculate D2E/DX2 analytically  !
 ! R4    R(1,24)                 1.0961         calculate D2E/DX2 analytically  !
 ! R5    R(2,4)                  1.5543         calculate D2E/DX2 analytically  !
 ! R6    R(2,25)                 1.0978         calculate D2E/DX2 analytically  !
 ! R7    R(2,26)                 1.097          calculate D2E/DX2 analytically  !
 ! R8    R(3,7)                  1.551          calculate D2E/DX2 analytically  !
 ! R9    R(3,27)                 1.0983         calculate D2E/DX2 analytically  !
 ! R10   R(3,28)                 1.0959         calculate D2E/DX2 analytically  !
 ! R11   R(4,5)                  1.5408         calculate D2E/DX2 analytically  !
 ! R12   R(4,6)                  1.5456         calculate D2E/DX2 analytically  !
 ! R13   R(4,29)                 1.1006         calculate D2E/DX2 analytically  !
 ! R14   R(5,7)                  1.5489         calculate D2E/DX2 analytically  !
 ! R15   R(5,30)                 1.0979         calculate D2E/DX2 analytically  !
 ! R16   R(5,31)                 1.0974         calculate D2E/DX2 analytically  !
 ! R17   R(6,8)                  1.5395         calculate D2E/DX2 analytically  !
 ! R18   R(6,32)                 1.0981         calculate D2E/DX2 analytically  !
 ! R19   R(6,33)                 1.1008         calculate D2E/DX2 analytically  !
 ! R20   R(7,34)                 1.097          calculate D2E/DX2 analytically  !
 ! R21   R(7,35)                 1.0969         calculate D2E/DX2 analytically  !
 ! R22   R(8,9)                  1.5409         calculate D2E/DX2 analytically  !
 ! R23   R(8,36)                 1.0987         calculate D2E/DX2 analytically  !
 ! R24   R(8,37)                 1.0978         calculate D2E/DX2 analytically  !
 ! R25   R(9,10)                 1.5389         calculate D2E/DX2 analytically  !
 ! R26   R(9,38)                 1.0995         calculate D2E/DX2 analytically  !
 ! R27   R(9,39)                 1.0985         calculate D2E/DX2 analytically  !
 ! R28   R(10,11)                1.5404         calculate D2E/DX2 analytically  !
 ! R29   R(10,40)                1.0995         calculate D2E/DX2 analytically  !
 ! R30   R(10,41)                1.0986         calculate D2E/DX2 analytically  !
 ! R31   R(11,12)                1.5384         calculate D2E/DX2 analytically  !
 ! R32   R(11,42)                1.0973         calculate D2E/DX2 analytically  !
 ! R33   R(11,43)                1.1006         calculate D2E/DX2 analytically  !
 ! R34   R(12,13)                1.5402         calculate D2E/DX2 analytically  !
 ! R35   R(12,44)                1.0973         calculate D2E/DX2 analytically  !
 ! R36   R(12,45)                1.1005         calculate D2E/DX2 analytically  !
 ! R37   R(13,14)                1.5377         calculate D2E/DX2 analytically  !
 ! R38   R(13,46)                1.1001         calculate D2E/DX2 analytically  !
 ! R39   R(13,47)                1.099          calculate D2E/DX2 analytically  !
 ! R40   R(14,15)                1.5377         calculate D2E/DX2 analytically  !
 ! R41   R(14,48)                1.0987         calculate D2E/DX2 analytically  !
 ! R42   R(14,49)                1.0987         calculate D2E/DX2 analytically  !
 ! R43   R(15,16)                1.5396         calculate D2E/DX2 analytically  !
 ! R44   R(15,50)                1.1001         calculate D2E/DX2 analytically  !
 ! R45   R(15,51)                1.099          calculate D2E/DX2 analytically  !
 ! R46   R(16,17)                1.5373         calculate D2E/DX2 analytically  !
 ! R47   R(16,52)                1.099          calculate D2E/DX2 analytically  !
 ! R48   R(16,53)                1.1            calculate D2E/DX2 analytically  !
 ! R49   R(17,18)                1.5362         calculate D2E/DX2 analytically  !
 ! R50   R(17,54)                1.1003         calculate D2E/DX2 analytically  !
 ! R51   R(17,55)                1.0983         calculate D2E/DX2 analytically  !
 ! R52   R(18,19)                1.5359         calculate D2E/DX2 analytically  !
 ! R53   R(18,56)                1.0998         calculate D2E/DX2 analytically  !
 ! R54   R(18,57)                1.0998         calculate D2E/DX2 analytically  !
 ! R55   R(19,20)                1.5358         calculate D2E/DX2 analytically  !
 ! R56   R(19,58)                1.0998         calculate D2E/DX2 analytically  !
 ! R57   R(19,59)                1.0998         calculate D2E/DX2 analytically  !
 ! R58   R(20,21)                1.536          calculate D2E/DX2 analytically  !
 ! R59   R(20,60)                1.0999         calculate D2E/DX2 analytically  !
 ! R60   R(20,61)                1.0999         calculate D2E/DX2 analytically  !
 ! R61   R(21,22)                1.5345         calculate D2E/DX2 analytically  !
 ! R62   R(21,62)                1.0988         calculate D2E/DX2 analytically  !
 ! R63   R(21,63)                1.0988         calculate D2E/DX2 analytically  !
 ! R64   R(22,64)                1.0954         calculate D2E/DX2 analytically  !
 ! R65   R(22,65)                1.0965         calculate D2E/DX2 analytically  !
 ! R66   R(22,66)                1.0965         calculate D2E/DX2 analytically  !
 ! A1    A(2,1,3)              111.0032         calculate D2E/DX2 analytically  !
 ! A2    A(2,1,23)             109.8613         calculate D2E/DX2 analytically  !
 ! A3    A(2,1,24)             110.0356         calculate D2E/DX2 analytically  !
 ! A4    A(3,1,23)             108.8782         calculate D2E/DX2 analytically  !
 ! A5    A(3,1,24)             110.7406         calculate D2E/DX2 analytically  !
 ! A6    A(23,1,24)            106.1996         calculate D2E/DX2 analytically  !
 ! A7    A(1,2,4)              112.7576         calculate D2E/DX2 analytically  !
 ! A8    A(1,2,25)             109.7502         calculate D2E/DX2 analytically  !
 ! A9    A(1,2,26)             109.1182         calculate D2E/DX2 analytically  !
 ! A10   A(4,2,25)             108.6093         calculate D2E/DX2 analytically  !
 ! A11   A(4,2,26)             110.187          calculate D2E/DX2 analytically  !
 ! A12   A(25,2,26)            106.2079         calculate D2E/DX2 analytically  !
 ! A13   A(1,3,7)              110.9277         calculate D2E/DX2 analytically  !
 ! A14   A(1,3,27)             108.7715         calculate D2E/DX2 analytically  !
 ! A15   A(1,3,28)             110.7303         calculate D2E/DX2 analytically  !
 ! A16   A(7,3,27)             109.9397         calculate D2E/DX2 analytically  !
 ! A17   A(7,3,28)             110.1284         calculate D2E/DX2 analytically  !
 ! A18   A(27,3,28)            106.2242         calculate D2E/DX2 analytically  !
 ! A19   A(2,4,5)              110.0565         calculate D2E/DX2 analytically  !
 ! A20   A(2,4,6)              112.8201         calculate D2E/DX2 analytically  !
 ! A21   A(2,4,29)             107.2262         calculate D2E/DX2 analytically  !
 ! A22   A(5,4,6)              113.7503         calculate D2E/DX2 analytically  !
 ! A23   A(5,4,29)             106.5258         calculate D2E/DX2 analytically  !
 ! A24   A(6,4,29)             105.9671         calculate D2E/DX2 analytically  !
 ! A25   A(4,5,7)              111.1172         calculate D2E/DX2 analytically  !
 ! A26   A(4,5,30)             109.3066         calculate D2E/DX2 analytically  !
 ! A27   A(4,5,31)             110.4055         calculate D2E/DX2 analytically  !
 ! A28   A(7,5,30)             109.7331         calculate D2E/DX2 analytically  !
 ! A29   A(7,5,31)             109.9423         calculate D2E/DX2 analytically  !
 ! A30   A(30,5,31)            106.2133         calculate D2E/DX2 analytically  !
 ! A31   A(4,6,8)              115.8988         calculate D2E/DX2 analytically  !
 ! A32   A(4,6,32)             108.1062         calculate D2E/DX2 analytically  !
 ! A33   A(4,6,33)             108.4057         calculate D2E/DX2 analytically  !
 ! A34   A(8,6,32)             109.107          calculate D2E/DX2 analytically  !
 ! A35   A(8,6,33)             108.8076         calculate D2E/DX2 analytically  !
 ! A36   A(32,6,33)            106.076          calculate D2E/DX2 analytically  !
 ! A37   A(3,7,5)              112.2579         calculate D2E/DX2 analytically  !
 ! A38   A(3,7,34)             109.3537         calculate D2E/DX2 analytically  !
 ! A39   A(3,7,35)             109.8413         calculate D2E/DX2 analytically  !
 ! A40   A(5,7,34)             109.6913         calculate D2E/DX2 analytically  !
 ! A41   A(5,7,35)             109.1971         calculate D2E/DX2 analytically  !
 ! A42   A(34,7,35)            106.3239         calculate D2E/DX2 analytically  !
 ! A43   A(6,8,9)              113.9033         calculate D2E/DX2 analytically  !
 ! A44   A(6,8,36)             109.6671         calculate D2E/DX2 analytically  !
 ! A45   A(6,8,37)             109.6487         calculate D2E/DX2 analytically  !
 ! A46   A(9,8,36)             108.8758         calculate D2E/DX2 analytically  !
 ! A47   A(9,8,37)             108.3036         calculate D2E/DX2 analytically  !
 ! A48   A(36,8,37)            106.1441         calculate D2E/DX2 analytically  !
 ! A49   A(8,9,10)             114.3304         calculate D2E/DX2 analytically  !
 ! A50   A(8,9,38)             108.6177         calculate D2E/DX2 analytically  !
 ! A51   A(8,9,39)             108.8593         calculate D2E/DX2 analytically  !
 ! A52   A(10,9,38)            108.4554         calculate D2E/DX2 analytically  !
 ! A53   A(10,9,39)            110.0537         calculate D2E/DX2 analytically  !
 ! A54   A(38,9,39)            106.2016         calculate D2E/DX2 analytically  !
 ! A55   A(9,10,11)            114.4657         calculate D2E/DX2 analytically  !
 ! A56   A(9,10,40)            108.4249         calculate D2E/DX2 analytically  !
 ! A57   A(9,10,41)            110.017          calculate D2E/DX2 analytically  !
 ! A58   A(11,10,40)           108.6019         calculate D2E/DX2 analytically  !
 ! A59   A(11,10,41)           108.8579         calculate D2E/DX2 analytically  !
 ! A60   A(40,10,41)           106.1361         calculate D2E/DX2 analytically  !
 ! A61   A(10,11,12)           114.385          calculate D2E/DX2 analytically  !
 ! A62   A(10,11,42)           108.3206         calculate D2E/DX2 analytically  !
 ! A63   A(10,11,43)           109.201          calculate D2E/DX2 analytically  !
 ! A64   A(12,11,42)           109.36           calculate D2E/DX2 analytically  !
 ! A65   A(12,11,43)           109.0699         calculate D2E/DX2 analytically  !
 ! A66   A(42,11,43)           106.1853         calculate D2E/DX2 analytically  !
 ! A67   A(11,12,13)           114.4212         calculate D2E/DX2 analytically  !
 ! A68   A(11,12,44)           109.3373         calculate D2E/DX2 analytically  !
 ! A69   A(11,12,45)           109.0883         calculate D2E/DX2 analytically  !
 ! A70   A(13,12,44)           108.3224         calculate D2E/DX2 analytically  !
 ! A71   A(13,12,45)           109.2005         calculate D2E/DX2 analytically  !
 ! A72   A(44,12,45)           106.146          calculate D2E/DX2 analytically  !
 ! A73   A(12,13,14)           114.8769         calculate D2E/DX2 analytically  !
 ! A74   A(12,13,46)           109.1949         calculate D2E/DX2 analytically  !
 ! A75   A(12,13,47)           108.5971         calculate D2E/DX2 analytically  !
 ! A76   A(14,13,46)           109.2616         calculate D2E/DX2 analytically  !
 ! A77   A(14,13,47)           108.5316         calculate D2E/DX2 analytically  !
 ! A78   A(46,13,47)           106.0062         calculate D2E/DX2 analytically  !
 ! A79   A(13,14,15)           112.748          calculate D2E/DX2 analytically  !
 ! A80   A(13,14,48)           108.775          calculate D2E/DX2 analytically  !
 ! A81   A(13,14,49)           110.0632         calculate D2E/DX2 analytically  !
 ! A82   A(15,14,48)           109.9672         calculate D2E/DX2 analytically  !
 ! A83   A(15,14,49)           108.7522         calculate D2E/DX2 analytically  !
 ! A84   A(48,14,49)           106.3363         calculate D2E/DX2 analytically  !
 ! A85   A(14,15,16)           114.7336         calculate D2E/DX2 analytically  !
 ! A86   A(14,15,50)           109.2428         calculate D2E/DX2 analytically  !
 ! A87   A(14,15,51)           108.6109         calculate D2E/DX2 analytically  !
 ! A88   A(16,15,50)           109.2071         calculate D2E/DX2 analytically  !
 ! A89   A(16,15,51)           108.6515         calculate D2E/DX2 analytically  !
 ! A90   A(50,15,51)           106.0362         calculate D2E/DX2 analytically  !
 ! A91   A(15,16,17)           114.6901         calculate D2E/DX2 analytically  !
 ! A92   A(15,16,52)           108.6594         calculate D2E/DX2 analytically  !
 ! A93   A(15,16,53)           109.207          calculate D2E/DX2 analytically  !
 ! A94   A(17,16,52)           108.6378         calculate D2E/DX2 analytically  !
 ! A95   A(17,16,53)           109.2416         calculate D2E/DX2 analytically  !
 ! A96   A(52,16,53)           106.0511         calculate D2E/DX2 analytically  !
 ! A97   A(16,17,18)           113.1942         calculate D2E/DX2 analytically  !
 ! A98   A(16,17,54)           109.095          calculate D2E/DX2 analytically  !
 ! A99   A(16,17,55)           109.9552         calculate D2E/DX2 analytically  !
 ! A100  A(18,17,54)           109.2345         calculate D2E/DX2 analytically  !
 ! A101  A(18,17,55)           108.9125         calculate D2E/DX2 analytically  !
 ! A102  A(54,17,55)           106.2096         calculate D2E/DX2 analytically  !
 ! A103  A(17,18,19)           113.5155         calculate D2E/DX2 analytically  !
 ! A104  A(17,18,56)           109.2578         calculate D2E/DX2 analytically  !
 ! A105  A(17,18,57)           109.2249         calculate D2E/DX2 analytically  !
 ! A106  A(19,18,56)           109.2514         calculate D2E/DX2 analytically  !
 ! A107  A(19,18,57)           109.2282         calculate D2E/DX2 analytically  !
 ! A108  A(56,18,57)           106.0961         calculate D2E/DX2 analytically  !
 ! A109  A(18,19,20)           113.559          calculate D2E/DX2 analytically  !
 ! A110  A(18,19,58)           109.2291         calculate D2E/DX2 analytically  !
 ! A111  A(18,19,59)           109.2315         calculate D2E/DX2 analytically  !
 ! A112  A(20,19,58)           109.219          calculate D2E/DX2 analytically  !
 ! A113  A(20,19,59)           109.2291         calculate D2E/DX2 analytically  !
 ! A114  A(58,19,59)           106.1041         calculate D2E/DX2 analytically  !
 ! A115  A(19,20,21)           113.5682         calculate D2E/DX2 analytically  !
 ! A116  A(19,20,60)           109.2936         calculate D2E/DX2 analytically  !
 ! A117  A(19,20,61)           109.2832         calculate D2E/DX2 analytically  !
 ! A118  A(21,20,60)           109.1688         calculate D2E/DX2 analytically  !
 ! A119  A(21,20,61)           109.1713         calculate D2E/DX2 analytically  !
 ! A120  A(60,20,61)           106.0845         calculate D2E/DX2 analytically  !
 ! A121  A(20,21,22)           113.175          calculate D2E/DX2 analytically  !
 ! A122  A(20,21,62)           109.1682         calculate D2E/DX2 analytically  !
 ! A123  A(20,21,63)           109.1703         calculate D2E/DX2 analytically  !
 ! A124  A(22,21,62)           109.47           calculate D2E/DX2 analytically  !
 ! A125  A(22,21,63)           109.4725         calculate D2E/DX2 analytically  !
 ! A126  A(62,21,63)           106.1423         calculate D2E/DX2 analytically  !
 ! A127  A(21,22,64)           111.4629         calculate D2E/DX2 analytically  !
 ! A128  A(21,22,65)           111.1038         calculate D2E/DX2 analytically  !
 ! A129  A(21,22,66)           111.1084         calculate D2E/DX2 analytically  !
 ! A130  A(64,22,65)           107.7097         calculate D2E/DX2 analytically  !
 ! A131  A(64,22,66)           107.7106         calculate D2E/DX2 analytically  !
 ! A132  A(65,22,66)           107.5647         calculate D2E/DX2 analytically  !
 ! D1    D(3,1,2,4)             32.3997         calculate D2E/DX2 analytically  !
 ! D2    D(3,1,2,25)           -88.8184         calculate D2E/DX2 analytically  !
 ! D3    D(3,1,2,26)           155.1837         calculate D2E/DX2 analytically  !
 ! D4    D(23,1,2,4)           -88.0772         calculate D2E/DX2 analytically  !
 ! D5    D(23,1,2,25)          150.7047         calculate D2E/DX2 analytically  !
 ! D6    D(23,1,2,26)           34.7069         calculate D2E/DX2 analytically  !
 ! D7    D(24,1,2,4)           155.3414         calculate D2E/DX2 analytically  !
 ! D8    D(24,1,2,25)           34.1234         calculate D2E/DX2 analytically  !
 ! D9    D(24,1,2,26)          -81.8745         calculate D2E/DX2 analytically  !
 ! D10   D(2,1,3,7)            -63.4712         calculate D2E/DX2 analytically  !
 ! D11   D(2,1,3,27)            57.5665         calculate D2E/DX2 analytically  !
 ! D12   D(2,1,3,28)           173.9358         calculate D2E/DX2 analytically  !
 ! D13   D(23,1,3,7)            57.5862         calculate D2E/DX2 analytically  !
 ! D14   D(23,1,3,27)          178.624          calculate D2E/DX2 analytically  !
 ! D15   D(23,1,3,28)          -65.0068         calculate D2E/DX2 analytically  !
 ! D16   D(24,1,3,7)           173.9946         calculate D2E/DX2 analytically  !
 ! D17   D(24,1,3,27)          -64.9677         calculate D2E/DX2 analytically  !
 ! D18   D(24,1,3,28)           51.4016         calculate D2E/DX2 analytically  !
 ! D19   D(1,2,4,5)             29.0697         calculate D2E/DX2 analytically  !
 ! D20   D(1,2,4,6)            157.297          calculate D2E/DX2 analytically  !
 ! D21   D(1,2,4,29)           -86.4124         calculate D2E/DX2 analytically  !
 ! D22   D(25,2,4,5)           150.9344         calculate D2E/DX2 analytically  !
 ! D23   D(25,2,4,6)           -80.8384         calculate D2E/DX2 analytically  !
 ! D24   D(25,2,4,29)           35.4522         calculate D2E/DX2 analytically  !
 ! D25   D(26,2,4,5)           -93.1148         calculate D2E/DX2 analytically  !
 ! D26   D(26,2,4,6)            35.1125         calculate D2E/DX2 analytically  !
 ! D27   D(26,2,4,29)          151.4031         calculate D2E/DX2 analytically  !
 ! D28   D(1,3,7,5)             28.3918         calculate D2E/DX2 analytically  !
 ! D29   D(1,3,7,34)           150.3731         calculate D2E/DX2 analytically  !
 ! D30   D(1,3,7,35)           -93.303          calculate D2E/DX2 analytically  !
 ! D31   D(27,3,7,5)           -91.9545         calculate D2E/DX2 analytically  !
 ! D32   D(27,3,7,34)           30.0268         calculate D2E/DX2 analytically  !
 ! D33   D(27,3,7,35)          146.3507         calculate D2E/DX2 analytically  !
 ! D34   D(28,3,7,5)           151.3332         calculate D2E/DX2 analytically  !
 ! D35   D(28,3,7,34)          -86.6855         calculate D2E/DX2 analytically  !
 ! D36   D(28,3,7,35)           29.6384         calculate D2E/DX2 analytically  !
 ! D37   D(2,4,5,7)            -64.2962         calculate D2E/DX2 analytically  !
 ! D38   D(2,4,5,30)            56.9564         calculate D2E/DX2 analytically  !
 ! D39   D(2,4,5,31)           173.4426         calculate D2E/DX2 analytically  !
 ! D40   D(6,4,5,7)            167.9895         calculate D2E/DX2 analytically  !
 ! D41   D(6,4,5,30)           -70.7579         calculate D2E/DX2 analytically  !
 ! D42   D(6,4,5,31)            45.7283         calculate D2E/DX2 analytically  !
 ! D43   D(29,4,5,7)            51.6274         calculate D2E/DX2 analytically  !
 ! D44   D(29,4,5,30)          172.88           calculate D2E/DX2 analytically  !
 ! D45   D(29,4,5,31)          -70.6339         calculate D2E/DX2 analytically  !
 ! D46   D(2,4,6,8)            -71.245          calculate D2E/DX2 analytically  !
 ! D47   D(2,4,6,32)           165.9626         calculate D2E/DX2 analytically  !
 ! D48   D(2,4,6,33)            51.3898         calculate D2E/DX2 analytically  !
 ! D49   D(5,4,6,8)             55.0288         calculate D2E/DX2 analytically  !
 ! D50   D(5,4,6,32)           -67.7636         calculate D2E/DX2 analytically  !
 ! D51   D(5,4,6,33)           177.6635         calculate D2E/DX2 analytically  !
 ! D52   D(29,4,6,8)           171.7171         calculate D2E/DX2 analytically  !
 ! D53   D(29,4,6,32)           48.9247         calculate D2E/DX2 analytically  !
 ! D54   D(29,4,6,33)          -65.6481         calculate D2E/DX2 analytically  !
 ! D55   D(4,5,7,3)             33.5582         calculate D2E/DX2 analytically  !
 ! D56   D(4,5,7,34)           -88.2306         calculate D2E/DX2 analytically  !
 ! D57   D(4,5,7,35)           155.6203         calculate D2E/DX2 analytically  !
 ! D58   D(30,5,7,3)           -87.444          calculate D2E/DX2 analytically  !
 ! D59   D(30,5,7,34)          150.7671         calculate D2E/DX2 analytically  !
 ! D60   D(30,5,7,35)           34.618          calculate D2E/DX2 analytically  !
 ! D61   D(31,5,7,3)           156.0877         calculate D2E/DX2 analytically  !
 ! D62   D(31,5,7,34)           34.2988         calculate D2E/DX2 analytically  !
 ! D63   D(31,5,7,35)          -81.8503         calculate D2E/DX2 analytically  !
 ! D64   D(4,6,8,9)            172.9441         calculate D2E/DX2 analytically  !
 ! D65   D(4,6,8,36)           -64.7665         calculate D2E/DX2 analytically  !
 ! D66   D(4,6,8,37)            51.4105         calculate D2E/DX2 analytically  !
 ! D67   D(32,6,8,9)           -64.7918         calculate D2E/DX2 analytically  !
 ! D68   D(32,6,8,36)           57.4976         calculate D2E/DX2 analytically  !
 ! D69   D(32,6,8,37)          173.6746         calculate D2E/DX2 analytically  !
 ! D70   D(33,6,8,9)            50.5216         calculate D2E/DX2 analytically  !
 ! D71   D(33,6,8,36)          172.811          calculate D2E/DX2 analytically  !
 ! D72   D(33,6,8,37)          -71.0121         calculate D2E/DX2 analytically  !
 ! D73   D(6,8,9,10)            65.4611         calculate D2E/DX2 analytically  !
 ! D74   D(6,8,9,38)          -173.2784         calculate D2E/DX2 analytically  !
 ! D75   D(6,8,9,39)           -58.0516         calculate D2E/DX2 analytically  !
 ! D76   D(36,8,9,10)          -57.2624         calculate D2E/DX2 analytically  !
 ! D77   D(36,8,9,38)           63.9981         calculate D2E/DX2 analytically  !
 ! D78   D(36,8,9,39)          179.2248         calculate D2E/DX2 analytically  !
 ! D79   D(37,8,9,10)         -172.2622         calculate D2E/DX2 analytically  !
 ! D80   D(37,8,9,38)          -51.0017         calculate D2E/DX2 analytically  !
 ! D81   D(37,8,9,39)           64.225          calculate D2E/DX2 analytically  !
 ! D82   D(8,9,10,11)          171.9187         calculate D2E/DX2 analytically  !
 ! D83   D(8,9,10,40)           50.5212         calculate D2E/DX2 analytically  !
 ! D84   D(8,9,10,41)          -65.1455         calculate D2E/DX2 analytically  !
 ! D85   D(38,9,10,11)          50.5687         calculate D2E/DX2 analytically  !
 ! D86   D(38,9,10,40)         -70.8288         calculate D2E/DX2 analytically  !
 ! D87   D(38,9,10,41)         173.5045         calculate D2E/DX2 analytically  !
 ! D88   D(39,9,10,11)         -65.2136         calculate D2E/DX2 analytically  !
 ! D89   D(39,9,10,40)         173.3889         calculate D2E/DX2 analytically  !
 ! D90   D(39,9,10,41)          57.7222         calculate D2E/DX2 analytically  !
 ! D91   D(9,10,11,12)          66.4122         calculate D2E/DX2 analytically  !
 ! D92   D(9,10,11,42)        -171.3454         calculate D2E/DX2 analytically  !
 ! D93   D(9,10,11,43)         -56.1163         calculate D2E/DX2 analytically  !
 ! D94   D(40,10,11,12)       -172.2876         calculate D2E/DX2 analytically  !
 ! D95   D(40,10,11,42)        -50.0451         calculate D2E/DX2 analytically  !
 ! D96   D(40,10,11,43)         65.184          calculate D2E/DX2 analytically  !
 ! D97   D(41,10,11,12)        -57.1476         calculate D2E/DX2 analytically  !
 ! D98   D(41,10,11,42)         65.0948         calculate D2E/DX2 analytically  !
 ! D99   D(41,10,11,43)       -179.6761         calculate D2E/DX2 analytically  !
 ! D100  D(10,11,12,13)        179.8912         calculate D2E/DX2 analytically  !
 ! D101  D(10,11,12,44)        -58.4245         calculate D2E/DX2 analytically  !
 ! D102  D(10,11,12,45)         57.2527         calculate D2E/DX2 analytically  !
 ! D103  D(42,11,12,13)         58.2173         calculate D2E/DX2 analytically  !
 ! D104  D(42,11,12,44)        179.9016         calculate D2E/DX2 analytically  !
 ! D105  D(42,11,12,45)        -64.4213         calculate D2E/DX2 analytically  !
 ! D106  D(43,11,12,13)        -57.5091         calculate D2E/DX2 analytically  !
 ! D107  D(43,11,12,44)         64.1752         calculate D2E/DX2 analytically  !
 ! D108  D(43,11,12,45)        179.8524         calculate D2E/DX2 analytically  !
 ! D109  D(11,12,13,14)        -66.3036         calculate D2E/DX2 analytically  !
 ! D110  D(11,12,13,46)         56.8206         calculate D2E/DX2 analytically  !
 ! D111  D(11,12,13,47)        171.9839         calculate D2E/DX2 analytically  !
 ! D112  D(44,12,13,14)        171.4574         calculate D2E/DX2 analytically  !
 ! D113  D(44,12,13,46)        -65.4185         calculate D2E/DX2 analytically  !
 ! D114  D(44,12,13,47)         49.7448         calculate D2E/DX2 analytically  !
 ! D115  D(45,12,13,14)         56.2741         calculate D2E/DX2 analytically  !
 ! D116  D(45,12,13,46)        179.3982         calculate D2E/DX2 analytically  !
 ! D117  D(45,12,13,47)        -65.4385         calculate D2E/DX2 analytically  !
 ! D118  D(12,13,14,15)       -176.0369         calculate D2E/DX2 analytically  !
 ! D119  D(12,13,14,48)        -53.7858         calculate D2E/DX2 analytically  !
 ! D120  D(12,13,14,49)         62.3455         calculate D2E/DX2 analytically  !
 ! D121  D(46,13,14,15)         60.8747         calculate D2E/DX2 analytically  !
 ! D122  D(46,13,14,48)       -176.8743         calculate D2E/DX2 analytically  !
 ! D123  D(46,13,14,49)        -60.7429         calculate D2E/DX2 analytically  !
 ! D124  D(47,13,14,15)        -54.2888         calculate D2E/DX2 analytically  !
 ! D125  D(47,13,14,48)         67.9623         calculate D2E/DX2 analytically  !
 ! D126  D(47,13,14,49)       -175.9064         calculate D2E/DX2 analytically  !
 ! D127  D(13,14,15,16)       -176.1957         calculate D2E/DX2 analytically  !
 ! D128  D(13,14,15,50)         60.8171         calculate D2E/DX2 analytically  !
 ! D129  D(13,14,15,51)        -54.415          calculate D2E/DX2 analytically  !
 ! D130  D(48,14,15,16)         62.2263         calculate D2E/DX2 analytically  !
 ! D131  D(48,14,15,50)        -60.7609         calculate D2E/DX2 analytically  !
 ! D132  D(48,14,15,51)       -175.9931         calculate D2E/DX2 analytically  !
 ! D133  D(49,14,15,16)        -53.8386         calculate D2E/DX2 analytically  !
 ! D134  D(49,14,15,50)       -176.8257         calculate D2E/DX2 analytically  !
 ! D135  D(49,14,15,51)         67.9421         calculate D2E/DX2 analytically  !
 ! D136  D(14,15,16,17)        -65.5701         calculate D2E/DX2 analytically  !
 ! D137  D(14,15,16,52)        172.6604         calculate D2E/DX2 analytically  !
 ! D138  D(14,15,16,53)         57.4034         calculate D2E/DX2 analytically  !
 ! D139  D(50,15,16,17)         57.4363         calculate D2E/DX2 analytically  !
 ! D140  D(50,15,16,52)        -64.3333         calculate D2E/DX2 analytically  !
 ! D141  D(50,15,16,53)       -179.5903         calculate D2E/DX2 analytically  !
 ! D142  D(51,15,16,17)        172.6714         calculate D2E/DX2 analytically  !
 ! D143  D(51,15,16,52)         50.9018         calculate D2E/DX2 analytically  !
 ! D144  D(51,15,16,53)        -64.3551         calculate D2E/DX2 analytically  !
 ! D145  D(15,16,17,18)       -176.2891         calculate D2E/DX2 analytically  !
 ! D146  D(15,16,17,54)        -54.4453         calculate D2E/DX2 analytically  !
 ! D147  D(15,16,17,55)         61.6566         calculate D2E/DX2 analytically  !
 ! D148  D(52,16,17,18)        -54.5077         calculate D2E/DX2 analytically  !
 ! D149  D(52,16,17,54)         67.3361         calculate D2E/DX2 analytically  !
 ! D150  D(52,16,17,55)       -176.5621         calculate D2E/DX2 analytically  !
 ! D151  D(53,16,17,18)         60.756          calculate D2E/DX2 analytically  !
 ! D152  D(53,16,17,54)       -177.4002         calculate D2E/DX2 analytically  !
 ! D153  D(53,16,17,55)        -61.2983         calculate D2E/DX2 analytically  !
 ! D154  D(16,17,18,19)       -179.8416         calculate D2E/DX2 analytically  !
 ! D155  D(16,17,18,56)         57.9559         calculate D2E/DX2 analytically  !
 ! D156  D(16,17,18,57)        -57.6933         calculate D2E/DX2 analytically  !
 ! D157  D(54,17,18,19)         58.3928         calculate D2E/DX2 analytically  !
 ! D158  D(54,17,18,56)        -63.8097         calculate D2E/DX2 analytically  !
 ! D159  D(54,17,18,57)       -179.4589         calculate D2E/DX2 analytically  !
 ! D160  D(55,17,18,19)        -57.2064         calculate D2E/DX2 analytically  !
 ! D161  D(55,17,18,56)       -179.4088         calculate D2E/DX2 analytically  !
 ! D162  D(55,17,18,57)         64.9419         calculate D2E/DX2 analytically  !
 ! D163  D(17,18,19,20)       -179.9514         calculate D2E/DX2 analytically  !
 ! D164  D(17,18,19,58)         57.8793         calculate D2E/DX2 analytically  !
 ! D165  D(17,18,19,59)        -57.7672         calculate D2E/DX2 analytically  !
 ! D166  D(56,18,19,20)        -57.7454         calculate D2E/DX2 analytically  !
 ! D167  D(56,18,19,58)       -179.9147         calculate D2E/DX2 analytically  !
 ! D168  D(56,18,19,59)         64.4387         calculate D2E/DX2 analytically  !
 ! D169  D(57,18,19,20)         57.9021         calculate D2E/DX2 analytically  !
 ! D170  D(57,18,19,58)        -64.2671         calculate D2E/DX2 analytically  !
 ! D171  D(57,18,19,59)       -179.9137         calculate D2E/DX2 analytically  !
 ! D172  D(18,19,20,21)       -179.9503         calculate D2E/DX2 analytically  !
 ! D173  D(18,19,20,60)         57.8914         calculate D2E/DX2 analytically  !
 ! D174  D(18,19,20,61)        -57.7963         calculate D2E/DX2 analytically  !
 ! D175  D(58,19,20,21)        -57.7754         calculate D2E/DX2 analytically  !
 ! D176  D(58,19,20,60)       -179.9337         calculate D2E/DX2 analytically  !
 ! D177  D(58,19,20,61)         64.3786         calculate D2E/DX2 analytically  !
 ! D178  D(59,19,20,21)         57.8643         calculate D2E/DX2 analytically  !
 ! D179  D(59,19,20,60)        -64.2941         calculate D2E/DX2 analytically  !
 ! D180  D(59,19,20,61)       -179.9817         calculate D2E/DX2 analytically  !
 ! D181  D(19,20,21,22)        179.9952         calculate D2E/DX2 analytically  !
 ! D182  D(19,20,21,62)         57.8098         calculate D2E/DX2 analytically  !
 ! D183  D(19,20,21,63)        -57.8148         calculate D2E/DX2 analytically  !
 ! D184  D(60,20,21,22)        -57.7773         calculate D2E/DX2 analytically  !
 ! D185  D(60,20,21,62)       -179.9627         calculate D2E/DX2 analytically  !
 ! D186  D(60,20,21,63)         64.4127         calculate D2E/DX2 analytically  !
 ! D187  D(61,20,21,22)         57.7792         calculate D2E/DX2 analytically  !
 ! D188  D(61,20,21,62)        -64.4062         calculate D2E/DX2 analytically  !
 ! D189  D(61,20,21,63)        179.9692         calculate D2E/DX2 analytically  !
 ! D190  D(20,21,22,64)       -179.993          calculate D2E/DX2 analytically  !
 ! D191  D(20,21,22,65)        -59.8542         calculate D2E/DX2 analytically  !
 ! D192  D(20,21,22,66)         59.8638         calculate D2E/DX2 analytically  !
 ! D193  D(62,21,22,64)        -57.9763         calculate D2E/DX2 analytically  !
 ! D194  D(62,21,22,65)         62.1625         calculate D2E/DX2 analytically  !
 ! D195  D(62,21,22,66)       -178.1194         calculate D2E/DX2 analytically  !
 ! D196  D(63,21,22,64)         57.9858         calculate D2E/DX2 analytically  !
 ! D197  D(63,21,22,65)        178.1246         calculate D2E/DX2 analytically  !
 ! D198  D(63,21,22,66)        -62.1573         calculate D2E/DX2 analytically  !
 --------------------------------------------------------------------------------
 Trust Radius=3.00D-01 FncErr=1.00D-07 GrdErr=1.00D-06
 Number of steps in this run=    396 maximum allowed number of steps=    396.
 GradGradGradGradGradGradGradGradGradGradGradGradGradGradGradGradGradGrad

 Leave Link  103 at Mon Apr 27 01:11:55 2015, MaxMem=   524288000 cpu:         0.2
 (Enter /opt/g09/l202.exe)
 Symmetry turned off by external request.
 Stoichiometry    C22H44
 Framework group  C1[X(C22H44)]
 Deg. of freedom   192
 Full point group                 C1      NOp   1
                          Input orientation:                          
 ---------------------------------------------------------------------
 Center     Atomic      Atomic             Coordinates (Angstroms)
 Number     Number       Type             X           Y           Z
 ---------------------------------------------------------------------
      1          6           0        0.388510    6.842310    2.005700
      2          6           0        1.903990    6.632610    1.767230
      3          6           0        0.112240    7.260330    3.458200
      4          6           0        2.643270    6.102570    3.027520
      5          6           0        1.680570    5.266140    3.892120
      6          6           0        3.964260    5.376270    2.686450
      7          6           0        0.526750    6.138620    4.445900
      8          6           0        3.820170    4.001680    2.008330
      9          6           0        5.155470    3.396390    1.534110
     10          6           0        6.130190    3.041920    2.671010
     11          6           0        7.378840    2.260430    2.220380
     12          6           0        8.334150    3.056900    1.314930
     13          6           0        9.584220    2.277180    0.866020
     14          6           0       10.563190    1.918310    1.996170
     15          6           0       11.837270    1.227710    1.482200
     16          6           0       12.808430    0.765380    2.583710
     17          6           0       13.444830    1.903560    3.397850
     18          6           0       14.474700    1.409970    4.425320
     19          6           0       15.112460    2.541040    5.245700
     20          6           0       16.143080    2.048800    6.272390
     21          6           0       16.780140    3.179680    7.093790
     22          6           0       17.808130    2.677910    8.116630
     23          1           0       -0.154870    5.911370    1.794300
     24          1           0       -0.001870    7.589950    1.305670
     25          1           0        2.366270    7.580610    1.462720
     26          1           0        2.043190    5.940440    0.927590
     27          1           0        0.675860    8.177640    3.675270
     28          1           0       -0.945720    7.511370    3.595080
     29          1           0        2.926300    6.977940    3.631620
     30          1           0        1.268860    4.446950    3.288080
     31          1           0        2.223090    4.793270    4.720580
     32          1           0        4.539640    5.260660    3.614600
     33          1           0        4.563400    6.031790    2.036040
     34          1           0        0.828180    6.587700    5.400280
     35          1           0       -0.336330    5.498210    4.665460
     36          1           0        3.336090    3.297530    2.699030
     37          1           0        3.152570    4.086130    1.140960
     38          1           0        4.942700    2.482800    0.960540
     39          1           0        5.632600    4.094450    0.832800
     40          1           0        5.590400    2.440770    3.416760
     41          1           0        6.451160    3.955580    3.189700
     42          1           0        7.919090    1.927510    3.115610
     43          1           0        7.063580    1.346380    1.694680
     44          1           0        7.794010    3.388120    0.419030
     45          1           0        8.647510    3.972330    1.839290
     46          1           0        9.270920    1.356730    0.351360
     47          1           0       10.120370    2.875970    0.116490
     48          1           0       10.827080    2.835760    2.540040
     49          1           0       10.072580    1.257760    2.724210
     50          1           0       12.365290    1.905730    0.795410
     51          1           0       11.545200    0.354630    0.882010
     52          1           0       13.610460    0.174310    2.119930
     53          1           0       12.282440    0.081600    3.266270
     54          1           0       13.930380    2.610930    2.709040
     55          1           0       12.664250    2.472000    3.921090
     56          1           0       15.265070    0.848690    3.905820
     57          1           0       13.991590    0.695500    5.107800
     58          1           0       14.321920    3.101110    5.766240
     59          1           0       15.594250    3.256350    4.563190
     60          1           0       16.934980    1.489460    5.752910
     61          1           0       15.662220    1.333050    6.955280
     62          1           0       15.989120    3.738010    7.613250
     63          1           0       17.260960    3.894370    6.411640
     64          1           0       18.244090    3.505930    8.685960
     65          1           0       17.347720    1.986800    8.832610
     66          1           0       18.628740    2.144330    7.622540
 ---------------------------------------------------------------------
 Rotational constants (GHZ):      0.4048382      0.0431229      0.0398699
 Leave Link  202 at Mon Apr 27 01:11:55 2015, MaxMem=   524288000 cpu:         0.0
 (Enter /opt/g09/l301.exe)
 Standard basis: 6-311+G(d,p) (5D, 7F)
 Ernie: Thresh=  0.10000D-02 Tol=  0.10000D-05 Strict=F.
 AO basis set in the form of general basis input (Overlap normalization):
      1 0
 S   6 1.00       0.000000000000
      0.4563240000D+04  0.1966650249D-02
      0.6820240000D+03  0.1523060193D-01
      0.1549730000D+03  0.7612690966D-01
      0.4445530000D+02  0.2608010331D+00
      0.1302900000D+02  0.6164620782D+00
      0.1827730000D+01  0.2210060280D+00
 SP   3 1.00       0.000000000000
      0.2096420000D+02  0.1146600807D+00  0.4024869267D-01
      0.4803310000D+01  0.9199996477D+00  0.2375939567D+00
      0.1459330000D+01 -0.3030682134D-02  0.8158538515D+00
 SP   1 1.00       0.000000000000
      0.4834560000D+00  0.1000000000D+01  0.1000000000D+01
 SP   1 1.00       0.000000000000
      0.1455850000D+00  0.1000000000D+01  0.1000000000D+01
 SP   1 1.00       0.000000000000
      0.4380000000D-01  0.1000000000D+01  0.1000000000D+01
 D   1 1.00       0.000000000000
      0.6260000000D+00  0.1000000000D+01
 ****
      2 0
 S   6 1.00       0.000000000000
      0.4563240000D+04  0.1966650249D-02
      0.6820240000D+03  0.1523060193D-01
      0.1549730000D+03  0.7612690966D-01
      0.4445530000D+02  0.2608010331D+00
      0.1302900000D+02  0.6164620782D+00
      0.1827730000D+01  0.2210060280D+00
 SP   3 1.00       0.000000000000
      0.2096420000D+02  0.1146600807D+00  0.4024869267D-01
      0.4803310000D+01  0.9199996477D+00  0.2375939567D+00
      0.1459330000D+01 -0.3030682134D-02  0.8158538515D+00
 SP   1 1.00       0.000000000000
      0.4834560000D+00  0.1000000000D+01  0.1000000000D+01
 SP   1 1.00       0.000000000000
      0.1455850000D+00  0.1000000000D+01  0.1000000000D+01
 SP   1 1.00       0.000000000000
      0.4380000000D-01  0.1000000000D+01  0.1000000000D+01
 D   1 1.00       0.000000000000
      0.6260000000D+00  0.1000000000D+01
 ****
      3 0
 S   6 1.00       0.000000000000
      0.4563240000D+04  0.1966650249D-02
      0.6820240000D+03  0.1523060193D-01
      0.1549730000D+03  0.7612690966D-01
      0.4445530000D+02  0.2608010331D+00
      0.1302900000D+02  0.6164620782D+00
      0.1827730000D+01  0.2210060280D+00
 SP   3 1.00       0.000000000000
      0.2096420000D+02  0.1146600807D+00  0.4024869267D-01
      0.4803310000D+01  0.9199996477D+00  0.2375939567D+00
      0.1459330000D+01 -0.3030682134D-02  0.8158538515D+00
 SP   1 1.00       0.000000000000
      0.4834560000D+00  0.1000000000D+01  0.1000000000D+01
 SP   1 1.00       0.000000000000
      0.1455850000D+00  0.1000000000D+01  0.1000000000D+01
 SP   1 1.00       0.000000000000
      0.4380000000D-01  0.1000000000D+01  0.1000000000D+01
 D   1 1.00       0.000000000000
      0.6260000000D+00  0.1000000000D+01
 ****
      4 0
 S   6 1.00       0.000000000000
      0.4563240000D+04  0.1966650249D-02
      0.6820240000D+03  0.1523060193D-01
      0.1549730000D+03  0.7612690966D-01
      0.4445530000D+02  0.2608010331D+00
      0.1302900000D+02  0.6164620782D+00
      0.1827730000D+01  0.2210060280D+00
 SP   3 1.00       0.000000000000
      0.2096420000D+02  0.1146600807D+00  0.4024869267D-01
      0.4803310000D+01  0.9199996477D+00  0.2375939567D+00
      0.1459330000D+01 -0.3030682134D-02  0.8158538515D+00
 SP   1 1.00       0.000000000000
      0.4834560000D+00  0.1000000000D+01  0.1000000000D+01
 SP   1 1.00       0.000000000000
      0.1455850000D+00  0.1000000000D+01  0.1000000000D+01
 SP   1 1.00       0.000000000000
      0.4380000000D-01  0.1000000000D+01  0.1000000000D+01
 D   1 1.00       0.000000000000
      0.6260000000D+00  0.1000000000D+01
 ****
      5 0
 S   6 1.00       0.000000000000
      0.4563240000D+04  0.1966650249D-02
      0.6820240000D+03  0.1523060193D-01
      0.1549730000D+03  0.7612690966D-01
      0.4445530000D+02  0.2608010331D+00
      0.1302900000D+02  0.6164620782D+00
      0.1827730000D+01  0.2210060280D+00
 SP   3 1.00       0.000000000000
      0.2096420000D+02  0.1146600807D+00  0.4024869267D-01
      0.4803310000D+01  0.9199996477D+00  0.2375939567D+00
      0.1459330000D+01 -0.3030682134D-02  0.8158538515D+00
 SP   1 1.00       0.000000000000
      0.4834560000D+00  0.1000000000D+01  0.1000000000D+01
 SP   1 1.00       0.000000000000
      0.1455850000D+00  0.1000000000D+01  0.1000000000D+01
 SP   1 1.00       0.000000000000
      0.4380000000D-01  0.1000000000D+01  0.1000000000D+01
 D   1 1.00       0.000000000000
      0.6260000000D+00  0.1000000000D+01
 ****
      6 0
 S   6 1.00       0.000000000000
      0.4563240000D+04  0.1966650249D-02
      0.6820240000D+03  0.1523060193D-01
      0.1549730000D+03  0.7612690966D-01
      0.4445530000D+02  0.2608010331D+00
      0.1302900000D+02  0.6164620782D+00
      0.1827730000D+01  0.2210060280D+00
 SP   3 1.00       0.000000000000
      0.2096420000D+02  0.1146600807D+00  0.4024869267D-01
      0.4803310000D+01  0.9199996477D+00  0.2375939567D+00
      0.1459330000D+01 -0.3030682134D-02  0.8158538515D+00
 SP   1 1.00       0.000000000000
      0.4834560000D+00  0.1000000000D+01  0.1000000000D+01
 SP   1 1.00       0.000000000000
      0.1455850000D+00  0.1000000000D+01  0.1000000000D+01
 SP   1 1.00       0.000000000000
      0.4380000000D-01  0.1000000000D+01  0.1000000000D+01
 D   1 1.00       0.000000000000
      0.6260000000D+00  0.1000000000D+01
 ****
      7 0
 S   6 1.00       0.000000000000
      0.4563240000D+04  0.1966650249D-02
      0.6820240000D+03  0.1523060193D-01
      0.1549730000D+03  0.7612690966D-01
      0.4445530000D+02  0.2608010331D+00
      0.1302900000D+02  0.6164620782D+00
      0.1827730000D+01  0.2210060280D+00
 SP   3 1.00       0.000000000000
      0.2096420000D+02  0.1146600807D+00  0.4024869267D-01
      0.4803310000D+01  0.9199996477D+00  0.2375939567D+00
      0.1459330000D+01 -0.3030682134D-02  0.8158538515D+00
 SP   1 1.00       0.000000000000
      0.4834560000D+00  0.1000000000D+01  0.1000000000D+01
 SP   1 1.00       0.000000000000
      0.1455850000D+00  0.1000000000D+01  0.1000000000D+01
 SP   1 1.00       0.000000000000
      0.4380000000D-01  0.1000000000D+01  0.1000000000D+01
 D   1 1.00       0.000000000000
      0.6260000000D+00  0.1000000000D+01
 ****
      8 0
 S   6 1.00       0.000000000000
      0.4563240000D+04  0.1966650249D-02
      0.6820240000D+03  0.1523060193D-01
      0.1549730000D+03  0.7612690966D-01
      0.4445530000D+02  0.2608010331D+00
      0.1302900000D+02  0.6164620782D+00
      0.1827730000D+01  0.2210060280D+00
 SP   3 1.00       0.000000000000
      0.2096420000D+02  0.1146600807D+00  0.4024869267D-01
      0.4803310000D+01  0.9199996477D+00  0.2375939567D+00
      0.1459330000D+01 -0.3030682134D-02  0.8158538515D+00
 SP   1 1.00       0.000000000000
      0.4834560000D+00  0.1000000000D+01  0.1000000000D+01
 SP   1 1.00       0.000000000000
      0.1455850000D+00  0.1000000000D+01  0.1000000000D+01
 SP   1 1.00       0.000000000000
      0.4380000000D-01  0.1000000000D+01  0.1000000000D+01
 D   1 1.00       0.000000000000
      0.6260000000D+00  0.1000000000D+01
 ****
      9 0
 S   6 1.00       0.000000000000
      0.4563240000D+04  0.1966650249D-02
      0.6820240000D+03  0.1523060193D-01
      0.1549730000D+03  0.7612690966D-01
      0.4445530000D+02  0.2608010331D+00
      0.1302900000D+02  0.6164620782D+00
      0.1827730000D+01  0.2210060280D+00
 SP   3 1.00       0.000000000000
      0.2096420000D+02  0.1146600807D+00  0.4024869267D-01
      0.4803310000D+01  0.9199996477D+00  0.2375939567D+00
      0.1459330000D+01 -0.3030682134D-02  0.8158538515D+00
 SP   1 1.00       0.000000000000
      0.4834560000D+00  0.1000000000D+01  0.1000000000D+01
 SP   1 1.00       0.000000000000
      0.1455850000D+00  0.1000000000D+01  0.1000000000D+01
 SP   1 1.00       0.000000000000
      0.4380000000D-01  0.1000000000D+01  0.1000000000D+01
 D   1 1.00       0.000000000000
      0.6260000000D+00  0.1000000000D+01
 ****
     10 0
 S   6 1.00       0.000000000000
      0.4563240000D+04  0.1966650249D-02
      0.6820240000D+03  0.1523060193D-01
      0.1549730000D+03  0.7612690966D-01
      0.4445530000D+02  0.2608010331D+00
      0.1302900000D+02  0.6164620782D+00
      0.1827730000D+01  0.2210060280D+00
 SP   3 1.00       0.000000000000
      0.2096420000D+02  0.1146600807D+00  0.4024869267D-01
      0.4803310000D+01  0.9199996477D+00  0.2375939567D+00
      0.1459330000D+01 -0.3030682134D-02  0.8158538515D+00
 SP   1 1.00       0.000000000000
      0.4834560000D+00  0.1000000000D+01  0.1000000000D+01
 SP   1 1.00       0.000000000000
      0.1455850000D+00  0.1000000000D+01  0.1000000000D+01
 SP   1 1.00       0.000000000000
      0.4380000000D-01  0.1000000000D+01  0.1000000000D+01
 D   1 1.00       0.000000000000
      0.6260000000D+00  0.1000000000D+01
 ****
     11 0
 S   6 1.00       0.000000000000
      0.4563240000D+04  0.1966650249D-02
      0.6820240000D+03  0.1523060193D-01
      0.1549730000D+03  0.7612690966D-01
      0.4445530000D+02  0.2608010331D+00
      0.1302900000D+02  0.6164620782D+00
      0.1827730000D+01  0.2210060280D+00
 SP   3 1.00       0.000000000000
      0.2096420000D+02  0.1146600807D+00  0.4024869267D-01
      0.4803310000D+01  0.9199996477D+00  0.2375939567D+00
      0.1459330000D+01 -0.3030682134D-02  0.8158538515D+00
 SP   1 1.00       0.000000000000
      0.4834560000D+00  0.1000000000D+01  0.1000000000D+01
 SP   1 1.00       0.000000000000
      0.1455850000D+00  0.1000000000D+01  0.1000000000D+01
 SP   1 1.00       0.000000000000
      0.4380000000D-01  0.1000000000D+01  0.1000000000D+01
 D   1 1.00       0.000000000000
      0.6260000000D+00  0.1000000000D+01
 ****
     12 0
 S   6 1.00       0.000000000000
      0.4563240000D+04  0.1966650249D-02
      0.6820240000D+03  0.1523060193D-01
      0.1549730000D+03  0.7612690966D-01
      0.4445530000D+02  0.2608010331D+00
      0.1302900000D+02  0.6164620782D+00
      0.1827730000D+01  0.2210060280D+00
 SP   3 1.00       0.000000000000
      0.2096420000D+02  0.1146600807D+00  0.4024869267D-01
      0.4803310000D+01  0.9199996477D+00  0.2375939567D+00
      0.1459330000D+01 -0.3030682134D-02  0.8158538515D+00
 SP   1 1.00       0.000000000000
      0.4834560000D+00  0.1000000000D+01  0.1000000000D+01
 SP   1 1.00       0.000000000000
      0.1455850000D+00  0.1000000000D+01  0.1000000000D+01
 SP   1 1.00       0.000000000000
      0.4380000000D-01  0.1000000000D+01  0.1000000000D+01
 D   1 1.00       0.000000000000
      0.6260000000D+00  0.1000000000D+01
 ****
     13 0
 S   6 1.00       0.000000000000
      0.4563240000D+04  0.1966650249D-02
      0.6820240000D+03  0.1523060193D-01
      0.1549730000D+03  0.7612690966D-01
      0.4445530000D+02  0.2608010331D+00
      0.1302900000D+02  0.6164620782D+00
      0.1827730000D+01  0.2210060280D+00
 SP   3 1.00       0.000000000000
      0.2096420000D+02  0.1146600807D+00  0.4024869267D-01
      0.4803310000D+01  0.9199996477D+00  0.2375939567D+00
      0.1459330000D+01 -0.3030682134D-02  0.8158538515D+00
 SP   1 1.00       0.000000000000
      0.4834560000D+00  0.1000000000D+01  0.1000000000D+01
 SP   1 1.00       0.000000000000
      0.1455850000D+00  0.1000000000D+01  0.1000000000D+01
 SP   1 1.00       0.000000000000
      0.4380000000D-01  0.1000000000D+01  0.1000000000D+01
 D   1 1.00       0.000000000000
      0.6260000000D+00  0.1000000000D+01
 ****
     14 0
 S   6 1.00       0.000000000000
      0.4563240000D+04  0.1966650249D-02
      0.6820240000D+03  0.1523060193D-01
      0.1549730000D+03  0.7612690966D-01
      0.4445530000D+02  0.2608010331D+00
      0.1302900000D+02  0.6164620782D+00
      0.1827730000D+01  0.2210060280D+00
 SP   3 1.00       0.000000000000
      0.2096420000D+02  0.1146600807D+00  0.4024869267D-01
      0.4803310000D+01  0.9199996477D+00  0.2375939567D+00
      0.1459330000D+01 -0.3030682134D-02  0.8158538515D+00
 SP   1 1.00       0.000000000000
      0.4834560000D+00  0.1000000000D+01  0.1000000000D+01
 SP   1 1.00       0.000000000000
      0.1455850000D+00  0.1000000000D+01  0.1000000000D+01
 SP   1 1.00       0.000000000000
      0.4380000000D-01  0.1000000000D+01  0.1000000000D+01
 D   1 1.00       0.000000000000
      0.6260000000D+00  0.1000000000D+01
 ****
     15 0
 S   6 1.00       0.000000000000
      0.4563240000D+04  0.1966650249D-02
      0.6820240000D+03  0.1523060193D-01
      0.1549730000D+03  0.7612690966D-01
      0.4445530000D+02  0.2608010331D+00
      0.1302900000D+02  0.6164620782D+00
      0.1827730000D+01  0.2210060280D+00
 SP   3 1.00       0.000000000000
      0.2096420000D+02  0.1146600807D+00  0.4024869267D-01
      0.4803310000D+01  0.9199996477D+00  0.2375939567D+00
      0.1459330000D+01 -0.3030682134D-02  0.8158538515D+00
 SP   1 1.00       0.000000000000
      0.4834560000D+00  0.1000000000D+01  0.1000000000D+01
 SP   1 1.00       0.000000000000
      0.1455850000D+00  0.1000000000D+01  0.1000000000D+01
 SP   1 1.00       0.000000000000
      0.4380000000D-01  0.1000000000D+01  0.1000000000D+01
 D   1 1.00       0.000000000000
      0.6260000000D+00  0.1000000000D+01
 ****
     16 0
 S   6 1.00       0.000000000000
      0.4563240000D+04  0.1966650249D-02
      0.6820240000D+03  0.1523060193D-01
      0.1549730000D+03  0.7612690966D-01
      0.4445530000D+02  0.2608010331D+00
      0.1302900000D+02  0.6164620782D+00
      0.1827730000D+01  0.2210060280D+00
 SP   3 1.00       0.000000000000
      0.2096420000D+02  0.1146600807D+00  0.4024869267D-01
      0.4803310000D+01  0.9199996477D+00  0.2375939567D+00
      0.1459330000D+01 -0.3030682134D-02  0.8158538515D+00
 SP   1 1.00       0.000000000000
      0.4834560000D+00  0.1000000000D+01  0.1000000000D+01
 SP   1 1.00       0.000000000000
      0.1455850000D+00  0.1000000000D+01  0.1000000000D+01
 SP   1 1.00       0.000000000000
      0.4380000000D-01  0.1000000000D+01  0.1000000000D+01
 D   1 1.00       0.000000000000
      0.6260000000D+00  0.1000000000D+01
 ****
     17 0
 S   6 1.00       0.000000000000
      0.4563240000D+04  0.1966650249D-02
      0.6820240000D+03  0.1523060193D-01
      0.1549730000D+03  0.7612690966D-01
      0.4445530000D+02  0.2608010331D+00
      0.1302900000D+02  0.6164620782D+00
      0.1827730000D+01  0.2210060280D+00
 SP   3 1.00       0.000000000000
      0.2096420000D+02  0.1146600807D+00  0.4024869267D-01
      0.4803310000D+01  0.9199996477D+00  0.2375939567D+00
      0.1459330000D+01 -0.3030682134D-02  0.8158538515D+00
 SP   1 1.00       0.000000000000
      0.4834560000D+00  0.1000000000D+01  0.1000000000D+01
 SP   1 1.00       0.000000000000
      0.1455850000D+00  0.1000000000D+01  0.1000000000D+01
 SP   1 1.00       0.000000000000
      0.4380000000D-01  0.1000000000D+01  0.1000000000D+01
 D   1 1.00       0.000000000000
      0.6260000000D+00  0.1000000000D+01
 ****
     18 0
 S   6 1.00       0.000000000000
      0.4563240000D+04  0.1966650249D-02
      0.6820240000D+03  0.1523060193D-01
      0.1549730000D+03  0.7612690966D-01
      0.4445530000D+02  0.2608010331D+00
      0.1302900000D+02  0.6164620782D+00
      0.1827730000D+01  0.2210060280D+00
 SP   3 1.00       0.000000000000
      0.2096420000D+02  0.1146600807D+00  0.4024869267D-01
      0.4803310000D+01  0.9199996477D+00  0.2375939567D+00
      0.1459330000D+01 -0.3030682134D-02  0.8158538515D+00
 SP   1 1.00       0.000000000000
      0.4834560000D+00  0.1000000000D+01  0.1000000000D+01
 SP   1 1.00       0.000000000000
      0.1455850000D+00  0.1000000000D+01  0.1000000000D+01
 SP   1 1.00       0.000000000000
      0.4380000000D-01  0.1000000000D+01  0.1000000000D+01
 D   1 1.00       0.000000000000
      0.6260000000D+00  0.1000000000D+01
 ****
     19 0
 S   6 1.00       0.000000000000
      0.4563240000D+04  0.1966650249D-02
      0.6820240000D+03  0.1523060193D-01
      0.1549730000D+03  0.7612690966D-01
      0.4445530000D+02  0.2608010331D+00
      0.1302900000D+02  0.6164620782D+00
      0.1827730000D+01  0.2210060280D+00
 SP   3 1.00       0.000000000000
      0.2096420000D+02  0.1146600807D+00  0.4024869267D-01
      0.4803310000D+01  0.9199996477D+00  0.2375939567D+00
      0.1459330000D+01 -0.3030682134D-02  0.8158538515D+00
 SP   1 1.00       0.000000000000
      0.4834560000D+00  0.1000000000D+01  0.1000000000D+01
 SP   1 1.00       0.000000000000
      0.1455850000D+00  0.1000000000D+01  0.1000000000D+01
 SP   1 1.00       0.000000000000
      0.4380000000D-01  0.1000000000D+01  0.1000000000D+01
 D   1 1.00       0.000000000000
      0.6260000000D+00  0.1000000000D+01
 ****
     20 0
 S   6 1.00       0.000000000000
      0.4563240000D+04  0.1966650249D-02
      0.6820240000D+03  0.1523060193D-01
      0.1549730000D+03  0.7612690966D-01
      0.4445530000D+02  0.2608010331D+00
      0.1302900000D+02  0.6164620782D+00
      0.1827730000D+01  0.2210060280D+00
 SP   3 1.00       0.000000000000
      0.2096420000D+02  0.1146600807D+00  0.4024869267D-01
      0.4803310000D+01  0.9199996477D+00  0.2375939567D+00
      0.1459330000D+01 -0.3030682134D-02  0.8158538515D+00
 SP   1 1.00       0.000000000000
      0.4834560000D+00  0.1000000000D+01  0.1000000000D+01
 SP   1 1.00       0.000000000000
      0.1455850000D+00  0.1000000000D+01  0.1000000000D+01
 SP   1 1.00       0.000000000000
      0.4380000000D-01  0.1000000000D+01  0.1000000000D+01
 D   1 1.00       0.000000000000
      0.6260000000D+00  0.1000000000D+01
 ****
     21 0
 S   6 1.00       0.000000000000
      0.4563240000D+04  0.1966650249D-02
      0.6820240000D+03  0.1523060193D-01
      0.1549730000D+03  0.7612690966D-01
      0.4445530000D+02  0.2608010331D+00
      0.1302900000D+02  0.6164620782D+00
      0.1827730000D+01  0.2210060280D+00
 SP   3 1.00       0.000000000000
      0.2096420000D+02  0.1146600807D+00  0.4024869267D-01
      0.4803310000D+01  0.9199996477D+00  0.2375939567D+00
      0.1459330000D+01 -0.3030682134D-02  0.8158538515D+00
 SP   1 1.00       0.000000000000
      0.4834560000D+00  0.1000000000D+01  0.1000000000D+01
 SP   1 1.00       0.000000000000
      0.1455850000D+00  0.1000000000D+01  0.1000000000D+01
 SP   1 1.00       0.000000000000
      0.4380000000D-01  0.1000000000D+01  0.1000000000D+01
 D   1 1.00       0.000000000000
      0.6260000000D+00  0.1000000000D+01
 ****
     22 0
 S   6 1.00       0.000000000000
      0.4563240000D+04  0.1966650249D-02
      0.6820240000D+03  0.1523060193D-01
      0.1549730000D+03  0.7612690966D-01
      0.4445530000D+02  0.2608010331D+00
      0.1302900000D+02  0.6164620782D+00
      0.1827730000D+01  0.2210060280D+00
 SP   3 1.00       0.000000000000
      0.2096420000D+02  0.1146600807D+00  0.4024869267D-01
      0.4803310000D+01  0.9199996477D+00  0.2375939567D+00
      0.1459330000D+01 -0.3030682134D-02  0.8158538515D+00
 SP   1 1.00       0.000000000000
      0.4834560000D+00  0.1000000000D+01  0.1000000000D+01
 SP   1 1.00       0.000000000000
      0.1455850000D+00  0.1000000000D+01  0.1000000000D+01
 SP   1 1.00       0.000000000000
      0.4380000000D-01  0.1000000000D+01  0.1000000000D+01
 D   1 1.00       0.000000000000
      0.6260000000D+00  0.1000000000D+01
 ****
     23 0
 S   3 1.00       0.000000000000
      0.3386500000D+02  0.2549381454D-01
      0.5094790000D+01  0.1903731086D+00
      0.1158790000D+01  0.8521614860D+00
 S   1 1.00       0.000000000000
      0.3258400000D+00  0.1000000000D+01
 S   1 1.00       0.000000000000
      0.1027410000D+00  0.1000000000D+01
 P   1 1.00       0.000000000000
      0.7500000000D+00  0.1000000000D+01
 ****
     24 0
 S   3 1.00       0.000000000000
      0.3386500000D+02  0.2549381454D-01
      0.5094790000D+01  0.1903731086D+00
      0.1158790000D+01  0.8521614860D+00
 S   1 1.00       0.000000000000
      0.3258400000D+00  0.1000000000D+01
 S   1 1.00       0.000000000000
      0.1027410000D+00  0.1000000000D+01
 P   1 1.00       0.000000000000
      0.7500000000D+00  0.1000000000D+01
 ****
     25 0
 S   3 1.00       0.000000000000
      0.3386500000D+02  0.2549381454D-01
      0.5094790000D+01  0.1903731086D+00
      0.1158790000D+01  0.8521614860D+00
 S   1 1.00       0.000000000000
      0.3258400000D+00  0.1000000000D+01
 S   1 1.00       0.000000000000
      0.1027410000D+00  0.1000000000D+01
 P   1 1.00       0.000000000000
      0.7500000000D+00  0.1000000000D+01
 ****
     26 0
 S   3 1.00       0.000000000000
      0.3386500000D+02  0.2549381454D-01
      0.5094790000D+01  0.1903731086D+00
      0.1158790000D+01  0.8521614860D+00
 S   1 1.00       0.000000000000
      0.3258400000D+00  0.1000000000D+01
 S   1 1.00       0.000000000000
      0.1027410000D+00  0.1000000000D+01
 P   1 1.00       0.000000000000
      0.7500000000D+00  0.1000000000D+01
 ****
     27 0
 S   3 1.00       0.000000000000
      0.3386500000D+02  0.2549381454D-01
      0.5094790000D+01  0.1903731086D+00
      0.1158790000D+01  0.8521614860D+00
 S   1 1.00       0.000000000000
      0.3258400000D+00  0.1000000000D+01
 S   1 1.00       0.000000000000
      0.1027410000D+00  0.1000000000D+01
 P   1 1.00       0.000000000000
      0.7500000000D+00  0.1000000000D+01
 ****
     28 0
 S   3 1.00       0.000000000000
      0.3386500000D+02  0.2549381454D-01
      0.5094790000D+01  0.1903731086D+00
      0.1158790000D+01  0.8521614860D+00
 S   1 1.00       0.000000000000
      0.3258400000D+00  0.1000000000D+01
 S   1 1.00       0.000000000000
      0.1027410000D+00  0.1000000000D+01
 P   1 1.00       0.000000000000
      0.7500000000D+00  0.1000000000D+01
 ****
     29 0
 S   3 1.00       0.000000000000
      0.3386500000D+02  0.2549381454D-01
      0.5094790000D+01  0.1903731086D+00
      0.1158790000D+01  0.8521614860D+00
 S   1 1.00       0.000000000000
      0.3258400000D+00  0.1000000000D+01
 S   1 1.00       0.000000000000
      0.1027410000D+00  0.1000000000D+01
 P   1 1.00       0.000000000000
      0.7500000000D+00  0.1000000000D+01
 ****
     30 0
 S   3 1.00       0.000000000000
      0.3386500000D+02  0.2549381454D-01
      0.5094790000D+01  0.1903731086D+00
      0.1158790000D+01  0.8521614860D+00
 S   1 1.00       0.000000000000
      0.3258400000D+00  0.1000000000D+01
 S   1 1.00       0.000000000000
      0.1027410000D+00  0.1000000000D+01
 P   1 1.00       0.000000000000
      0.7500000000D+00  0.1000000000D+01
 ****
     31 0
 S   3 1.00       0.000000000000
      0.3386500000D+02  0.2549381454D-01
      0.5094790000D+01  0.1903731086D+00
      0.1158790000D+01  0.8521614860D+00
 S   1 1.00       0.000000000000
      0.3258400000D+00  0.1000000000D+01
 S   1 1.00       0.000000000000
      0.1027410000D+00  0.1000000000D+01
 P   1 1.00       0.000000000000
      0.7500000000D+00  0.1000000000D+01
 ****
     32 0
 S   3 1.00       0.000000000000
      0.3386500000D+02  0.2549381454D-01
      0.5094790000D+01  0.1903731086D+00
      0.1158790000D+01  0.8521614860D+00
 S   1 1.00       0.000000000000
      0.3258400000D+00  0.1000000000D+01
 S   1 1.00       0.000000000000
      0.1027410000D+00  0.1000000000D+01
 P   1 1.00       0.000000000000
      0.7500000000D+00  0.1000000000D+01
 ****
     33 0
 S   3 1.00       0.000000000000
      0.3386500000D+02  0.2549381454D-01
      0.5094790000D+01  0.1903731086D+00
      0.1158790000D+01  0.8521614860D+00
 S   1 1.00       0.000000000000
      0.3258400000D+00  0.1000000000D+01
 S   1 1.00       0.000000000000
      0.1027410000D+00  0.1000000000D+01
 P   1 1.00       0.000000000000
      0.7500000000D+00  0.1000000000D+01
 ****
     34 0
 S   3 1.00       0.000000000000
      0.3386500000D+02  0.2549381454D-01
      0.5094790000D+01  0.1903731086D+00
      0.1158790000D+01  0.8521614860D+00
 S   1 1.00       0.000000000000
      0.3258400000D+00  0.1000000000D+01
 S   1 1.00       0.000000000000
      0.1027410000D+00  0.1000000000D+01
 P   1 1.00       0.000000000000
      0.7500000000D+00  0.1000000000D+01
 ****
     35 0
 S   3 1.00       0.000000000000
      0.3386500000D+02  0.2549381454D-01
      0.5094790000D+01  0.1903731086D+00
      0.1158790000D+01  0.8521614860D+00
 S   1 1.00       0.000000000000
      0.3258400000D+00  0.1000000000D+01
 S   1 1.00       0.000000000000
      0.1027410000D+00  0.1000000000D+01
 P   1 1.00       0.000000000000
      0.7500000000D+00  0.1000000000D+01
 ****
     36 0
 S   3 1.00       0.000000000000
      0.3386500000D+02  0.2549381454D-01
      0.5094790000D+01  0.1903731086D+00
      0.1158790000D+01  0.8521614860D+00
 S   1 1.00       0.000000000000
      0.3258400000D+00  0.1000000000D+01
 S   1 1.00       0.000000000000
      0.1027410000D+00  0.1000000000D+01
 P   1 1.00       0.000000000000
      0.7500000000D+00  0.1000000000D+01
 ****
     37 0
 S   3 1.00       0.000000000000
      0.3386500000D+02  0.2549381454D-01
      0.5094790000D+01  0.1903731086D+00
      0.1158790000D+01  0.8521614860D+00
 S   1 1.00       0.000000000000
      0.3258400000D+00  0.1000000000D+01
 S   1 1.00       0.000000000000
      0.1027410000D+00  0.1000000000D+01
 P   1 1.00       0.000000000000
      0.7500000000D+00  0.1000000000D+01
 ****
     38 0
 S   3 1.00       0.000000000000
      0.3386500000D+02  0.2549381454D-01
      0.5094790000D+01  0.1903731086D+00
      0.1158790000D+01  0.8521614860D+00
 S   1 1.00       0.000000000000
      0.3258400000D+00  0.1000000000D+01
 S   1 1.00       0.000000000000
      0.1027410000D+00  0.1000000000D+01
 P   1 1.00       0.000000000000
      0.7500000000D+00  0.1000000000D+01
 ****
     39 0
 S   3 1.00       0.000000000000
[...]
 0000013,0.00000037,0.00000044,-0.00000083,-0.00000024,0.00000032,-0.00
 000005,-0.00000012,0.00000059,-0.00000146,0.00000076,-0.00000077,-0.00
 000015,0.00000026,-0.00000010,0.00000032,-0.00000070,-0.00000002,-0.00
 000144,-0.00000022,0.00000080,0.00000068,0.00000012,-0.00000012,-0.000
 00019,0.00000101,-0.00000299,-0.00000011,-0.00000017,0.00000022,-0.000
 00328,0.00000136,-0.00000192,0.00000055,-0.00000072,0.00000109,-0.0000
 0177,-0.00000091,-0.00000199,-0.00000021,0.00000088,-0.00000075,0.0000
 0176,-0.00000385,-0.00000010,0.00000149,-0.00000005,0.00000029,-0.0000
 0046,0.00000332,-0.00000017,-0.00000409,-0.00000277,-0.00000331,-0.000
 00246,-0.00000079,0.00000128,0.00000133,-0.00000152,-0.00000183,-0.000
 00141,0.00000244,-0.00000127,-0.00000052,0.00000283,-0.00000020,-0.000
 00971,-0.00000907,0.00000435,0.00000659,-0.00000815,-0.00000983,-0.000
 05312,0.00002746,-0.00005856,-0.00007232,0.00003072,-0.00006071,-0.000
 04383,0.00006079,0.00027595,0.00032071,0.00016943,-0.00001180,-0.00063
 904,0.00059258,-0.00044822,-0.00046844,0.00067224,-0.00056823,0.084303
 14,0.21427989,0.00000076,0.00000028,-0.00000040,-0.00000116,-0.0000010
 9,0.00000062,-0.00000038,-0.00000026,-0.00000010,0.00000223,-0.0000016
 6,-0.00000116,-0.00000069,0.00000047,0.00000016,-0.00000086,-0.0000010
 0,0.00000092,0.00000087,-0.00000059,-0.00000107,0.00000114,-0.00000045
 ,-0.00000112,0.00000007,0.00000210,0.00000306,0.00000151,-0.00000332,-
 0.00000298,0.00000252,0.00000452,0.00000398,0.00000078,-0.00000235,-0.
 00000697,-0.00000009,-0.00000292,0.00001537,0.00000234,0.00000688,-0.0
 0001604,-0.00000297,-0.00004902,0.00000055,-0.00004834,0.00009706,-0.0
 0004860,-0.00002933,-0.00025624,-0.00005401,-0.00032878,0.00044732,-0.
 00030256,-0.00042664,-0.00158689,-0.00007692,-0.00292566,0.00358407,-0
 .00236793,-0.00704776,-0.01752804,-0.01126862,-0.05135599,-0.10159428,
 -0.11402492,-0.00000006,-0.00000019,0.00000018,-0.00000080,0.00000065,
 -0.00000052,0.00000011,0.00000048,0.00000003,0.00000039,0.00000022,0.0
 0000122,0.00000081,0.00000015,-0.00000001,-0.00000145,0.00000041,0.000
 00012,-0.00000062,0.00000148,0.00000087,0.00000063,0.00000015,0.000000
 21,0.00000003,0.00000030,-0.00000113,-0.00000006,-0.00000021,-0.000001
 86,0.00000023,-0.00000049,0.00000062,0.00000021,0.00000058,0.00000082,
 -0.00000124,-0.00000030,0.00000041,-0.00000027,-0.00000021,0.00000123,
 -0.00000273,0.00000114,-0.00000140,-0.00000008,0.00000035,-0.00000018,
 0.00000065,-0.00000132,0.00000025,-0.00000328,-0.00000039,0.00000191,0
 .00000094,0.00000053,-0.00000016,0.00000022,0.00000183,-0.00000550,-0.
 00000032,-0.00000055,-0.00000008,-0.00000756,0.00000309,-0.00000335,0.
 00000095,-0.00000073,0.00000298,-0.00000315,-0.00000092,-0.00000419,-0
 .00000002,0.00000134,-0.00000166,0.00000516,-0.00000875,0.00000081,0.0
 0000202,-0.00000097,0.00000149,0.00000136,0.00000826,0.00000059,-0.000
 02292,-0.00000293,-0.00002257,0.00000336,-0.00000266,-0.00000095,-0.00
 000327,-0.00000595,0.00000379,0.00000994,0.00001002,-0.00001083,-0.000
 00243,0.00000553,0.00001252,0.00002869,-0.00000545,-0.00000329,-0.0000
 0922,-0.00000434,0.00002998,-0.00009978,0.00004334,0.00000461,0.000103
 90,0.00002262,-0.00003281,0.00018945,0.00036899,0.00029850,-0.00017815
 ,-0.00016910,0.00019881,0.00018115,0.00023679,0.00096468,0.00075632,-0
 .00014640,0.00010943,0.05930305,0.11117473,0.12314836,-0.00000037,0.00
 000004,0.00000010,0.00000022,-0.00000027,0.00000050,0.00000023,-0.0000
 0046,0.00000015,-0.00000050,0.00000085,0.00000071,0.00000049,0.0000003
 8,-0.00000071,-0.00000148,-0.00000026,-0.00000071,-0.00000069,0.000000
 40,0.00000124,-0.00000096,-0.00000085,-0.00000004,-0.00000061,-0.00000
 071,0.00000007,-0.00000090,0.00000014,0.00000148,-0.00000091,-0.000000
 99,-0.00000125,-0.00000006,0.00000051,0.00000039,-0.00000122,0.0000008
 2,-0.00000127,-0.00000043,-0.00000124,0.00000159,0.00000070,0.00000669
 ,0.00000142,0.00000586,-0.00001428,0.00000676,0.00001155,0.00003567,0.
 00001714,-0.00000337,-0.00010279,0.00011660,0.00000293,0.00026192,-0.0
 0005204,0.00134152,0.00088174,0.00026775,0.00998907,0.01487261,-0.0159
 6395,-0.09478779,-0.07017103,0.07289636,0.00000028,0.00000025,0.000000
 08,0.00000017,-0.00000024,0.00000018,0.00000018,0.00000031,-0.00000031
 ,0.00000008,-0.00000025,-0.00000044,-0.00000044,0.00000005,-0.00000007
 ,0.00000035,-0.00000005,0.00000005,-0.00000005,-0.00000056,-0.00000039
 ,0.00000002,0.00000007,0.00000013,-0.00000009,-0.00000049,0.00000029,0
 .00000054,-0.00000023,0.00000105,0.00000040,0.00000055,-0.00000090,-0.
 00000041,-0.00000050,-0.00000083,0.00000091,0.00000055,-0.00000034,0.0
 0000061,0.00000080,-0.00000098,0.00000126,-0.00000020,0.00000103,0.000
 00022,0.00000035,0.00000047,-0.00000008,0.00000037,-0.00000038,0.00000
 118,0.00000027,-0.00000129,-0.00000013,0.00000032,0.00000006,-0.000000
 04,-0.00000085,0.00000077,0.00000033,0.00000030,0.00000046,0.00000105,
 -0.00000074,0.00000056,0.00000020,0.00000016,-0.00000016,0.00000063,0.
 ,0.00000080,0.00000048,0.00000011,-0.00000025,-0.00000050,0.00000161,-
 0.00000009,-0.00000002,0.00000006,-0.00000082,-0.00000018,-0.00000002,
 -0.00000141,0.00000315,0.00000047,0.00000335,-0.00000108,-0.00000054,0
 .00000099,0.00000202,0.00000083,-0.00000179,-0.00000052,0.00000201,0.0
 0000302,-0.00000050,0.00000077,-0.00000282,-0.00000296,-0.00000181,0.0
 0000313,-0.00001266,-0.00003186,-0.00002579,-0.00000603,0.00002386,-0.
 00000761,-0.00008441,-0.00011543,0.00011491,-0.00008424,-0.00014391,0.
 00004296,-0.00006345,-0.00035686,0.00036089,0.00116949,-0.00018761,0.0
 0074900,-0.00255455,0.00163611,-0.00394269,-0.00619809,-0.00661020,0.0
 0811361,0.10192630,-0.00000011,0.00000020,0.00000053,0.00000055,0.0000
 0002,-0.00000006,-0.00000002,-0.00000064,0.00000038,-0.00000147,0.0000
 0129,0.00000119,0.00000104,-0.00000040,0.00000058,-0.00000028,-0.00000
 063,0.00000032,-0.00000037,0.00000064,0.00000156,-0.00000098,-0.000000
 27,-0.00000006,-0.00000018,-0.00000199,-0.00000008,-0.00000133,0.00000
 163,0.00000224,-0.00000032,-0.00000273,-0.00000010,-0.00000092,0.00000
 083,0.00000231,-0.00000115,0.00000072,-0.00000502,-0.00000156,-0.00000
 463,0.00000626,-0.00000240,0.00000967,0.00000022,0.00000520,-0.0000232
 1,0.00000821,-0.00000885,0.00003287,0.00000709,0.00004659,-0.00002495,
 0.00000069,0.00008785,0.00017680,-0.00015080,-0.00009430,0.00053056,-0
 .00100402,-0.00475318,-0.00797603,0.00741992,-0.06987238,-0.14710634,0
 .10333654,0.00000022,0.00000003,0.00000009,-0.00000003,0.00000007,-0.0
 0000019,0.00000008,0.00000058,-0.00000036,0.00000005,-0.00000053,-0.00
 000088,-0.00000068,0.00000010,-0.00000009,0.00000076,-0.00000007,0.,0.
 00000028,-0.00000097,-0.00000037,-0.00000023,0.,-0.00000001,-0.0000006
 2,0.00000011,-0.00000016,-0.00000013,-0.00000010,0.00000067,0.00000046
 ,0.00000088,-0.00000132,-0.00000047,-0.00000093,-0.00000129,0.00000123
 ,0.00000058,-0.00000047,0.00000096,0.00000089,-0.00000099,0.00000112,-
 0.00000059,0.00000059,-0.00000009,-0.00000025,0.00000013,-0.00000024,0
 .00000145,-0.00000095,0.00000320,0.00000096,-0.00000178,-0.00000058,-0
 .00000096,0.00000048,-0.00000126,-0.00000034,0.00000144,0.00000022,0.0
 0000022,-0.00000024,0.00000273,-0.00000114,0.00000058,-0.00000020,0.00
 000028,-0.00000018,0.00000146,0.00000049,0.00000194,0.00000106,0.00000
 036,-0.00000135,-0.00000274,0.00000268,0.00000100,0.00000097,0.0000027
 9,-0.00000177,0.00000096,-0.00000119,-0.00000308,0.00000710,0.00000194
 ,0.00000628,0.00000067,-0.00000030,-0.00000057,0.00000257,0.00000533,-
 0.00000122,0.00000177,-0.00000178,-0.00000232,0.00000427,-0.00000597,-
 0.00000101,-0.00000144,0.00000238,-0.00000207,0.00000963,0.00001963,0.
 00001087,0.00002648,-0.00004584,0.00001498,-0.00010204,-0.00001761,-0.
 00014978,0.00005294,0.00004443,-0.00002172,0.00024141,0.00061401,0.000
 28354,0.00000445,-0.00015455,-0.00026097,0.00213228,0.00020615,0.00124
 447,-0.01053949,-0.01532668,0.01656985,0.07587191,0.15838893,-0.000000
 23,-0.00000016,-0.00000050,-0.00000034,0.00000029,0.00000026,0.0000005
 3,0.00000081,-0.00000038,0.00000100,-0.00000073,-0.00000090,-0.0000006
 1,0.00000016,-0.00000028,0.00000110,0.00000102,0.00000029,0.00000019,-
 0.00000011,-0.00000089,0.00000052,0.00000061,0.00000097,0.00000036,0.0
 0000128,-0.00000109,0.00000067,0.00000027,-0.00000081,-0.00000025,0.00
 000131,-0.00000056,0.00000079,0.00000060,0.00000071,0.00000108,0.00000
 015,0.00000018,0.00000227,0.00000469,-0.00000056,0.00000026,-0.0000008
 7,-0.00000340,0.00000161,0.00000818,-0.00000584,0.00000094,-0.00001048
 ,0.00000450,-0.00003700,-0.00002313,0.00001922,-0.00033939,-0.00021444
 ,0.00008512,0.00154432,0.00089154,0.00065495,0.00963120,0.01375548,-0.
 01523766,0.07237749,0.10313701,-0.15326978,-0.00000026,-0.00000018,-0.
 00000016,0.00000029,-0.00000017,0.00000021,-0.00000004,-0.00000062,0.0
 0000041,-0.00000024,0.00000022,0.00000015,0.00000045,-0.00000031,0.000
 00018,-0.00000039,-0.00000007,-0.00000007,-0.00000003,-0.00000003,-0.0
 0000012,-0.00000023,-0.00000032,-0.00000041,0.00000053,0.00000017,0.00
 000047,-0.00000018,0.00000044,-0.00000048,-0.00000050,-0.00000069,0.00
 000115,0.00000035,0.00000049,0.00000068,-0.00000088,-0.00000055,0.0000
 0041,-0.00000086,-0.00000080,0.00000058,-0.00000034,0.00000019,-0.0000
 0039,-0.00000013,-0.00000035,-0.00000056,0.00000007,-0.00000078,0.0000
 0070,-0.00000171,-0.00000038,0.00000106,0.00000011,-0.00000032,-0.0000
 0049,0.00000117,0.00000047,0.00000076,-0.00000045,-0.00000050,-0.00000
 049,-0.00000005,-0.00000009,0.00000051,-0.00000037,-0.00000085,-0.0000
 0113,-0.00000076,-0.00000080,-0.00000113,-0.00000069,-0.00000069,0.000
 00184,0.00000074,-0.00000136,-0.00000118,-0.00000222,-0.00000216,0.000
 00170,-0.00000042,-0.00000214,0.00000423,-0.00000173,-0.00000104,-0.00
 000182,0.00000120,0.00000038,-0.00000207,-0.00000650,-0.00000418,0.000
 00213,0.00000242,-0.00000515,0.00001303,0.00000257,0.00000234,-0.00000
 137,0.00000278,-0.00000040,-0.00000970,-0.00005173,-0.00004758,-0.0000
 1472,0.00004464,0.00001452,-0.00000464,0.00010109,-0.00016015,0.000283
 96,-0.00000427,-0.00001694,-0.00007557,-0.00076920,-0.00079412,-0.0000
 3749,-0.00014373,-0.00037193,0.00104624,-0.00381824,0.00126737,-0.0020
 2168,-0.00758540,-0.01057626,0.01170280,-0.07712571,-0.11643717,0.1669
 8628,0.00000101,0.00000028,-0.00000006,-0.00000047,0.00000085,-0.00000
 083,-0.00000028,0.00000047,0.00000013,0.00000077,-0.00000109,-0.000000
 82,-0.00000057,-0.00000080,0.00000175,0.00000283,0.00000005,0.00000201
 ,0.00000146,-0.00000030,-0.00000151,0.00000162,0.00000146,0.00000022,0
 .00000096,0.00000029,0.00000020,0.00000131,0.00000186,-0.00000129,0.00
 000182,-0.00000060,0.00000250,0.00000039,0.00000152,0.00000192,0.00000
 195,-0.00000203,-0.00000020,0.00000070,0.00000416,0.00000240,-0.000001
 33,-0.00000370,-0.00000230,-0.00000941,0.00000988,0.00000143,0.0000056
 8,-0.00001635,-0.00000089,0.00001941,-0.00000646,-0.00004506,0.0001537
 4,-0.00018616,-0.00036745,0.00058285,0.00066967,0.00161386,-0.01737257
 ,0.01057588,0.01028968,-0.18730999,0.09102031,0.08879284,-0.00000064,-
 0.00000076,-0.00000009,-0.00000042,0.00000058,-0.00000043,-0.00000023,
 -0.00000030,0.00000054,-0.00000014,-0.00000005,0.00000013,0.00000041,-
 0.00000028,0.00000001,-0.00000030,0.00000009,-0.00000009,0.00000027,0.
 00000034,0.00000046,-0.00000026,-0.00000028,-0.00000028,-0.00000028,0.
 00000127,-0.00000086,-0.00000126,0.00000066,-0.00000227,-0.00000045,-0
 .00000058,0.00000132,0.00000057,0.00000048,0.00000090,-0.00000137,-0.0
 0000086,0.00000045,-0.00000065,-0.00000110,0.00000125,-0.00000197,0.00
 000007,-0.00000188,-0.00000071,-0.00000117,-0.00000112,0.00000008,0.00
 000019,0.00000037,-0.00000051,-0.00000004,0.00000142,-0.00000009,-0.00
 000176,-0.00000020,-0.00000079,0.00000206,-0.00000075,-0.00000093,-0.0
 0000110,-0.00000125,-0.00000060,0.00000052,-0.00000119,-0.00000039,-0.
 00000150,-0.00000052,-0.00000118,-0.00000095,-0.00000126,-0.00000018,0
 .00000081,0.00000011,0.00000006,-0.00000374,-0.00000038,0.00000069,0.0
 0000076,0.00000017,0.00000022,0.00000122,0.00000086,-0.00000261,-0.000
 00171,-0.00000315,0.00000407,-0.00000387,-0.00000559,-0.00000130,-0.00
 000007,0.00000036,-0.00000152,0.00000177,0.00000225,0.00001211,-0.0000
 0257,0.00000305,-0.00000751,-0.00004144,-0.00005777,-0.00000916,-0.000
 00267,0.00000302,0.00030538,-0.00012714,0.00011701,-0.00001094,0.00001
 175,0.00004237,0.00003149,-0.00073170,-0.00089684,-0.00007535,-0.00002
 506,-0.00001408,-0.00191128,0.00139849,-0.00388245,0.00107699,-0.00018
 201,-0.00017264,0.01031270,-0.00618752,-0.00620933,-0.01065269,0.00687
 754,0.00617235,0.20485878,-0.00000069,-0.00000023,0.,0.00000034,0.0000
 0009,0.00000014,0.00000025,-0.00000001,-0.00000010,-0.00000084,0.00000
 051,0.00000018,0.00000021,0.00000016,-0.00000087,-0.00000082,0.0000004
 9,-0.00000111,-0.00000095,0.00000023,0.00000062,-0.00000069,-0.0000004
 2,0.00000051,-0.00000051,-0.00000043,-0.00000128,-0.00000115,-0.000000
 22,0.00000097,-0.00000161,-0.00000092,-0.00000211,-0.00000056,-0.00000
 086,0.00000083,-0.00000051,0.00000236,-0.00000456,-0.00000041,-0.00000
 465,0.00000343,0.00000047,0.00001033,-0.00000266,0.00000787,-0.0000190
 5,0.00000379,0.00000296,0.00002846,-0.00000744,-0.00001214,-0.00002128
 ,0.00003920,-0.00014739,0.00009107,0.00004892,-0.00099670,0.00040694,-
 0.00007039,0.00871513,-0.00644666,-0.00525515,0.09112781,-0.10610760,-
 0.05754693,0.00000023,0.00000040,-0.00000006,0.00000054,-0.00000062,0.
 00000045,0.00000009,-0.00000011,-0.00000020,-0.00000015,0.00000006,-0.
 00000038,-0.00000031,0.00000012,0.00000007,0.00000070,-0.00000026,-0.0
 0000006,0.00000006,-0.00000031,-0.00000025,-0.00000007,0.00000011,0.00
 000005,0.00000020,-0.00000068,0.00000087,0.00000052,-0.00000027,0.0000
 0166,0.00000002,0.00000033,-0.00000070,-0.00000024,-0.00000024,-0.0000
 0029,0.00000092,0.00000040,-0.00000023,0.00000013,0.00000042,-0.000000
 84,0.00000172,-0.00000032,0.00000126,0.00000036,0.00000048,0.00000052,
 -0.00000024,0.00000013,-0.00000018,0.00000095,0.00000015,-0.00000096,-
 0.00000025,0.00000083,0.00000018,0.00000052,-0.00000149,0.00000224,0.0
 0000053,0.00000082,0.00000053,0.00000273,-0.00000110,0.00000181,-0.000
 00017,0.00000125,-0.00000070,0.00000150,0.00000090,0.00000180,-0.00000
 014,-0.00000117,0.00000076,-0.00000136,0.00000461,0.,-0.00000150,-0.00
 000025,0.00000014,-0.00000024,-0.00000404,0.00000065,0.00000613,0.0000
 0239,0.00000617,-0.00000120,0.00000322,0.00000050,-0.00000080,0.000000
 90,0.00000030,0.00000046,-0.00000606,0.00000553,-0.00000192,-0.0000035
 9,0.00000072,0.00001045,0.00001773,0.00000775,-0.00000404,0.00000256,-
 0.00000143,-0.00011949,-0.00002748,-0.00008749,0.00001955,-0.00004753,
 0.00002725,0.00014056,0.00054155,0.00021420,-0.00004589,0.00004738,0.0
 0006744,0.00135981,0.00007156,0.00205700,-0.00019300,-0.00017951,-0.00
 019614,0.01903842,-0.01188573,-0.01121560,-0.01585865,0.01065109,0.009
 58907,-0.10304751,0.11287308,-0.00000091,-0.00000016,-0.00000032,0.000
 00004,-0.00000050,0.00000104,0.00000060,-0.00000008,-0.00000016,-0.000
 00002,0.00000052,0.00000012,0.00000026,0.00000067,-0.00000142,-0.00000
 166,0.00000025,-0.00000090,-0.00000106,0.00000033,0.00000089,-0.000001
 18,-0.00000089,0.00000050,-0.00000058,-0.00000022,-0.00000067,-0.00000
 101,-0.00000020,0.00000114,-0.00000107,-0.00000061,-0.00000134,-0.0000
 0004,0.00000056,0.00000027,-0.00000102,0.00000086,-0.00000116,-0.00000
 018,-0.00000068,0.00000164,0.00000011,0.00000775,0.00000132,0.00000881
 ,-0.00001621,0.00000527,0.00001120,0.00003886,0.00001741,0.00012992,-0
 .00009110,-0.00000575,-0.00009843,0.00025703,0.00001933,-0.00001483,0.
 00082540,0.00154371,-0.01807789,0.01116593,0.01060426,0.08936801,-0.05
 777751,-0.10185260,0.00000036,0.00000047,0.00000001,0.00000048,-0.0000
 0060,0.00000048,0.00000025,0.00000009,-0.00000025,-0.00000005,-0.00000
 004,-0.00000027,-0.00000018,0.00000002,0.00000007,0.00000015,-0.000000
 13,-0.00000002,-0.00000016,-0.00000049,-0.00000047,0.,0.00000002,0.,0.
 00000038,-0.00000083,0.00000082,0.00000084,-0.00000022,0.00000143,0.00
 000024,0.00000037,-0.00000068,-0.00000031,-0.00000025,-0.00000051,0.00
 000075,0.00000045,-0.00000020,0.00000035,0.00000065,-0.00000102,0.0000
 0158,-0.00000007,0.00000135,0.00000028,0.00000059,0.00000046,-0.000000
 10,0.,-0.00000030,0.00000072,0.00000012,-0.00000120,0.00000004,0.00000
 048,0.,0.00000059,-0.00000089,0.00000117,0.00000038,0.00000059,0.00000
 046,0.00000139,-0.00000100,0.00000100,0.00000005,0.00000018,-0.0000003
 9,0.00000065,0.00000008,0.00000055,0.00000018,-0.00000025,-0.00000007,
 -0.00000078,0.00000183,0.00000007,-0.00000043,-0.00000012,-0.00000028,
 -0.00000022,-0.00000094,-0.00000075,0.00000429,0.00000085,0.00000400,-
 0.00000228,0.00000010,0.00000128,0.00000077,0.00000068,-0.00000105,-0.
 00000218,0.00000036,0.00000023,0.00000318,0.00000101,-0.00000050,-0.00
 001943,-0.00003367,-0.00002017,0.00000254,0.00000014,-0.00000356,0.000
 13377,-0.00010033,-0.00009729,-0.00000819,0.00001862,0.00000164,0.0004
 0463,-0.00027178,-0.00012207,0.00005666,-0.00012107,-0.00009063,-0.003
 94777,0.00155056,-0.00253139,0.00074355,-0.00027954,0.00116098,0.01226
 144,-0.00661412,-0.00824795,0.01442501,-0.01087250,-0.01011737,-0.0953
 8251,0.06231060,0.10972982\\0.00000002,0.00000004,0.,0.00000005,0.0000
 0016,0.00000011,-0.00000016,-0.00000036,0.00000008,-0.00000007,-0.0000
 0014,0.00000005,-0.00000013,-0.00000042,-0.00000029,0.,0.,0.,-0.000000
 22,-0.00000061,-0.00000018,0.00000013,0.00000018,-0.00000039,0.0000002
 1,0.00000036,-0.00000041,0.00000010,0.00000009,-0.00000039,0.00000018,
 0.00000027,-0.00000047,0.00000025,0.00000055,-0.00000015,0.00000033,0.
 00000072,-0.00000022,0.00000022,0.00000046,-0.00000021,0.00000030,0.00
 000065,-0.00000025,0.00000020,0.00000039,-0.00000027,0.00000006,0.0000
 0020,0.00000011,-0.00000003,-0.00000004,0.00000009,-0.00000017,-0.0000
 0023,0.00000046,-0.00000026,-0.00000047,0.00000045,-0.00000040,-0.0000
 0066,0.00000082,-0.00000049,-0.00000090,0.00000080,0.00000008,0.000000
 07,-0.00000031,0.00000006,0.00000021,0.00000015,0.00000005,0.00000027,
 0.00000041,0.00000017,0.00000040,-0.00000006,-0.00000022,-0.00000040,0
 .00000039,-0.00000019,-0.00000044,0.00000003,-0.00000017,-0.00000030,0
 .00000031,-0.00000003,-0.00000027,-0.00000055,-0.00000020,-0.00000062,
 -0.00000035,-0.00000010,-0.00000022,0.00000003,0.00000005,0.00000020,0
 .00000024,-0.00000035,-0.00000086,-0.00000002,-0.00000022,-0.00000071,
 -0.00000045,0.00000008,-0.00000003,-0.00000063,0.00000022,0.00000038,-
 0.00000044,0.00000031,0.00000051,-0.00000067,0.00000026,0.00000057,-0.
 00000016,0.00000004,-0.00000013,-0.00000061,0.,-0.00000003,-0.00000011
 ,0.00000009,0.00000005,-0.00000050,0.00000028,0.00000040,-0.00000075,0
 .00000033,0.00000077,-0.00000012,0.00000015,0.00000042,0.00000014,0.00
 000042,0.00000085,-0.00000050,0.00000039,0.00000095,0.,0.00000012,0.00
 000032,0.00000007,0.00000017,0.00000024,-0.00000044,0.00000035,0.00000
 086,-0.00000001,0.00000041,0.00000080,-0.00000052,0.00000028,0.0000005
 5,-0.00000034,0.00000015,0.00000019,-0.00000051,0.00000011,0.00000040,
 0.00000035,-0.00000002,0.00000002,0.00000017,0.00000005,0.00000014,0.0
 0000003,-0.00000007,-0.00000024,-0.00000016,-0.00000025,-0.00000040,0.
 00000053,-0.00000012,-0.00000003,0.00000071,-0.00000018,-0.00000029,0.
 00000038,-0.00000030,-0.00000067,0.00000020,-0.00000048,-0.00000083,0.
 00000088,-0.00000035,-0.00000046,0.00000107,-0.00000059,-0.00000103,0.
 00000107,-0.00000054,-0.00000111,0.00000056,-0.00000041,-0.00000073,0.
 00000075\\\@


 IT IS A PROFOUNDLY ERRONEOUS TRUISM ... THAT WE SHOULD CULTIVATE
 THE HABIT OF THINKING OF WHAT WE ARE DOING.
 THE PRECISE OPPOSITE IS THE CASE.
 CIVILIZATION ADVANCES BY EXTENDING THE NUMBER OF IMPORTANT OPERATIONS
 WHICH WE CAN PERFORM WITHOUT THINKING ABOUT THEM.

                                    -- ALFRED NORTH WHITEHEAD
 Job cpu time:       1 days 21 hours 49 minutes 12.3 seconds.
 File lengths (MBytes):  RWF=   5172 Int=      0 D2E=      0 Chk=     42 Scr=      1
 Normal termination of Gaussian 09 at Mon Apr 27 20:08:43 2015.
