 Entering Gaussian System, Link 0=g09
 Input=0_0freq-b971_86301-94-2.gau
 Output=0_0freq-b971_86301-94-2.log
 Initial command:
 /opt/g09/l1.exe "/scratch/pb556/g09_run/add_hco//Gau-4232.inp" -scrdir="/scratch/pb556/g09_run/add_hco//"
 Entering Link 1 = /opt/g09/l1.exe PID=      4241.
  
 Copyright (c) 1988,1990,1992,1993,1995,1998,2003,2009,2013,
            Gaussian, Inc.  All Rights Reserved.
  
 This is part of the Gaussian(R) 09 program.  It is based on
 the Gaussian(R) 03 system (copyright 2003, Gaussian, Inc.),
 the Gaussian(R) 98 system (copyright 1998, Gaussian, Inc.),
 the Gaussian(R) 94 system (copyright 1995, Gaussian, Inc.),
 the Gaussian 92(TM) system (copyright 1992, Gaussian, Inc.),
 the Gaussian 90(TM) system (copyright 1990, Gaussian, Inc.),
 the Gaussian 88(TM) system (copyright 1988, Gaussian, Inc.),
 the Gaussian 86(TM) system (copyright 1986, Carnegie Mellon
 University), and the Gaussian 82(TM) system (copyright 1983,
 Carnegie Mellon University). Gaussian is a federally registered
 trademark of Gaussian, Inc.
  
 This software contains proprietary and confidential information,
 including trade secrets, belonging to Gaussian, Inc.
  
 This software is provided under written license and may be
 used, copied, transmitted, or stored only in accord with that
 written license.
  
 The following legend is applicable only to US Government
 contracts under FAR:
  
                    RESTRICTED RIGHTS LEGEND
  
 Use, reproduction and disclosure by the US Government is
 subject to restrictions as set forth in subparagraphs (a)
 and (c) of the Commercial Computer Software - Restricted
 Rights clause in FAR 52.227-19.
  
 Gaussian, Inc.
 340 Quinnipiac St., Bldg. 40, Wallingford CT 06492
  
  
 ---------------------------------------------------------------
 Warning -- This program may not be used in any manner that
 competes with the business of Gaussian, Inc. or will provide
 assistance to any competitor of Gaussian, Inc.  The licensee
 of this program is prohibited from giving any competitor of
 Gaussian, Inc. access to this program.  By using this program,
 the user acknowledges that Gaussian, Inc. is engaged in the
 business of creating and licensing software in the field of
 computational chemistry and represents and warrants to the
 licensee that it is not a competitor of Gaussian, Inc. and that
 it will not use this program in any manner prohibited above.
 ---------------------------------------------------------------
  

 Cite this work as:
 Gaussian 09, Revision D.01,
 M. J. Frisch, G. W. Trucks, H. B. Schlegel, G. E. Scuseria, 
 M. A. Robb, J. R. Cheeseman, G. Scalmani, V. Barone, B. Mennucci, 
 G. A. Petersson, H. Nakatsuji, M. Caricato, X. Li, H. P. Hratchian, 
 A. F. Izmaylov, J. Bloino, G. Zheng, J. L. Sonnenberg, M. Hada, 
 M. Ehara, K. Toyota, R. Fukuda, J. Hasegawa, M. Ishida, T. Nakajima, 
 Y. Honda, O. Kitao, H. Nakai, T. Vreven, J. A. Montgomery, Jr., 
 J. E. Peralta, F. Ogliaro, M. Bearpark, J. J. Heyd, E. Brothers, 
 K. N. Kudin, V. N. Staroverov, T. Keith, R. Kobayashi, J. Normand, 
 K. Raghavachari, A. Rendell, J. C. Burant, S. S. Iyengar, J. Tomasi, 
 M. Cossi, N. Rega, J. M. Millam, M. Klene, J. E. Knox, J. B. Cross, 
 V. Bakken, C. Adamo, J. Jaramillo, R. Gomperts, R. E. Stratmann, 
 O. Yazyev, A. J. Austin, R. Cammi, C. Pomelli, J. W. Ochterski, 
 R. L. Martin, K. Morokuma, V. G. Zakrzewski, G. A. Voth, 
 P. Salvador, J. J. Dannenberg, S. Dapprich, A. D. Daniels, 
 O. Farkas, J. B. Foresman, J. V. Ortiz, J. Cioslowski, 
 and D. J. Fox, Gaussian, Inc., Wallingford CT, 2013.
 
 ******************************************
 Gaussian 09:  ES64L-G09RevD.01 24-Apr-2013
                27-Apr-2015 
 ******************************************
 %NProcShared=8
 Will use up to    8 processors via shared memory.
 %Mem=500MW
 ----------------------------------------------------------------------
 #p rB971/6-311+G(d,p) Opt=(Tight, CalcAll) Freq GFInput Population=Non
 e Integral(Grid=UltraFine) Guess=MIX NoSymmetry
 ----------------------------------------------------------------------
 1/7=10,10=4,14=-1,18=20,19=15,26=4,38=1/1,3;
 2/9=110,12=2,15=1,17=6,18=5,40=1/2;
 3/5=4,6=6,7=111,11=2,16=1,24=10,25=1,30=1,71=2,74=-20,75=-5,116=1,140=1/1,2,3;
 4/13=-1/1;
 5/5=2,38=5/2;
 8/6=4,10=90,11=11/1;
 11/6=1,8=1,9=11,15=111,16=1,31=1/1,2,10;
 10/6=1,31=1/2;
 7/10=1,25=1,30=1/1,2,3,16;
 1/7=10,10=4,14=-1,18=20,19=15,26=4/3(3);
 2/9=110,15=1/2;
 7/8=1,9=1,25=1,30=1,44=-1/16;
 99//99;
 2/9=110,15=1/2;
 3/5=4,6=6,7=111,11=2,16=1,25=1,30=1,71=2,74=-20,75=-5,116=1,140=1/1,2,3;
 4/5=5,16=3,69=1/1;
 5/5=2,38=5/2;
 8/6=4,10=90,11=11/1;
 11/6=1,8=1,9=11,15=111,16=1,31=1/1,2,10;
 10/6=1,31=1/2;
 7/10=1,25=1,30=1/1,2,3,16;
 1/7=10,10=4,14=-1,18=20,19=15,26=4/3(-8);
 2/9=110,15=1/2;
 7/8=1,9=1,25=1,30=1,44=-1/16;
 99//99;
 Leave Link    1 at Mon Apr 27 10:47:42 2015, MaxMem=   524288000 cpu:         0.5
 (Enter /opt/g09/l101.exe)
 ----------------------------------------------------------------------
 W:\Data\additional_hydrocarbons\nist\enthalpy_estimation\success\fine\
 b971_86301-94-2.g09
 ----------------------------------------------------------------------
 Symbolic Z-matrix:
 Charge =  0 Multiplicity = 1
 C                     2.18082   3.80412   4.28868 
 C                     1.91025   2.71236   3.24988 
 C                     2.75542   4.96458   3.46804 
 C                     0.76294   3.32987   4.02973 
 C                     2.34349   3.34058   1.91842 
 C                     3.90764   3.43261   1.91098 
 C                     2.02106   4.8267    2.12834 
 C                     4.19046   4.54904   3.00424 
 C                     4.72304   2.18795   2.3197 
 C                     5.1035    3.91167   4.0482 
 C                     0.76211   5.54269   1.71315 
 C                     2.0872    5.8594    1.02949 
 C                     5.41021   2.47835   3.6409 
 C                     6.50309   3.53522   3.6032 
 C                     5.45712   1.37093   1.26601 
 C                     4.2637    0.779     1.99091 
 H                     2.63947   3.55899   5.24074 
 H                     2.17515   1.68097   3.451 
 H                     2.70514   5.95074   3.94054 
 H                     0.04501   3.9756    3.53957 
 H                     0.33915   2.69737   4.8043 
 H                     1.91368   2.88643   1.01959 
 H                     4.22355   3.78064   0.92161 
 H                     4.67408   5.42098   2.54793 
 H                     4.96455   4.17071   5.09408 
 H                     0.01902   4.98918   1.14512 
 H                     0.34866   6.28845   2.38703 
 H                     2.22424   5.5161    0.00752 
 H                     2.55489   6.81553   1.24856 
 H                     5.47966   1.68528   4.3808 
 H                     7.2763    3.49186   4.36457 
 H                     6.84585   3.8736    2.62796 
 H                     5.32801   1.64956   0.22338 
 H                     6.44557   0.99668   1.51676 
 H                     4.44632  -0.00113   2.72534 
 H                     3.34027   0.65899   1.43143 
 
 NAtoms=     36 NQM=       36 NQMF=       0 NMMI=      0 NMMIF=      0
                NMic=       0 NMicF=      0.
                    Isotopes and Nuclear Properties:
 (Nuclear quadrupole moments (NQMom) in fm**2, nuclear magnetic moments (NMagM)
  in nuclear magnetons)

  Atom         1           2           3           4           5           6           7           8           9          10
 IAtWgt=          12          12          12          12          12          12          12          12          12          12
 AtmWgt=  12.0000000  12.0000000  12.0000000  12.0000000  12.0000000  12.0000000  12.0000000  12.0000000  12.0000000  12.0000000
 NucSpn=           0           0           0           0           0           0           0           0           0           0
 AtZEff=   0.0000000   0.0000000   0.0000000   0.0000000   0.0000000   0.0000000   0.0000000   0.0000000   0.0000000   0.0000000
 NQMom=    0.0000000   0.0000000   0.0000000   0.0000000   0.0000000   0.0000000   0.0000000   0.0000000   0.0000000   0.0000000
 NMagM=    0.0000000   0.0000000   0.0000000   0.0000000   0.0000000   0.0000000   0.0000000   0.0000000   0.0000000   0.0000000
 AtZNuc=   6.0000000   6.0000000   6.0000000   6.0000000   6.0000000   6.0000000   6.0000000   6.0000000   6.0000000   6.0000000

  Atom        11          12          13          14          15          16          17          18          19          20
 IAtWgt=          12          12          12          12          12          12           1           1           1           1
 AtmWgt=  12.0000000  12.0000000  12.0000000  12.0000000  12.0000000  12.0000000   1.0078250   1.0078250   1.0078250   1.0078250
 NucSpn=           0           0           0           0           0           0           1           1           1           1
 AtZEff=   0.0000000   0.0000000   0.0000000   0.0000000   0.0000000   0.0000000   0.0000000   0.0000000   0.0000000   0.0000000
 NQMom=    0.0000000   0.0000000   0.0000000   0.0000000   0.0000000   0.0000000   0.0000000   0.0000000   0.0000000   0.0000000
 NMagM=    0.0000000   0.0000000   0.0000000   0.0000000   0.0000000   0.0000000   2.7928460   2.7928460   2.7928460   2.7928460
 AtZNuc=   6.0000000   6.0000000   6.0000000   6.0000000   6.0000000   6.0000000   1.0000000   1.0000000   1.0000000   1.0000000

  Atom        21          22          23          24          25          26          27          28          29          30
 IAtWgt=           1           1           1           1           1           1           1           1           1           1
 AtmWgt=   1.0078250   1.0078250   1.0078250   1.0078250   1.0078250   1.0078250   1.0078250   1.0078250   1.0078250   1.0078250
 NucSpn=           1           1           1           1           1           1           1           1           1           1
 AtZEff=   0.0000000   0.0000000   0.0000000   0.0000000   0.0000000   0.0000000   0.0000000   0.0000000   0.0000000   0.0000000
 NQMom=    0.0000000   0.0000000   0.0000000   0.0000000   0.0000000   0.0000000   0.0000000   0.0000000   0.0000000   0.0000000
 NMagM=    2.7928460   2.7928460   2.7928460   2.7928460   2.7928460   2.7928460   2.7928460   2.7928460   2.7928460   2.7928460
 AtZNuc=   1.0000000   1.0000000   1.0000000   1.0000000   1.0000000   1.0000000   1.0000000   1.0000000   1.0000000   1.0000000

  Atom        31          32          33          34          35          36
 IAtWgt=           1           1           1           1           1           1
 AtmWgt=   1.0078250   1.0078250   1.0078250   1.0078250   1.0078250   1.0078250
 NucSpn=           1           1           1           1           1           1
 AtZEff=   0.0000000   0.0000000   0.0000000   0.0000000   0.0000000   0.0000000
 NQMom=    0.0000000   0.0000000   0.0000000   0.0000000   0.0000000   0.0000000
 NMagM=    2.7928460   2.7928460   2.7928460   2.7928460   2.7928460   2.7928460
 AtZNuc=   1.0000000   1.0000000   1.0000000   1.0000000   1.0000000   1.0000000
 Leave Link  101 at Mon Apr 27 10:47:43 2015, MaxMem=   524288000 cpu:         2.0
 (Enter /opt/g09/l103.exe)

 GradGradGradGradGradGradGradGradGradGradGradGradGradGradGradGradGradGrad
 Berny optimization.
 Initialization pass.
                           ----------------------------
                           !    Initial Parameters    !
                           ! (Angstroms and Degrees)  !
 --------------------------                            --------------------------
 ! Name  Definition              Value          Derivative Info.                !
 --------------------------------------------------------------------------------
 ! R1    R(1,2)                  1.5311         calculate D2E/DX2 analytically  !
 ! R2    R(1,3)                  1.5331         calculate D2E/DX2 analytically  !
 ! R3    R(1,4)                  1.5174         calculate D2E/DX2 analytically  !
 ! R4    R(1,17)                 1.0848         calculate D2E/DX2 analytically  !
 ! R5    R(2,4)                  1.5185         calculate D2E/DX2 analytically  !
 ! R6    R(2,5)                  1.5346         calculate D2E/DX2 analytically  !
 ! R7    R(2,18)                 1.0837         calculate D2E/DX2 analytically  !
 ! R8    R(3,7)                  1.534          calculate D2E/DX2 analytically  !
 ! R9    R(3,8)                  1.5643         calculate D2E/DX2 analytically  !
 ! R10   R(3,19)                 1.0947         calculate D2E/DX2 analytically  !
 ! R11   R(4,20)                 1.0829         calculate D2E/DX2 analytically  !
 ! R12   R(4,21)                 1.0861         calculate D2E/DX2 analytically  !
 ! R13   R(5,6)                  1.5669         calculate D2E/DX2 analytically  !
 ! R14   R(5,7)                  1.5351         calculate D2E/DX2 analytically  !
 ! R15   R(5,22)                 1.0949         calculate D2E/DX2 analytically  !
 ! R16   R(6,8)                  1.588          calculate D2E/DX2 analytically  !
 ! R17   R(6,9)                  1.5431         calculate D2E/DX2 analytically  !
 ! R18   R(6,23)                 1.0953         calculate D2E/DX2 analytically  !
 ! R19   R(7,11)                 1.5066         calculate D2E/DX2 analytically  !
 ! R20   R(7,12)                 1.5094         calculate D2E/DX2 analytically  !
 ! R21   R(8,10)                 1.5263         calculate D2E/DX2 analytically  !
 ! R22   R(8,24)                 1.0965         calculate D2E/DX2 analytically  !
 ! R23   R(9,13)                 1.5173         calculate D2E/DX2 analytically  !
 ! R24   R(9,15)                 1.5221         calculate D2E/DX2 analytically  !
 ! R25   R(9,16)                 1.518          calculate D2E/DX2 analytically  !
 ! R26   R(10,13)                1.5213         calculate D2E/DX2 analytically  !
 ! R27   R(10,14)                1.5161         calculate D2E/DX2 analytically  !
 ! R28   R(10,25)                1.0864         calculate D2E/DX2 analytically  !
 ! R29   R(11,12)                1.5243         calculate D2E/DX2 analytically  !
 ! R30   R(11,26)                1.0868         calculate D2E/DX2 analytically  !
 ! R31   R(11,27)                1.0868         calculate D2E/DX2 analytically  !
 ! R32   R(12,28)                1.0868         calculate D2E/DX2 analytically  !
 ! R33   R(12,29)                1.0867         calculate D2E/DX2 analytically  !
 ! R34   R(13,14)                1.5208         calculate D2E/DX2 analytically  !
 ! R35   R(13,30)                1.0868         calculate D2E/DX2 analytically  !
 ! R36   R(14,31)                1.086          calculate D2E/DX2 analytically  !
 ! R37   R(14,32)                1.0877         calculate D2E/DX2 analytically  !
 ! R38   R(15,16)                1.5166         calculate D2E/DX2 analytically  !
 ! R39   R(15,33)                1.0869         calculate D2E/DX2 analytically  !
 ! R40   R(15,34)                1.0863         calculate D2E/DX2 analytically  !
 ! R41   R(16,35)                1.0869         calculate D2E/DX2 analytically  !
 ! R42   R(16,36)                1.0863         calculate D2E/DX2 analytically  !
 ! A1    A(2,1,3)              104.0523         calculate D2E/DX2 analytically  !
 ! A2    A(2,1,17)             120.5985         calculate D2E/DX2 analytically  !
 ! A3    A(3,1,4)              119.7007         calculate D2E/DX2 analytically  !
 ! A4    A(3,1,17)             118.8396         calculate D2E/DX2 analytically  !
 ! A5    A(4,1,17)             118.3083         calculate D2E/DX2 analytically  !
 ! A6    A(1,2,5)              104.2915         calculate D2E/DX2 analytically  !
 ! A7    A(1,2,18)             120.6327         calculate D2E/DX2 analytically  !
 ! A8    A(4,2,5)              119.4986         calculate D2E/DX2 analytically  !
 ! A9    A(4,2,18)             118.4514         calculate D2E/DX2 analytically  !
 ! A10   A(5,2,18)             118.7906         calculate D2E/DX2 analytically  !
 ! A11   A(1,3,7)              102.7109         calculate D2E/DX2 analytically  !
 ! A12   A(1,3,8)              107.5454         calculate D2E/DX2 analytically  !
 ! A13   A(1,3,19)             115.6997         calculate D2E/DX2 analytically  !
 ! A14   A(7,3,8)               98.9952         calculate D2E/DX2 analytically  !
 ! A15   A(7,3,19)             115.8462         calculate D2E/DX2 analytically  !
 ! A16   A(8,3,19)             114.168          calculate D2E/DX2 analytically  !
 ! A17   A(1,4,20)             120.6896         calculate D2E/DX2 analytically  !
 ! A18   A(1,4,21)             115.1458         calculate D2E/DX2 analytically  !
 ! A19   A(2,4,20)             120.7271         calculate D2E/DX2 analytically  !
 ! A20   A(2,4,21)             115.1034         calculate D2E/DX2 analytically  !
 ! A21   A(20,4,21)            114.2916         calculate D2E/DX2 analytically  !
 ! A22   A(2,5,6)              108.0579         calculate D2E/DX2 analytically  !
 ! A23   A(2,5,7)              102.6126         calculate D2E/DX2 analytically  !
 ! A24   A(2,5,22)             115.5693         calculate D2E/DX2 analytically  !
 ! A25   A(6,5,7)               98.8275         calculate D2E/DX2 analytically  !
 ! A26   A(6,5,22)             114.351          calculate D2E/DX2 analytically  !
 ! A27   A(7,5,22)             115.5527         calculate D2E/DX2 analytically  !
 ! A28   A(5,6,8)              102.4635         calculate D2E/DX2 analytically  !
 ! A29   A(5,6,9)              118.6117         calculate D2E/DX2 analytically  !
 ! A30   A(5,6,23)             108.1112         calculate D2E/DX2 analytically  !
 ! A31   A(8,6,9)              106.8952         calculate D2E/DX2 analytically  !
 ! A32   A(8,6,23)             110.3104         calculate D2E/DX2 analytically  !
 ! A33   A(9,6,23)             110.0677         calculate D2E/DX2 analytically  !
 ! A34   A(3,7,5)               96.0785         calculate D2E/DX2 analytically  !
 ! A35   A(3,7,11)             126.7255         calculate D2E/DX2 analytically  !
 ! A36   A(3,7,12)             123.5954         calculate D2E/DX2 analytically  !
 ! A37   A(5,7,11)             126.718          calculate D2E/DX2 analytically  !
 ! A38   A(5,7,12)             123.6133         calculate D2E/DX2 analytically  !
 ! A39   A(3,8,6)              103.1496         calculate D2E/DX2 analytically  !
 ! A40   A(3,8,10)             117.1864         calculate D2E/DX2 analytically  !
 ! A41   A(3,8,24)             108.4662         calculate D2E/DX2 analytically  !
 ! A42   A(6,8,10)             106.4895         calculate D2E/DX2 analytically  !
 ! A43   A(6,8,24)             110.5552         calculate D2E/DX2 analytically  !
 ! A44   A(10,8,24)            110.6614         calculate D2E/DX2 analytically  !
 ! A45   A(6,9,13)             108.3961         calculate D2E/DX2 analytically  !
 ! A46   A(6,9,15)             120.2958         calculate D2E/DX2 analytically  !
 ! A47   A(6,9,16)             122.1003         calculate D2E/DX2 analytically  !
 ! A48   A(13,9,15)            119.152          calculate D2E/DX2 analytically  !
 ! A49   A(13,9,16)            120.219          calculate D2E/DX2 analytically  !
 ! A50   A(8,10,13)            109.3241         calculate D2E/DX2 analytically  !
 ! A51   A(8,10,14)            117.0743         calculate D2E/DX2 analytically  !
 ! A52   A(8,10,25)            118.8405         calculate D2E/DX2 analytically  !
 ! A53   A(13,10,25)           120.5425         calculate D2E/DX2 analytically  !
 ! A54   A(14,10,25)           117.3767         calculate D2E/DX2 analytically  !
 ! A55   A(7,11,26)            118.2498         calculate D2E/DX2 analytically  !
 ! A56   A(7,11,27)            118.2354         calculate D2E/DX2 analytically  !
 ! A57   A(12,11,26)           117.7596         calculate D2E/DX2 analytically  !
 ! A58   A(12,11,27)           117.7889         calculate D2E/DX2 analytically  !
 ! A59   A(26,11,27)           114.4199         calculate D2E/DX2 analytically  !
 ! A60   A(7,12,28)            118.294          calculate D2E/DX2 analytically  !
 ! A61   A(7,12,29)            118.2988         calculate D2E/DX2 analytically  !
 ! A62   A(11,12,28)           117.7584         calculate D2E/DX2 analytically  !
 ! A63   A(11,12,29)           117.8086         calculate D2E/DX2 analytically  !
 ! A64   A(28,12,29)           114.4086         calculate D2E/DX2 analytically  !
 ! A65   A(9,13,10)            108.7931         calculate D2E/DX2 analytically  !
 ! A66   A(9,13,14)            115.9057         calculate D2E/DX2 analytically  !
 ! A67   A(9,13,30)            118.8215         calculate D2E/DX2 analytically  !
 ! A68   A(10,13,30)           121.2058         calculate D2E/DX2 analytically  !
 ! A69   A(14,13,30)           118.5588         calculate D2E/DX2 analytically  !
 ! A70   A(10,14,31)           117.4771         calculate D2E/DX2 analytically  !
 ! A71   A(10,14,32)           118.4785         calculate D2E/DX2 analytically  !
 ! A72   A(13,14,31)           117.8086         calculate D2E/DX2 analytically  !
 ! A73   A(13,14,32)           117.7027         calculate D2E/DX2 analytically  !
 ! A74   A(31,14,32)           114.6232         calculate D2E/DX2 analytically  !
 ! A75   A(9,15,33)            117.9811         calculate D2E/DX2 analytically  !
 ! A76   A(9,15,34)            117.6455         calculate D2E/DX2 analytically  !
 ! A77   A(16,15,33)           117.7154         calculate D2E/DX2 analytically  !
 ! A78   A(16,15,34)           118.1147         calculate D2E/DX2 analytically  !
 ! A79   A(33,15,34)           114.6984         calculate D2E/DX2 analytically  !
 ! A80   A(9,16,35)            117.97           calculate D2E/DX2 analytically  !
 ! A81   A(9,16,36)            118.1193         calculate D2E/DX2 analytically  !
 ! A82   A(15,16,35)           118.0926         calculate D2E/DX2 analytically  !
 ! A83   A(15,16,36)           117.765          calculate D2E/DX2 analytically  !
 ! A84   A(35,16,36)           114.3011         calculate D2E/DX2 analytically  !
 ! D1    D(3,1,2,5)             -0.3595         calculate D2E/DX2 analytically  !
 ! D2    D(3,1,2,18)           136.3963         calculate D2E/DX2 analytically  !
 ! D3    D(17,1,2,5)          -136.8862         calculate D2E/DX2 analytically  !
 ! D4    D(17,1,2,18)           -0.1304         calculate D2E/DX2 analytically  !
 ! D5    D(2,1,3,7)             32.8862         calculate D2E/DX2 analytically  !
 ! D6    D(2,1,3,8)            -70.9658         calculate D2E/DX2 analytically  !
 ! D7    D(2,1,3,19)           160.0807         calculate D2E/DX2 analytically  !
 ! D8    D(4,1,3,7)            -30.0424         calculate D2E/DX2 analytically  !
 ! D9    D(4,1,3,8)           -133.8944         calculate D2E/DX2 analytically  !
 ! D10   D(4,1,3,19)            97.1522         calculate D2E/DX2 analytically  !
 ! D11   D(17,1,3,7)           170.3494         calculate D2E/DX2 analytically  !
 ! D12   D(17,1,3,8)            66.4974         calculate D2E/DX2 analytically  !
 ! D13   D(17,1,3,19)          -62.4561         calculate D2E/DX2 analytically  !
 ! D14   D(3,1,4,20)           -20.8478         calculate D2E/DX2 analytically  !
 ! D15   D(3,1,4,21)          -164.6579         calculate D2E/DX2 analytically  !
 ! D16   D(17,1,4,20)          138.8677         calculate D2E/DX2 analytically  !
 ! D17   D(17,1,4,21)           -4.9424         calculate D2E/DX2 analytically  !
 ! D18   D(5,2,4,20)            20.402          calculate D2E/DX2 analytically  !
 ! D19   D(5,2,4,21)           164.2025         calculate D2E/DX2 analytically  !
 ! D20   D(18,2,4,20)         -138.9729         calculate D2E/DX2 analytically  !
 ! D21   D(18,2,4,21)            4.8276         calculate D2E/DX2 analytically  !
 ! D22   D(1,2,5,6)             71.5492         calculate D2E/DX2 analytically  !
 ! D23   D(1,2,5,7)            -32.2403         calculate D2E/DX2 analytically  !
 ! D24   D(1,2,5,22)          -158.8995         calculate D2E/DX2 analytically  !
 ! D25   D(4,2,5,6)            134.5163         calculate D2E/DX2 analytically  !
 ! D26   D(4,2,5,7)             30.7267         calculate D2E/DX2 analytically  !
 ! D27   D(4,2,5,22)           -95.9325         calculate D2E/DX2 analytically  !
 ! D28   D(18,2,5,6)           -66.1787         calculate D2E/DX2 analytically  !
 ! D29   D(18,2,5,7)          -169.9682         calculate D2E/DX2 analytically  !
 ! D30   D(18,2,5,22)           63.3726         calculate D2E/DX2 analytically  !
 ! D31   D(1,3,7,5)            -51.4752         calculate D2E/DX2 analytically  !
 ! D32   D(1,3,7,11)            94.5829         calculate D2E/DX2 analytically  !
 ! D33   D(1,3,7,12)           170.8707         calculate D2E/DX2 analytically  !
 ! D34   D(8,3,7,5)             58.9258         calculate D2E/DX2 analytically  !
 ! D35   D(8,3,7,11)          -155.0161         calculate D2E/DX2 analytically  !
 ! D36   D(8,3,7,12)           -78.7283         calculate D2E/DX2 analytically  !
 ! D37   D(19,3,7,5)          -178.5764         calculate D2E/DX2 analytically  !
 ! D38   D(19,3,7,11)          -32.5183         calculate D2E/DX2 analytically  !
 ! D39   D(19,3,7,12)           43.7695         calculate D2E/DX2 analytically  !
 ! D40   D(1,3,8,6)             71.215          calculate D2E/DX2 analytically  !
 ! D41   D(1,3,8,10)           -45.3798         calculate D2E/DX2 analytically  !
 ! D42   D(1,3,8,24)          -171.517          calculate D2E/DX2 analytically  !
 ! D43   D(7,3,8,6)            -35.2655         calculate D2E/DX2 analytically  !
 ! D44   D(7,3,8,10)          -151.8603         calculate D2E/DX2 analytically  !
 ! D45   D(7,3,8,24)            82.0025         calculate D2E/DX2 analytically  !
 ! D46   D(19,3,8,6)          -158.9642         calculate D2E/DX2 analytically  !
 ! D47   D(19,3,8,10)           84.441          calculate D2E/DX2 analytically  !
 ! D48   D(19,3,8,24)          -41.6962         calculate D2E/DX2 analytically  !
 ! D49   D(2,5,6,8)            -69.4327         calculate D2E/DX2 analytically  !
 ! D50   D(2,5,6,9)             47.9288         calculate D2E/DX2 analytically  !
 ! D51   D(2,5,6,23)           174.0605         calculate D2E/DX2 analytically  !
 ! D52   D(7,5,6,8)             37.01           calculate D2E/DX2 analytically  !
 ! D53   D(7,5,6,9)            154.3716         calculate D2E/DX2 analytically  !
 ! D54   D(7,5,6,23)           -79.4967         calculate D2E/DX2 analytically  !
 ! D55   D(22,5,6,8)           160.3375         calculate D2E/DX2 analytically  !
 ! D56   D(22,5,6,9)           -82.301          calculate D2E/DX2 analytically  !
 ! D57   D(22,5,6,23)           43.8308         calculate D2E/DX2 analytically  !
 ! D58   D(2,5,7,3)             51.1354         calculate D2E/DX2 analytically  !
 ! D59   D(2,5,7,11)           -94.9265         calculate D2E/DX2 analytically  !
 ! D60   D(2,5,7,12)          -171.2213         calculate D2E/DX2 analytically  !
 ! D61   D(6,5,7,3)            -59.7317         calculate D2E/DX2 analytically  !
 ! D62   D(6,5,7,11)           154.2065         calculate D2E/DX2 analytically  !
 ! D63   D(6,5,7,12)            77.9117         calculate D2E/DX2 analytically  !
 ! D64   D(22,5,7,3)           177.8053         calculate D2E/DX2 analytically  !
 ! D65   D(22,5,7,11)           31.7434         calculate D2E/DX2 analytically  !
 ! D66   D(22,5,7,12)          -44.5514         calculate D2E/DX2 analytically  !
 ! D67   D(5,6,8,3)             -1.0825         calculate D2E/DX2 analytically  !
 ! D68   D(5,6,8,10)           122.8675         calculate D2E/DX2 analytically  !
 ! D69   D(5,6,8,24)          -116.8674         calculate D2E/DX2 analytically  !
 ! D70   D(9,6,8,3)           -126.5108         calculate D2E/DX2 analytically  !
 ! D71   D(9,6,8,10)            -2.5608         calculate D2E/DX2 analytically  !
 ! D72   D(9,6,8,24)           117.7043         calculate D2E/DX2 analytically  !
 ! D73   D(23,6,8,3)           113.8327         calculate D2E/DX2 analytically  !
 ! D74   D(23,6,8,10)         -122.2173         calculate D2E/DX2 analytically  !
 ! D75   D(23,6,8,24)           -1.9522         calculate D2E/DX2 analytically  !
 ! D76   D(5,6,9,13)          -111.7065         calculate D2E/DX2 analytically  !
 ! D77   D(5,6,9,15)           106.2133         calculate D2E/DX2 analytically  !
 ! D78   D(5,6,9,16)            34.885          calculate D2E/DX2 analytically  !
 ! D79   D(8,6,9,13)             3.2929         calculate D2E/DX2 analytically  !
 ! D80   D(8,6,9,15)          -138.7874         calculate D2E/DX2 analytically  !
 ! D81   D(8,6,9,16)           149.8844         calculate D2E/DX2 analytically  !
 ! D82   D(23,6,9,13)          123.1056         calculate D2E/DX2 analytically  !
 ! D83   D(23,6,9,15)          -18.9747         calculate D2E/DX2 analytically  !
 ! D84   D(23,6,9,16)          -90.3029         calculate D2E/DX2 analytically  !
 ! D85   D(3,7,11,26)         -140.7185         calculate D2E/DX2 analytically  !
 ! D86   D(3,7,11,27)            4.4907         calculate D2E/DX2 analytically  !
 ! D87   D(5,7,11,26)           -4.558          calculate D2E/DX2 analytically  !
 ! D88   D(5,7,11,27)          140.6512         calculate D2E/DX2 analytically  !
 ! D89   D(3,7,12,28)          135.9363         calculate D2E/DX2 analytically  !
 ! D90   D(3,7,12,29)           -9.4346         calculate D2E/DX2 analytically  !
 ! D91   D(5,7,12,28)            9.4792         calculate D2E/DX2 analytically  !
 ! D92   D(5,7,12,29)         -135.8917         calculate D2E/DX2 analytically  !
 ! D93   D(3,8,10,13)          115.6538         calculate D2E/DX2 analytically  !
 ! D94   D(3,8,10,14)         -178.8145         calculate D2E/DX2 analytically  !
 ! D95   D(3,8,10,25)          -28.2348         calculate D2E/DX2 analytically  !
 ! D96   D(6,8,10,13)            0.8974         calculate D2E/DX2 analytically  !
 ! D97   D(6,8,10,14)           66.4291         calculate D2E/DX2 analytically  !
 ! D98   D(6,8,10,25)         -142.9912         calculate D2E/DX2 analytically  !
 ! D99   D(24,8,10,13)        -119.2991         calculate D2E/DX2 analytically  !
 ! D100  D(24,8,10,14)         -53.7674         calculate D2E/DX2 analytically  !
 ! D101  D(24,8,10,25)          96.8123         calculate D2E/DX2 analytically  !
 ! D102  D(6,9,13,10)           -2.7944         calculate D2E/DX2 analytically  !
 ! D103  D(6,9,13,14)          -67.6005         calculate D2E/DX2 analytically  !
 ! D104  D(6,9,13,30)          141.4892         calculate D2E/DX2 analytically  !
 ! D105  D(15,9,13,10)         139.7901         calculate D2E/DX2 analytically  !
 ! D106  D(15,9,13,14)          74.9839         calculate D2E/DX2 analytically  !
 ! D107  D(15,9,13,30)         -75.9264         calculate D2E/DX2 analytically  !
 ! D108  D(16,9,13,10)        -150.1257         calculate D2E/DX2 analytically  !
 ! D109  D(16,9,13,14)         145.0681         calculate D2E/DX2 analytically  !
 ! D110  D(16,9,13,30)          -5.8422         calculate D2E/DX2 analytically  !
 ! D111  D(6,9,15,33)           -4.3453         calculate D2E/DX2 analytically  !
 ! D112  D(6,9,15,34)          139.9876         calculate D2E/DX2 analytically  !
 ! D113  D(13,9,15,33)        -142.4529         calculate D2E/DX2 analytically  !
 ! D114  D(13,9,15,34)           1.8799         calculate D2E/DX2 analytically  !
 ! D115  D(6,9,16,35)         -142.9955         calculate D2E/DX2 analytically  !
 ! D116  D(6,9,16,36)            1.3056         calculate D2E/DX2 analytically  !
 ! D117  D(13,9,16,35)          -0.1979         calculate D2E/DX2 analytically  !
 ! D118  D(13,9,16,36)         144.1032         calculate D2E/DX2 analytically  !
 ! D119  D(8,10,13,9)            1.1496         calculate D2E/DX2 analytically  !
 ! D120  D(8,10,13,30)        -142.1249         calculate D2E/DX2 analytically  !
 ! D121  D(25,10,13,9)         144.3208         calculate D2E/DX2 analytically  !
 ! D122  D(25,10,13,30)          1.0463         calculate D2E/DX2 analytically  !
 ! D123  D(8,10,14,31)         154.3402         calculate D2E/DX2 analytically  !
 ! D124  D(8,10,14,32)           9.6152         calculate D2E/DX2 analytically  !
 ! D125  D(25,10,14,31)          3.3235         calculate D2E/DX2 analytically  !
 ! D126  D(25,10,14,32)       -141.4016         calculate D2E/DX2 analytically  !
 ! D127  D(26,11,12,28)         -0.0107         calculate D2E/DX2 analytically  !
 ! D128  D(26,11,12,29)        143.6525         calculate D2E/DX2 analytically  !
 ! D129  D(27,11,12,28)       -143.6665         calculate D2E/DX2 analytically  !
 ! D130  D(27,11,12,29)         -0.0033         calculate D2E/DX2 analytically  !
 ! D131  D(9,13,14,31)        -155.0651         calculate D2E/DX2 analytically  !
 ! D132  D(9,13,14,32)         -11.0691         calculate D2E/DX2 analytically  !
 ! D133  D(30,13,14,31)         -4.0749         calculate D2E/DX2 analytically  !
 ! D134  D(30,13,14,32)        139.921          calculate D2E/DX2 analytically  !
 ! D135  D(33,15,16,35)        144.1643         calculate D2E/DX2 analytically  !
 ! D136  D(33,15,16,36)          0.2436         calculate D2E/DX2 analytically  !
 ! D137  D(34,15,16,35)         -0.5045         calculate D2E/DX2 analytically  !
 ! D138  D(34,15,16,36)       -144.4252         calculate D2E/DX2 analytically  !
 --------------------------------------------------------------------------------
 Trust Radius=3.00D-01 FncErr=1.00D-07 GrdErr=1.00D-06
 Number of steps in this run=    216 maximum allowed number of steps=    216.
 GradGradGradGradGradGradGradGradGradGradGradGradGradGradGradGradGradGrad

 Leave Link  103 at Mon Apr 27 10:47:43 2015, MaxMem=   524288000 cpu:         0.1
 (Enter /opt/g09/l202.exe)
                          Input orientation:                          
 ---------------------------------------------------------------------
 Center     Atomic      Atomic             Coordinates (Angstroms)
 Number     Number       Type             X           Y           Z
 ---------------------------------------------------------------------
      1          6           0        2.180820    3.804120    4.288680
      2          6           0        1.910250    2.712360    3.249880
      3          6           0        2.755420    4.964580    3.468040
      4          6           0        0.762940    3.329870    4.029730
      5          6           0        2.343490    3.340580    1.918420
      6          6           0        3.907640    3.432610    1.910980
      7          6           0        2.021060    4.826700    2.128340
      8          6           0        4.190460    4.549040    3.004240
      9          6           0        4.723040    2.187950    2.319700
     10          6           0        5.103500    3.911670    4.048200
     11          6           0        0.762110    5.542690    1.713150
     12          6           0        2.087200    5.859400    1.029490
     13          6           0        5.410210    2.478350    3.640900
     14          6           0        6.503090    3.535220    3.603200
     15          6           0        5.457120    1.370930    1.266010
     16          6           0        4.263700    0.779000    1.990910
     17          1           0        2.639470    3.558990    5.240740
     18          1           0        2.175150    1.680970    3.451000
     19          1           0        2.705140    5.950740    3.940540
     20          1           0        0.045010    3.975600    3.539570
     21          1           0        0.339150    2.697370    4.804300
     22          1           0        1.913680    2.886430    1.019590
     23          1           0        4.223550    3.780640    0.921610
     24          1           0        4.674080    5.420980    2.547930
     25          1           0        4.964550    4.170710    5.094080
     26          1           0        0.019020    4.989180    1.145120
     27          1           0        0.348660    6.288450    2.387030
     28          1           0        2.224240    5.516100    0.007520
     29          1           0        2.554890    6.815530    1.248560
     30          1           0        5.479660    1.685280    4.380800
     31          1           0        7.276300    3.491860    4.364570
     32          1           0        6.845850    3.873600    2.627960
     33          1           0        5.328010    1.649560    0.223380
     34          1           0        6.445570    0.996680    1.516760
     35          1           0        4.446320   -0.001130    2.725340
     36          1           0        3.340270    0.658990    1.431430
 ---------------------------------------------------------------------
                    Distance matrix (angstroms):
                    1          2          3          4          5
     1  C    0.000000
     2  C    1.531096   0.000000
     3  C    1.533063   2.415450   0.000000
     4  C    1.517350   1.518488   2.637755   0.000000
     5  C    2.420633   1.534648   2.282189   2.637401   0.000000
     6  C    2.961990   2.510175   2.469611   3.793257   1.566873
     7  C    2.395467   2.395948   1.533979   2.727389   1.535116
     8  C    2.498669   2.938212   1.564329   3.779669   2.459813
     9  C    3.598857   3.008659   3.591641   4.462127   2.674292
    10  C    2.934528   3.503214   2.637932   4.379417   3.532671
    11  C    3.415951   3.419142   2.717928   3.203610   2.718858
    12  C    3.854252   3.855555   2.682116   4.141694   2.683344
    13  C    3.550527   3.529501   3.641309   4.740611   3.621484
    14  C    4.384542   4.679328   4.013274   5.759637   4.492064
    15  C    5.078493   4.279657   5.006240   5.788862   3.741638
    16  C    4.332377   3.295696   4.687846   4.787384   3.202211
    17  H    1.084835   2.282995   2.265302   2.245085   3.342621
    18  H    2.282434   1.083691   3.334531   2.246806   2.265269
    19  H    2.236982   3.405285   1.094667   3.263289   3.321550
    20  H    2.269858   2.271303   2.886091   1.082889   2.883468
    21  H    2.209640   2.210159   3.572701   1.086100   3.572030
    22  H    3.405946   2.237075   3.319961   3.252965   1.094936
    23  H    3.938332   3.451582   3.168821   4.673267   2.172995
    24  H    3.443950   3.932952   2.176272   4.676055   3.186847
    25  H    2.920995   3.854427   2.855607   4.415131   4.200463
    26  H    3.994961   3.631897   3.589491   3.409942   2.952801
    27  H    3.625600   3.996435   2.951899   3.409294   3.590109
    28  H    4.610975   4.297958   3.544224   4.805536   2.898042
    29  H    4.295445   4.610515   2.896950   4.805811   3.545233
    30  H    3.921774   3.882597   4.359865   5.007532   4.317279
    31  H    5.105603   5.535761   4.838494   6.523972   5.508099
    32  H    4.952305   5.108367   4.315969   6.265971   4.588987
    33  H    5.574370   4.687252   5.304281   6.176699   3.826234
    34  H    5.809764   5.149407   5.759247   6.637099   4.741546
    35  H    4.696429   3.750976   5.298021   5.134616   4.029893
    36  H    4.404548   3.093226   4.798743   4.530717   2.902009
                    6          7          8          9         10
     6  C    0.000000
     7  C    2.355826   0.000000
     8  C    1.587961   2.355969   0.000000
     9  C    1.543084   3.781576   2.515349   0.000000
    10  C    2.495454   3.744940   1.526347   2.470561   0.000000
    11  C    3.792879   1.506645   3.795766   5.226007   5.192336
    12  C    3.159167   1.509409   3.168656   4.700196   4.690877
    13  C    2.482126   4.391916   2.486138   1.517269   1.521306
    14  C    3.100080   4.892006   2.595157   2.575090   1.516111
    15  C    2.658458   4.948987   3.837480   1.522057   3.784308
    16  C    2.678584   4.629492   3.904536   1.517971   3.840746
    17  H    3.565323   3.417097   2.896153   3.841027   2.760069
    18  H    2.905413   3.415961   3.533680   2.833481   3.729330
    19  H    3.450522   2.239531   2.246686   4.567016   3.149846
    20  H    4.226944   2.573075   4.219024   5.154390   5.084399
    21  H    4.652526   3.810988   4.636970   5.064705   4.974459
    22  H    2.251392   2.237299   3.447729   3.173431   4.516475
    23  H    1.095343   2.720552   2.220108   2.177340   3.250699
    24  H    2.224129   2.750952   1.096534   3.241446   2.170997
    25  H    3.434236   4.229665   2.260482   3.418603   1.086404
    26  H    4.258030   2.236355   4.588133   5.599494   5.953221
    27  H    4.587895   2.236192   4.262150   5.996152   5.569297
    28  H    3.286020   2.239293   3.712352   4.760962   5.214540
    29  H    3.703091   2.239293   3.300678   5.221371   4.771352
    30  H    3.409460   5.186908   3.429005   2.252395   2.282308
    31  H    4.167911   5.865157   3.534195   3.521479   2.235484
    32  H    3.056405   4.943341   2.765665   2.728143   2.248180
    33  H    2.836320   4.965784   4.175427   2.247312   4.449359
    34  H    3.539810   5.883823   4.462889   2.242977   4.087359
    35  H    3.569864   5.435645   4.565884   2.243477   4.182326
    36  H    2.871384   4.426715   4.281243   2.244726   4.531710
                   11         12         13         14         15
    11  C    0.000000
    12  C    1.524323   0.000000
    13  C    5.891624   5.412334   0.000000
    14  C    6.368758   5.614791   1.520783   0.000000
    15  C    6.296557   5.617710   2.620817   3.352710   0.000000
    16  C    5.918701   5.609986   2.631491   3.900140   1.516612
    17  H    4.461327   4.830271   3.377021   4.196387   5.340902
    18  H    4.464268   4.830189   3.337288   4.710889   3.954950
    19  H    2.983812   2.977315   4.411879   4.513641   5.975045
    20  H    2.511138   3.744295   5.571122   6.473390   6.422174
    21  H    4.222552   5.225256   5.207410   6.335518   6.361804
    22  H    2.977055   2.978046   4.389022   5.306473   3.861791
    23  H    3.963953   2.982763   3.240163   3.528096   2.728921
    24  H    4.001897   3.031472   3.224212   2.831071   4.319650
    25  H    5.565386   5.258489   2.274737   2.234653   4.768177
    26  H    1.086837   2.246780   6.449660   7.085148   6.532938
    27  H    1.086836   2.247114   6.458199   6.851011   7.178792
    28  H    2.246710   1.086765   5.707870   5.929701   5.405344
    29  H    2.247226   1.086697   5.717278   5.647393   6.169839
    30  H    6.652161   6.337455   1.086847   2.252632   3.130693
    31  H    7.326022   6.607175   2.243478   1.086010   4.172389
    32  H    6.374530   5.398450   2.243620   1.087694   3.169674
    33  H    6.182501   5.373585   3.517541   4.044714   1.086914
    34  H    7.280556   6.548196   2.789137   3.286446   1.086265
    35  H    6.732895   6.541190   2.813389   4.184102   2.243638
    36  H    5.529629   5.364327   3.532206   4.795072   2.239481
                   16         17         18         19         20
    16  C    0.000000
    17  H    4.574698   0.000000
    18  H    2.703230   2.635474   0.000000
    19  H    5.742566   2.723105   4.330297   0.000000
    20  H    5.514884   3.130298   3.132199   3.337401   0.000000
    21  H    5.195902   2.494863   2.497075   4.114414   1.822068
    22  H    3.302623   4.335576   2.726400   4.306780   3.320921
    23  H    3.186669   4.605792   3.873289   4.016073   4.934767
    24  H    4.693257   3.854591   4.587795   2.469156   4.949824
    25  H    4.650221   2.408673   4.084026   3.099047   5.162988
    26  H    6.038070   5.068166   4.572771   3.994272   2.600271
    27  H    6.770413   4.565241   5.069218   2.842611   2.601889
    28  H    5.525699   5.602614   5.154434   3.986079   4.426913
    29  H    6.317500   5.152641   5.599880   2.831465   4.428705
    30  H    2.830455   3.509553   3.432832   5.107440   5.957235
    31  H    4.697832   4.719361   5.489596   5.207821   7.294257
    32  H    4.080427   4.961777   5.224984   4.814858   6.862424
    33  H    2.239373   6.004005   4.512100   6.260741   6.657152
    34  H    2.243381   5.909303   4.737724   6.663951   7.343902
    35  H    1.086895   4.718728   2.917920   6.319270   5.987394
    36  H    1.086344   4.838591   2.545704   5.890810   5.128635
                   21         22         23         24         25
    21  H    0.000000
    22  H    4.103525   0.000000
    23  H    5.597975   2.478853   0.000000
    24  H    5.594719   4.047169   2.353425   0.000000
    25  H    4.863027   5.249633   4.255672   2.851390   0.000000
    26  H    4.329489   2.833205   4.380479   4.880974   6.381414
    27  H    4.328873   3.986593   4.842658   4.414482   5.754944
    28  H    5.874343   2.834766   2.800825   3.530502   5.932324
    29  H    5.874694   3.987656   3.478776   2.850280   5.252576
    30  H    5.256284   5.045464   4.234896   4.238375   2.636564
    31  H    6.996330   6.349262   4.610493   3.713924   2.517382
    32  H    6.961115   5.280877   3.129973   2.667841   3.115977
    33  H    6.853573   3.717721   2.499772   4.478255   5.496546
    34  H    7.140632   4.935216   3.611372   4.876056   5.006506
    35  H    5.335993   4.202601   4.195814   5.429791   4.825323
    36  H    4.953581   2.676987   3.284022   5.069731   5.327801
                   26         27         28         29         30
    26  H    0.000000
    27  H    1.827322   0.000000
    28  H    2.536686   3.126722   0.000000
    29  H    3.126802   2.537987   1.827027   0.000000
    30  H    7.155695   7.175755   6.663221   6.684659   0.000000
    31  H    8.079291   7.728116   6.971710   6.561098   2.547923
    32  H    7.074528   6.935634   5.560916   5.382382   3.118921
    33  H    6.339404   7.141051   4.962874   5.952179   4.160338
    34  H    7.574874   8.119884   6.365736   7.004880   3.099980
    35  H    6.855748   7.514259   6.539420   7.226703   2.579209
    36  H    5.464725   6.446218   5.183103   6.209126   3.785372
                   31         32         33         34         35
    31  H    0.000000
    32  H    1.829433   0.000000
    33  H    4.933493   3.610013   0.000000
    34  H    3.876346   3.109929   1.829761   0.000000
    35  H    4.785064   4.558592   3.124413   2.540333   0.000000
    36  H    5.667521   4.904538   2.528186   3.124773   1.825735
                   36
    36  H    0.000000
 Symmetry turned off by external request.
 Stoichiometry    C16H20
 Framework group  C1[X(C16H20)]
 Deg. of freedom   102
 Full point group                 C1      NOp   1
 Rotational constants (GHZ):      0.9638142      0.4694939      0.4555301
 Leave Link  202 at Mon Apr 27 10:47:43 2015, MaxMem=   524288000 cpu:         0.0
 (Enter /opt/g09/l301.exe)
 Standard basis: 6-311+G(d,p) (5D, 7F)
 Ernie: Thresh=  0.10000D-02 Tol=  0.10000D-05 Strict=F.
 AO basis set in the form of general basis input (Overlap normalization):
      1 0
 S   6 1.00       0.000000000000
      0.4563240000D+04  0.1966650249D-02
      0.6820240000D+03  0.1523060193D-01
      0.1549730000D+03  0.7612690966D-01
      0.4445530000D+02  0.2608010331D+00
      0.1302900000D+02  0.6164620782D+00
      0.1827730000D+01  0.2210060280D+00
 SP   3 1.00       0.000000000000
      0.2096420000D+02  0.1146600807D+00  0.4024869267D-01
      0.4803310000D+01  0.9199996477D+00  0.2375939567D+00
      0.1459330000D+01 -0.3030682134D-02  0.8158538515D+00
 SP   1 1.00       0.000000000000
      0.4834560000D+00  0.1000000000D+01  0.1000000000D+01
 SP   1 1.00       0.000000000000
      0.1455850000D+00  0.1000000000D+01  0.1000000000D+01
 SP   1 1.00       0.000000000000
      0.4380000000D-01  0.1000000000D+01  0.1000000000D+01
 D   1 1.00       0.000000000000
      0.6260000000D+00  0.1000000000D+01
 ****
      2 0
 S   6 1.00       0.000000000000
      0.4563240000D+04  0.1966650249D-02
      0.6820240000D+03  0.1523060193D-01
      0.1549730000D+03  0.7612690966D-01
      0.4445530000D+02  0.2608010331D+00
      0.1302900000D+02  0.6164620782D+00
      0.1827730000D+01  0.2210060280D+00
 SP   3 1.00       0.000000000000
      0.2096420000D+02  0.1146600807D+00  0.4024869267D-01
      0.4803310000D+01  0.9199996477D+00  0.2375939567D+00
      0.1459330000D+01 -0.3030682134D-02  0.8158538515D+00
 SP   1 1.00       0.000000000000
      0.4834560000D+00  0.1000000000D+01  0.1000000000D+01
 SP   1 1.00       0.000000000000
      0.1455850000D+00  0.1000000000D+01  0.1000000000D+01
 SP   1 1.00       0.000000000000
      0.4380000000D-01  0.1000000000D+01  0.1000000000D+01
 D   1 1.00       0.000000000000
      0.6260000000D+00  0.1000000000D+01
 ****
      3 0
 S   6 1.00       0.000000000000
      0.4563240000D+04  0.1966650249D-02
      0.6820240000D+03  0.1523060193D-01
      0.1549730000D+03  0.7612690966D-01
      0.4445530000D+02  0.2608010331D+00
      0.1302900000D+02  0.6164620782D+00
      0.1827730000D+01  0.2210060280D+00
 SP   3 1.00       0.000000000000
      0.2096420000D+02  0.1146600807D+00  0.4024869267D-01
      0.4803310000D+01  0.9199996477D+00  0.2375939567D+00
      0.1459330000D+01 -0.3030682134D-02  0.8158538515D+00
 SP   1 1.00       0.000000000000
      0.4834560000D+00  0.1000000000D+01  0.1000000000D+01
 SP   1 1.00       0.000000000000
      0.1455850000D+00  0.1000000000D+01  0.1000000000D+01
 SP   1 1.00       0.000000000000
      0.4380000000D-01  0.1000000000D+01  0.1000000000D+01
 D   1 1.00       0.000000000000
      0.6260000000D+00  0.1000000000D+01
 ****
      4 0
 S   6 1.00       0.000000000000
      0.4563240000D+04  0.1966650249D-02
      0.6820240000D+03  0.1523060193D-01
      0.1549730000D+03  0.7612690966D-01
      0.4445530000D+02  0.2608010331D+00
      0.1302900000D+02  0.6164620782D+00
      0.1827730000D+01  0.2210060280D+00
 SP   3 1.00       0.000000000000
      0.2096420000D+02  0.1146600807D+00  0.4024869267D-01
      0.4803310000D+01  0.9199996477D+00  0.2375939567D+00
      0.1459330000D+01 -0.3030682134D-02  0.8158538515D+00
 SP   1 1.00       0.000000000000
      0.4834560000D+00  0.1000000000D+01  0.1000000000D+01
 SP   1 1.00       0.000000000000
      0.1455850000D+00  0.1000000000D+01  0.1000000000D+01
 SP   1 1.00       0.000000000000
      0.4380000000D-01  0.1000000000D+01  0.1000000000D+01
 D   1 1.00       0.000000000000
      0.6260000000D+00  0.1000000000D+01
 ****
      5 0
 S   6 1.00       0.000000000000
      0.4563240000D+04  0.1966650249D-02
      0.6820240000D+03  0.1523060193D-01
      0.1549730000D+03  0.7612690966D-01
      0.4445530000D+02  0.2608010331D+00
      0.1302900000D+02  0.6164620782D+00
      0.1827730000D+01  0.2210060280D+00
 SP   3 1.00       0.000000000000
      0.2096420000D+02  0.1146600807D+00  0.4024869267D-01
      0.4803310000D+01  0.9199996477D+00  0.2375939567D+00
      0.1459330000D+01 -0.3030682134D-02  0.8158538515D+00
 SP   1 1.00       0.000000000000
      0.4834560000D+00  0.1000000000D+01  0.1000000000D+01
 SP   1 1.00       0.000000000000
      0.1455850000D+00  0.1000000000D+01  0.1000000000D+01
 SP   1 1.00       0.000000000000
      0.4380000000D-01  0.1000000000D+01  0.1000000000D+01
 D   1 1.00       0.000000000000
      0.6260000000D+00  0.1000000000D+01
 ****
      6 0
 S   6 1.00       0.000000000000
      0.4563240000D+04  0.1966650249D-02
      0.6820240000D+03  0.1523060193D-01
      0.1549730000D+03  0.7612690966D-01
      0.4445530000D+02  0.2608010331D+00
      0.1302900000D+02  0.6164620782D+00
      0.1827730000D+01  0.2210060280D+00
 SP   3 1.00       0.000000000000
      0.2096420000D+02  0.1146600807D+00  0.4024869267D-01
      0.4803310000D+01  0.9199996477D+00  0.2375939567D+00
      0.1459330000D+01 -0.3030682134D-02  0.8158538515D+00
 SP   1 1.00       0.000000000000
      0.4834560000D+00  0.1000000000D+01  0.1000000000D+01
 SP   1 1.00       0.000000000000
      0.1455850000D+00  0.1000000000D+01  0.1000000000D+01
 SP   1 1.00       0.000000000000
      0.4380000000D-01  0.1000000000D+01  0.1000000000D+01
 D   1 1.00       0.000000000000
      0.6260000000D+00  0.1000000000D+01
 ****
      7 0
 S   6 1.00       0.000000000000
      0.4563240000D+04  0.1966650249D-02
      0.6820240000D+03  0.1523060193D-01
      0.1549730000D+03  0.7612690966D-01
      0.4445530000D+02  0.2608010331D+00
      0.1302900000D+02  0.6164620782D+00
      0.1827730000D+01  0.2210060280D+00
 SP   3 1.00       0.000000000000
      0.2096420000D+02  0.1146600807D+00  0.4024869267D-01
      0.4803310000D+01  0.9199996477D+00  0.2375939567D+00
      0.1459330000D+01 -0.3030682134D-02  0.8158538515D+00
 SP   1 1.00       0.000000000000
      0.4834560000D+00  0.1000000000D+01  0.1000000000D+01
 SP   1 1.00       0.000000000000
      0.1455850000D+00  0.1000000000D+01  0.1000000000D+01
 SP   1 1.00       0.000000000000
      0.4380000000D-01  0.1000000000D+01  0.1000000000D+01
 D   1 1.00       0.000000000000
      0.6260000000D+00  0.1000000000D+01
 ****
      8 0
 S   6 1.00       0.000000000000
      0.4563240000D+04  0.1966650249D-02
      0.6820240000D+03  0.1523060193D-01
      0.1549730000D+03  0.7612690966D-01
      0.4445530000D+02  0.2608010331D+00
      0.1302900000D+02  0.6164620782D+00
      0.1827730000D+01  0.2210060280D+00
 SP   3 1.00       0.000000000000
      0.2096420000D+02  0.1146600807D+00  0.4024869267D-01
      0.4803310000D+01  0.9199996477D+00  0.2375939567D+00
      0.1459330000D+01 -0.3030682134D-02  0.8158538515D+00
 SP   1 1.00       0.000000000000
      0.4834560000D+00  0.1000000000D+01  0.1000000000D+01
 SP   1 1.00       0.000000000000
      0.1455850000D+00  0.1000000000D+01  0.1000000000D+01
 SP   1 1.00       0.000000000000
      0.4380000000D-01  0.1000000000D+01  0.1000000000D+01
 D   1 1.00       0.000000000000
      0.6260000000D+00  0.1000000000D+01
 ****
      9 0
 S   6 1.00       0.000000000000
      0.4563240000D+04  0.1966650249D-02
      0.6820240000D+03  0.1523060193D-01
      0.1549730000D+03  0.7612690966D-01
      0.4445530000D+02  0.2608010331D+00
      0.1302900000D+02  0.6164620782D+00
      0.1827730000D+01  0.2210060280D+00
 SP   3 1.00       0.000000000000
      0.2096420000D+02  0.1146600807D+00  0.4024869267D-01
      0.4803310000D+01  0.9199996477D+00  0.2375939567D+00
      0.1459330000D+01 -0.3030682134D-02  0.8158538515D+00
 SP   1 1.00       0.000000000000
      0.4834560000D+00  0.1000000000D+01  0.1000000000D+01
 SP   1 1.00       0.000000000000
      0.1455850000D+00  0.1000000000D+01  0.1000000000D+01
 SP   1 1.00       0.000000000000
      0.4380000000D-01  0.1000000000D+01  0.1000000000D+01
 D   1 1.00       0.000000000000
      0.6260000000D+00  0.1000000000D+01
 ****
     10 0
 S   6 1.00       0.000000000000
      0.4563240000D+04  0.1966650249D-02
      0.6820240000D+03  0.1523060193D-01
      0.1549730000D+03  0.7612690966D-01
      0.4445530000D+02  0.2608010331D+00
      0.1302900000D+02  0.6164620782D+00
      0.1827730000D+01  0.2210060280D+00
 SP   3 1.00       0.000000000000
      0.2096420000D+02  0.1146600807D+00  0.4024869267D-01
      0.4803310000D+01  0.9199996477D+00  0.2375939567D+00
      0.1459330000D+01 -0.3030682134D-02  0.8158538515D+00
 SP   1 1.00       0.000000000000
      0.4834560000D+00  0.1000000000D+01  0.1000000000D+01
 SP   1 1.00       0.000000000000
      0.1455850000D+00  0.1000000000D+01  0.1000000000D+01
 SP   1 1.00       0.000000000000
      0.4380000000D-01  0.1000000000D+01  0.1000000000D+01
 D   1 1.00       0.000000000000
      0.6260000000D+00  0.1000000000D+01
 ****
     11 0
 S   6 1.00       0.000000000000
      0.4563240000D+04  0.1966650249D-02
      0.6820240000D+03  0.1523060193D-01
      0.1549730000D+03  0.7612690966D-01
      0.4445530000D+02  0.2608010331D+00
      0.1302900000D+02  0.6164620782D+00
      0.1827730000D+01  0.2210060280D+00
 SP   3 1.00       0.000000000000
      0.2096420000D+02  0.1146600807D+00  0.4024869267D-01
      0.4803310000D+01  0.9199996477D+00  0.2375939567D+00
      0.1459330000D+01 -0.3030682134D-02  0.8158538515D+00
 SP   1 1.00       0.000000000000
      0.4834560000D+00  0.1000000000D+01  0.1000000000D+01
 SP   1 1.00       0.000000000000
      0.1455850000D+00  0.1000000000D+01  0.1000000000D+01
 SP   1 1.00       0.000000000000
      0.4380000000D-01  0.1000000000D+01  0.1000000000D+01
 D   1 1.00       0.000000000000
      0.6260000000D+00  0.1000000000D+01
 ****
     12 0
 S   6 1.00       0.000000000000
      0.4563240000D+04  0.1966650249D-02
      0.6820240000D+03  0.1523060193D-01
      0.1549730000D+03  0.7612690966D-01
      0.4445530000D+02  0.2608010331D+00
      0.1302900000D+02  0.6164620782D+00
      0.1827730000D+01  0.2210060280D+00
 SP   3 1.00       0.000000000000
      0.2096420000D+02  0.1146600807D+00  0.4024869267D-01
      0.4803310000D+01  0.9199996477D+00  0.2375939567D+00
      0.1459330000D+01 -0.3030682134D-02  0.8158538515D+00
 SP   1 1.00       0.000000000000
      0.4834560000D+00  0.1000000000D+01  0.1000000000D+01
 SP   1 1.00       0.000000000000
      0.1455850000D+00  0.1000000000D+01  0.1000000000D+01
 SP   1 1.00       0.000000000000
      0.4380000000D-01  0.1000000000D+01  0.1000000000D+01
 D   1 1.00       0.000000000000
      0.6260000000D+00  0.1000000000D+01
 ****
     13 0
 S   6 1.00       0.000000000000
      0.4563240000D+04  0.1966650249D-02
      0.6820240000D+03  0.1523060193D-01
      0.1549730000D+03  0.7612690966D-01
      0.4445530000D+02  0.2608010331D+00
      0.1302900000D+02  0.6164620782D+00
      0.1827730000D+01  0.2210060280D+00
 SP   3 1.00       0.000000000000
      0.2096420000D+02  0.1146600807D+00  0.4024869267D-01
      0.4803310000D+01  0.9199996477D+00  0.2375939567D+00
      0.1459330000D+01 -0.3030682134D-02  0.8158538515D+00
 SP   1 1.00       0.000000000000
      0.4834560000D+00  0.1000000000D+01  0.1000000000D+01
 SP   1 1.00       0.000000000000
      0.1455850000D+00  0.1000000000D+01  0.1000000000D+01
 SP   1 1.00       0.000000000000
      0.4380000000D-01  0.1000000000D+01  0.1000000000D+01
 D   1 1.00       0.000000000000
      0.6260000000D+00  0.1000000000D+01
 ****
     14 0
 S   6 1.00       0.000000000000
      0.4563240000D+04  0.1966650249D-02
      0.6820240000D+03  0.1523060193D-01
      0.1549730000D+03  0.7612690966D-01
      0.4445530000D+02  0.2608010331D+00
      0.1302900000D+02  0.6164620782D+00
      0.1827730000D+01  0.2210060280D+00
 SP   3 1.00       0.000000000000
      0.2096420000D+02  0.1146600807D+00  0.4024869267D-01
      0.4803310000D+01  0.9199996477D+00  0.2375939567D+00
      0.1459330000D+01 -0.3030682134D-02  0.8158538515D+00
 SP   1 1.00       0.000000000000
      0.4834560000D+00  0.1000000000D+01  0.1000000000D+01
 SP   1 1.00       0.000000000000
      0.1455850000D+00  0.1000000000D+01  0.1000000000D+01
 SP   1 1.00       0.000000000000
      0.4380000000D-01  0.1000000000D+01  0.1000000000D+01
 D   1 1.00       0.000000000000
      0.6260000000D+00  0.1000000000D+01
 ****
     15 0
 S   6 1.00       0.000000000000
      0.4563240000D+04  0.1966650249D-02
      0.6820240000D+03  0.1523060193D-01
      0.1549730000D+03  0.7612690966D-01
      0.4445530000D+02  0.2608010331D+00
      0.1302900000D+02  0.6164620782D+00
      0.1827730000D+01  0.2210060280D+00
 SP   3 1.00       0.000000000000
      0.2096420000D+02  0.1146600807D+00  0.4024869267D-01
      0.4803310000D+01  0.9199996477D+00  0.2375939567D+00
      0.1459330000D+01 -0.3030682134D-02  0.8158538515D+00
 SP   1 1.00       0.000000000000
      0.4834560000D+00  0.1000000000D+01  0.1000000000D+01
 SP   1 1.00       0.000000000000
      0.1455850000D+00  0.1000000000D+01  0.1000000000D+01
 SP   1 1.00       0.000000000000
      0.4380000000D-01  0.1000000000D+01  0.1000000000D+01
 D   1 1.00       0.000000000000
      0.6260000000D+00  0.1000000000D+01
 ****
     16 0
 S   6 1.00       0.000000000000
      0.4563240000D+04  0.1966650249D-02
      0.6820240000D+03  0.1523060193D-01
      0.1549730000D+03  0.7612690966D-01
      0.4445530000D+02  0.2608010331D+00
      0.1302900000D+02  0.6164620782D+00
      0.1827730000D+01  0.2210060280D+00
 SP   3 1.00       0.000000000000
      0.2096420000D+02  0.1146600807D+00  0.4024869267D-01
      0.4803310000D+01  0.9199996477D+00  0.2375939567D+00
      0.1459330000D+01 -0.3030682134D-02  0.8158538515D+00
 SP   1 1.00       0.000000000000
      0.4834560000D+00  0.1000000000D+01  0.1000000000D+01
 SP   1 1.00       0.000000000000
      0.1455850000D+00  0.1000000000D+01  0.1000000000D+01
 SP   1 1.00       0.000000000000
      0.4380000000D-01  0.1000000000D+01  0.1000000000D+01
 D   1 1.00       0.000000000000
      0.6260000000D+00  0.1000000000D+01
 ****
     17 0
 S   3 1.00       0.000000000000
      0.3386500000D+02  0.2549381454D-01
      0.5094790000D+01  0.1903731086D+00
      0.1158790000D+01  0.8521614860D+00
 S   1 1.00       0.000000000000
      0.3258400000D+00  0.1000000000D+01
 S   1 1.00       0.000000000000
      0.1027410000D+00  0.1000000000D+01
 P   1 1.00       0.000000000000
      0.7500000000D+00  0.1000000000D+01
 ****
     18 0
 S   3 1.00       0.000000000000
      0.3386500000D+02  0.2549381454D-01
      0.5094790000D+01  0.1903731086D+00
      0.1158790000D+01  0.8521614860D+00
 S   1 1.00       0.000000000000
      0.3258400000D+00  0.1000000000D+01
 S   1 1.00       0.000000000000
      0.1027410000D+00  0.1000000000D+01
 P   1 1.00       0.000000000000
      0.7500000000D+00  0.1000000000D+01
 ****
     19 0
 S   3 1.00       0.000000000000
      0.3386500000D+02  0.2549381454D-01
      0.5094790000D+01  0.1903731086D+00
      0.1158790000D+01  0.8521614860D+00
 S   1 1.00       0.000000000000
      0.3258400000D+00  0.1000000000D+01
 S   1 1.00       0.000000000000
      0.1027410000D+00  0.1000000000D+01
 P   1 1.00       0.000000000000
      0.7500000000D+00  0.1000000000D+01
 ****
     20 0
 S   3 1.00       0.000000000000
      0.3386500000D+02  0.2549381454D-01
      0.5094790000D+01  0.1903731086D+00
      0.1158790000D+01  0.8521614860D+00
 S   1 1.00       0.000000000000
      0.3258400000D+00  0.1000000000D+01
 S   1 1.00       0.000000000000
      0.1027410000D+00  0.1000000000D+01
 P   1 1.00       0.000000000000
      0.7500000000D+00  0.1000000000D+01
 ****
     21 0
 S   3 1.00       0.000000000000
      0.3386500000D+02  0.2549381454D-01
      0.5094790000D+01  0.1903731086D+00
      0.1158790000D+01  0.8521614860D+00
 S   1 1.00       0.000000000000
      0.3258400000D+00  0.1000000000D+01
 S   1 1.00       0.000000000000
      0.1027410000D+00  0.1000000000D+01
 P   1 1.00       0.000000000000
      0.7500000000D+00  0.1000000000D+01
 ****
     22 0
 S   3 1.00       0.000000000000
      0.3386500000D+02  0.2549381454D-01
      0.5094790000D+01  0.1903731086D+00
      0.1158790000D+01  0.8521614860D+00
 S   1 1.00       0.000000000000
      0.3258400000D+00  0.1000000000D+01
 S   1 1.00       0.000000000000
      0.1027410000D+00  0.1000000000D+01
 P   1 1.00       0.000000000000
      0.7500000000D+00  0.1000000000D+01
 ****
     23 0
 S   3 1.00       0.000000000000
      0.3386500000D+02  0.2549381454D-01
      0.5094790000D+01  0.1903731086D+00
      0.1158790000D+01  0.8521614860D+00
 S   1 1.00       0.000000000000
      0.3258400000D+00  0.1000000000D+01
 S   1 1.00       0.000000000000
      0.1027410000D+00  0.1000000000D+01
 P   1 1.00       0.000000000000
      0.7500000000D+00  0.1000000000D+01
 ****
     24 0
 S   3 1.00       0.000000000000
      0.3386500000D+02  0.2549381454D-01
      0.5094790000D+01  0.1903731086D+00
      0.1158790000D+01  0.8521614860D+00
 S   1 1.00       0.000000000000
      0.3258400000D+00  0.1000000000D+01
 S   1 1.00       0.000000000000
      0.1027410000D+00  0.1000000000D+01
 P   1 1.00       0.000000000000
      0.7500000000D+00  0.1000000000D+01
 ****
     25 0
 S   3 1.00       0.000000000000
      0.3386500000D+02  0.2549381454D-01
      0.5094790000D+01  0.1903731086D+00
      0.1158790000D+01  0.8521614860D+00
 S   1 1.00       0.000000000000
      0.3258400000D+00  0.1000000000D+01
 S   1 1.00       0.000000000000
      0.1027410000D+00  0.1000000000D+01
 P   1 1.00       0.000000000000
      0.7500000000D+00  0.1000000000D+01
 ****
     26 0
 S   3 1.00       0.000000000000
      0.3386500000D+02  0.2549381454D-01
      0.5094790000D+01  0.1903731086D+00
      0.1158790000D+01  0.8521614860D+00
 S   1 1.00       0.000000000000
      0.3258400000D+00  0.1000000000D+01
 S   1 1.00       0.000000000000
      0.1027410000D+00  0.1000000000D+01
 P   1 1.00       0.000000000000
      0.7500000000D+00  0.1000000000D+01
 ****
     27 0
 S   3 1.00       0.000000000000
      0.3386500000D+02  0.2549381454D-01
      0.5094790000D+01  0.1903731086D+00
      0.1158790000D+01  0.8521614860D+00
 S   1 1.00       0.000000000000
      0.3258400000D+00  0.1000000000D+01
 S   1 1.00       0.000000000000
      0.1027410000D+00  0.1000000000D+01
 P   1 1.00       0.000000000000
      0.7500000000D+00  0.1000000000D+01
 ****
     28 0
 S   3 1.00       0.000000000000
      0.3386500000D+02  0.2549381454D-01
      0.5094790000D+01  0.1903731086D+00
      0.1158790000D+01  0.8521614860D+00
 S   1 1.00       0.000000000000
      0.3258400000D+00  0.1000000000D+01
 S   1 1.00       0.000000000000
      0.1027410000D+00  0.1000000000D+01
 P   1 1.00       0.000000000000
      0.7500000000D+00  0.1000000000D+01
 ****
     29 0
 S   3 1.00       0.000000000000
      0.3386500000D+02  0.2549381454D-01
      0.5094790000D+01  0.1903731086D+00
      0.1158790000D+01  0.8521614860D+00
 S   1 1.00       0.000000000000
      0.3258400000D+00  0.1000000000D+01
 S   1 1.00       0.000000000000
      0.1027410000D+00  0.1000000000D+01
 P   1 1.00       0.000000000000
      0.7500000000D+00  0.1000000000D+01
 ****
     30 0
 S   3 1.00       0.000000000000
      0.3386500000D+02  0.2549381454D-01
      0.5094790000D+01  0.1903731086D+00
      0.1158790000D+01  0.8521614860D+00
 S   1 1.00       0.000000000000
      0.3258400000D+00  0.1000000000D+01
 S   1 1.00       0.000000000000
      0.1027410000D+00  0.1000000000D+01
 P   1 1.00       0.000000000000
      0.7500000000D+00  0.1000000000D+01
 ****
     31 0
 S   3 1.00       0.000000000000
      0.3386500000D+02  0.2549381454D-01
      0.5094790000D+01  0.1903731086D+00
      0.1158790000D+01  0.8521614860D+00
 S   1 1.00       0.000000000000
      0.3258400000D+00  0.1000000000D+01
 S   1 1.00       0.000000000000
      0.1027410000D+00  0.1000000000D+01
 P   1 1.00       0.000000000000
      0.7500000000D+00  0.1000000000D+01
 ****
     32 0
 S   3 1.00       0.000000000000
      0.3386500000D+02  0.2549381454D-01
      0.5094790000D+01  0.1903731086D+00
      0.1158790000D+01  0.8521614860D+00
 S   1 1.00       0.000000000000
      0.3258400000D+00  0.1000000000D+01
 S   1 1.00       0.000000000000
      0.1027410000D+00  0.1000000000D+01
 P   1 1.00       0.000000000000
      0.7500000000D+00  0.1000000000D+01
 ****
     33 0
 S   3 1.00       0.000000000000
      0.3386500000D+02  0.2549381454D-01
      0.5094790000D+01  0.1903731086D+00
      0.1158790000D+01  0.8521614860D+00
 S   1 1.00       0.000000000000
      0.3258400000D+00  0.1000000000D+01
 S   1 1.00       0.000000000000
      0.1027410000D+00  0.1000000000D+01
 P   1 1.00       0.000000000000
      0.7500000000D+00  0.1000000000D+01
 ****
     34 0
 S   3 1.00       0.000000000000
      0.3386500000D+02  0.2549381454D-01
      0.5094790000D+01  0.1903731086D+00
      0.1158790000D+01  0.8521614860D+00
 S   1 1.00       0.000000000000
      0.3258400000D+00  0.1000000000D+01
 S   1 1.00       0.000000000000
      0.1027410000D+00  0.1000000000D+01
 P   1 1.00       0.000000000000
      0.7500000000D+00  0.1000000000D+01
 ****
     35 0
 S   3 1.00       0.000000000000
      0.3386500000D+02  0.2549381454D-01
      0.5094790000D+01  0.1903731086D+00
      0.1158790000D+01  0.8521614860D+00
 S   1 1.00       0.000000000000
      0.3258400000D+00  0.1000000000D+01
 S   1 1.00       0.000000000000
      0.1027410000D+00  0.1000000000D+01
 P   1 1.00       0.000000000000
      0.7500000000D+00  0.1000000000D+01
 ****
     36 0
 S   3 1.00       0.000000000000
      0.3386500000D+02  0.2549381454D-01
      0.5094790000D+01  0.1903731086D+00
      0.1158790000D+01  0.8521614860D+00
 S   1 1.00       0.000000000000
      0.3258400000D+00  0.1000000000D+01
 S   1 1.00       0.000000000000
      0.1027410000D+00  0.1000000000D+01
 P   1 1.00       0.000000000000
      0.7500000000D+00  0.1000000000D+01
 ****

   472 basis functions,   736 primitive gaussians,   488 cartesian basis functions
    58 alpha electrons       58 beta electrons
       nuclear repulsion energy      1167.4119570929 Hartrees.
 IExCor= 1614 DFT=T Ex+Corr=B971 ExCW=0 ScaHFX=  0.210000
 ScaDFX=  1.000000  1.000000  1.000000  1.000000 ScalE2=  1.000000  1.000000
 IRadAn=      5 IRanWt=     -1 IRanGd=            0 ICorTp=0 IEmpDi=  4
 NAtoms=   36 NActive=   36 NUniq=   36 SFac= 1.00D+00 NAtFMM=   60 NAOKFM=F Big=F
 Integral buffers will be    131072 words long.
 Raffenetti 2 integral format.
 Two-electron integral symmetry is turned off.
 Leave Link  301 at Mon Apr 27 10:47:43 2015, MaxMem=   524288000 cpu:         0.4
 (Enter /opt/g09/l302.exe)
 NPDir=0 NMtPBC=     1 NCelOv=     1 NCel=       1 NClECP=     1 NCelD=      1
         NCelK=      1 NCelE2=     1 NClLst=     1 CellRange=     0.0.
 One-electron integrals computed using PRISM.
 NBasis=   472 RedAO= T EigKep=  1.89D-06  NBF=   472
 NBsUse=   471 1.00D-06 EigRej=  7.92D-07 NBFU=   471
 Precomputing XC quadrature grid using
 IXCGrd= 4 IRadAn=           5 IRanWt=          -1 IRanGd=           0 AccXCQ= 0.00D+00.
 Generated NRdTot=       0 NPtTot=           0 NUsed=           0 NTot=          32
 NSgBfM=   488   488   488   488   488 MxSgAt=    36 MxSgA2=    36.
 Leave Link  302 at Mon Apr 27 10:47:44 2015, MaxMem=   524288000 cpu:         7.9
 (Enter /opt/g09/l303.exe)
 DipDrv:  MaxL=1.
 Leave Link  303 at Mon Apr 27 10:47:44 2015, MaxMem=   524288000 cpu:         0.7
 (Enter /opt/g09/l401.exe)
 ExpMin= 4.38D-02 ExpMax= 4.56D+03 ExpMxC= 6.82D+02 IAcc=3 IRadAn=         5 AccDes= 0.00D+00
 Harris functional with IExCor= 1614 and IRadAn=       5 diagonalized for initial guess.
 HarFok:  IExCor= 1614 AccDes= 0.00D+00 IRadAn=         5 IDoV= 1 UseB2=F ITyADJ=14
 ICtDFT=  3500011 ScaDFX=  1.000000  1.000000  1.000000  1.000000
 FoFCou: FMM=F IPFlag=           0 FMFlag=      100000 FMFlg1=           0
         NFxFlg=           0 DoJE=T BraDBF=F KetDBF=T FulRan=T
         wScrn=  0.000000 ICntrl=     500 IOpCl=  0 I1Cent=   200000004 NGrid=           0
         NMat0=    1 NMatS0=      1 NMatT0=    0 NMatD0=    1 NMtDS0=    0 NMtDT0=    0
 Symmetry not used in FoFCou.
 Harris En= -602.980040100689    
 JPrj=0 DoOrth=F DoCkMO=T.
 Mixing orbitals, IMix= 1 IMixAn=  0 NRI=1 NE=   58 Coef=  7.07106781D-01  7.07106781D-01
 Leave Link  401 at Mon Apr 27 10:47:53 2015, MaxMem=   524288000 cpu:        72.7
 (Enter /opt/g09/l502.exe)
 Closed shell SCF:
 Using DIIS extrapolation, IDIIS=  1040.
 Two-electron integral symmetry not used.
 IVT=      739886 IEndB=      739886 NGot=   524288000 MDV=   523803387
 LenX=   523803387 LenY=   523564755
 Requested convergence on RMS density matrix=1.00D-08 within 128 cycles.
 Requested convergence on MAX density matrix=1.00D-06.
 Requested convergence on             energy=1.00D-06.
 No special actions if energy rises.
 Fock matrices will be formed incrementally for  20 cycles.

 Cycle   1  Pass 1  IDiag  1:
 FoFJK:  IHMeth= 1 ICntrl=       0 DoSepK=F KAlg= 0 I1Cent=   0 FoldK=F
 IRaf= 890000000 NMat=   1 IRICut=       1 DoRegI=T DoRafI=F ISym2E= 0.
 FoFCou: FMM=F IPFlag=           0 FMFlag=      100000 FMFlg1=           0
         NFxFlg=           0 DoJE=F BraDBF=F KetDBF=F FulRan=T
         wScrn=  0.000000 ICntrl=       0 IOpCl=  0 I1Cent=           0 NGrid=           0
         NMat0=    1 NMatS0=      1 NMatT0=    0 NMatD0=    1 NMtDS0=    0 NMtDT0=    0
 Symmetry not used in FoFCou.
 E= -621.194135342223    
 DIIS: error= 3.82D-02 at cycle   1 NSaved=   1.
 NSaved= 1 IEnMin= 1 EnMin= -621.194135342223     IErMin= 1 ErrMin= 3.82D-02
 ErrMax= 3.82D-02  0.00D+00 EMaxC= 1.00D-01 BMatC= 1.17D+00 BMatP= 1.17D+00
 IDIUse=3 WtCom= 6.18D-01 WtEn= 3.82D-01
 Coeff-Com:  0.100D+01
 Coeff-En:   0.100D+01
 Coeff:      0.100D+01
 Gap=     0.022 Goal=   None    Shift=    0.000
 GapD=    0.022 DampG=0.250 DampE=0.500 DampFc=0.2500 IDamp=-1.
 Damping current iteration by 2.50D-01
 RMSDP=1.38D-01 MaxDP=1.03D+01              OVMax= 3.57D-01

 Cycle   2  Pass 1  IDiag  1:
 RMSU=  6.15D-03    CP:  7.68D-01
 E= -621.290053918635     Delta-E=       -0.095918576412 Rises=F Damp=T
 DIIS: error= 2.80D-02 at cycle   2 NSaved=   2.
 NSaved= 2 IEnMin= 2 EnMin= -621.290053918635     IErMin= 2 ErrMin= 2.80D-02
 ErrMax= 2.80D-02  0.00D+00 EMaxC= 1.00D-01 BMatC= 6.20D-01 BMatP= 1.17D+00
 IDIUse=3 WtCom= 7.20D-01 WtEn= 2.80D-01
 Coeff-Com: -0.239D+01 0.339D+01
 Coeff-En:   0.000D+00 0.100D+01
 Coeff:     -0.172D+01 0.272D+01
 Gap=     0.328 Goal=   None    Shift=    0.000
 RMSDP=1.06D-01 MaxDP=7.81D+00 DE=-9.59D-02 OVMax= 1.17D-01

 Cycle   3  Pass 1  IDiag  1:
 RMSU=  9.11D-03    CP:  5.11D-02  2.95D+00
 E= -621.501751065463     Delta-E=       -0.211697146828 Rises=F Damp=F
 DIIS: error= 1.11D-02 at cycle   3 NSaved=   3.
 NSaved= 3 IEnMin= 3 EnMin= -621.501751065463     IErMin= 3 ErrMin= 1.11D-02
 ErrMax= 1.11D-02  0.00D+00 EMaxC= 1.00D-01 BMatC= 6.58D-02 BMatP= 6.20D-01
 IDIUse=3 WtCom= 8.89D-01 WtEn= 1.11D-01
 Coeff-Com: -0.125D+01 0.171D+01 0.536D+00
 Coeff-En:   0.000D+00 0.000D+00 0.100D+01
 Coeff:     -0.111D+01 0.152D+01 0.587D+00
 Gap=     0.255 Goal=   None    Shift=    0.000
 RMSDP=5.56D-03 MaxDP=4.44D-01 DE=-2.12D-01 OVMax= 6.65D-02

 Cycle   4  Pass 1  IDiag  1:
 RMSU=  3.55D-03    CP:  5.67D-02  3.00D+00  5.50D-01
 E= -621.561684451836     Delta-E=       -0.059933386373 Rises=F Damp=F
 DIIS: error= 3.29D-03 at cycle   4 NSaved=   4.
 NSaved= 4 IEnMin= 4 EnMin= -621.561684451836     IErMin= 4 ErrMin= 3.29D-03
 ErrMax= 3.29D-03  0.00D+00 EMaxC= 1.00D-01 BMatC= 5.25D-03 BMatP= 6.58D-02
 IDIUse=3 WtCom= 9.67D-01 WtEn= 3.29D-02
 Coeff-Com: -0.449D+00 0.617D+00 0.310D+00 0.522D+00
 Coeff-En:   0.000D+00 0.000D+00 0.231D-01 0.977D+00
 Coeff:     -0.434D+00 0.597D+00 0.300D+00 0.537D+00
 Gap=     0.248 Goal=   None    Shift=    0.000
 RMSDP=1.99D-03 MaxDP=2.55D-01 DE=-5.99D-02 OVMax= 1.39D-02

 Cycle   5  Pass 1  IDiag  1:
 RMSU=  1.30D-03    CP:  5.26D-02  3.00D+00  6.23D-01  6.55D-01
 E= -621.566484452955     Delta-E=       -0.004800001119 Rises=F Damp=F
 DIIS: error= 4.90D-04 at cycle   5 NSaved=   5.
 NSaved= 5 IEnMin= 5 EnMin= -621.566484452955     IErMin= 5 ErrMin= 4.90D-04
 ErrMax= 4.90D-04  0.00D+00 EMaxC= 1.00D-01 BMatC= 2.51D-04 BMatP= 5.25D-03
 IDIUse=3 WtCom= 9.95D-01 WtEn= 4.90D-03
 Coeff-Com: -0.372D-01 0.519D-01 0.704D-01 0.270D+00 0.644D+00
 Coeff-En:   0.000D+00 0.000D+00 0.000D+00 0.000D+00 0.100D+01
 Coeff:     -0.370D-01 0.517D-01 0.701D-01 0.269D+00 0.646D+00
 Gap=     0.250 Goal=   None    Shift=    0.000
 RMSDP=4.27D-04 MaxDP=6.54D-02 DE=-4.80D-03 OVMax= 3.07D-03

 Cycle   6  Pass 1  IDiag  1:
 RMSU=  2.37D-04    CP:  5.34D-02  3.00D+00  6.15D-01  7.38D-01  8.87D-01
 E= -621.566712877924     Delta-E=       -0.000228424970 Rises=F Damp=F
 DIIS: error= 1.79D-04 at cycle   6 NSaved=   6.
 NSaved= 6 IEnMin= 6 EnMin= -621.566712877924     IErMin= 6 ErrMin= 1.79D-04
 ErrMax= 1.79D-04  0.00D+00 EMaxC= 1.00D-01 BMatC= 1.99D-05 BMatP= 2.51D-04
 IDIUse=3 WtCom= 9.98D-01 WtEn= 1.79D-03
 Coeff-Com:  0.684D-02-0.897D-02 0.191D-01 0.108D+00 0.334D+00 0.541D+00
 Coeff-En:   0.000D+00 0.000D+00 0.000D+00 0.000D+00 0.000D+00 0.100D+01
 Coeff:      0.683D-02-0.896D-02 0.191D-01 0.108D+00 0.333D+00 0.542D+00
 Gap=     0.250 Goal=   None    Shift=    0.000
 RMSDP=1.04D-04 MaxDP=1.58D-02 DE=-2.28D-04 OVMax= 9.30D-04

 Cycle   7  Pass 1  IDiag  1:
 RMSU=  5.64D-05    CP:  5.32D-02  3.00D+00  6.16D-01  7.26D-01  9.13D-01
                    CP:  7.43D-01
 E= -621.566730618408     Delta-E=       -0.000017740484 Rises=F Damp=F
 DIIS: error= 5.46D-05 at cycle   7 NSaved=   7.
 NSaved= 7 IEnMin= 7 EnMin= -621.566730618408     IErMin= 7 ErrMin= 5.46D-05
 ErrMax= 5.46D-05  0.00D+00 EMaxC= 1.00D-01 BMatC= 1.81D-06 BMatP= 1.99D-05
 IDIUse=1 WtCom= 1.00D+00 WtEn= 0.00D+00
 Coeff-Com:  0.659D-02-0.895D-02 0.186D-02 0.206D-01 0.855D-01 0.268D+00
 Coeff-Com:  0.626D+00
 Coeff:      0.659D-02-0.895D-02 0.186D-02 0.206D-01 0.855D-01 0.268D+00
 Coeff:      0.626D+00
 Gap=     0.250 Goal=   None    Shift=    0.000
 RMSDP=3.03D-05 MaxDP=3.44D-03 DE=-1.77D-05 OVMax= 2.97D-04

 Cycle   8  Pass 1  IDiag  1:
 RMSU=  1.93D-05    CP:  5.32D-02  3.00D+00  6.17D-01  7.30D-01  9.09D-01
                    CP:  8.04D-01  9.34D-01
 E= -621.566732274158     Delta-E=       -0.000001655749 Rises=F Damp=F
 DIIS: error= 1.19D-05 at cycle   8 NSaved=   8.
 NSaved= 8 IEnMin= 8 EnMin= -621.566732274158     IErMin= 8 ErrMin= 1.19D-05
 ErrMax= 1.19D-05  0.00D+00 EMaxC= 1.00D-01 BMatC= 1.38D-07 BMatP= 1.81D-06
 IDIUse=1 WtCom= 1.00D+00 WtEn= 0.00D+00
 Coeff-Com:  0.174D-02-0.239D-02-0.972D-03-0.246D-02 0.240D-02 0.605D-01
 Coeff-Com:  0.273D+00 0.668D+00
 Coeff:      0.174D-02-0.239D-02-0.972D-03-0.246D-02 0.240D-02 0.605D-01
 Coeff:      0.273D+00 0.668D+00
 Gap=     0.250 Goal=   None    Shift=    0.000
 RMSDP=7.47D-06 MaxDP=6.47D-04 DE=-1.66D-06 OVMax= 8.61D-05

 Cycle   9  Pass 1  IDiag  1:
 RMSU=  4.69D-06    CP:  5.32D-02  3.00D+00  6.17D-01  7.30D-01  9.12D-01
                    CP:  8.14D-01  9.37D-01  8.11D-01
 E= -621.566732399550     Delta-E=       -0.000000125392 Rises=F Damp=F
 DIIS: error= 3.55D-06 at cycle   9 NSaved=   9.
 NSaved= 9 IEnMin= 9 EnMin= -621.566732399550     IErMin= 9 ErrMin= 3.55D-06
 ErrMax= 3.55D-06  0.00D+00 EMaxC= 1.00D-01 BMatC= 1.52D-08 BMatP= 1.38D-07
 IDIUse=1 WtCom= 1.00D+00 WtEn= 0.00D+00
 Coeff-Com:  0.285D-03-0.403D-03-0.534D-03-0.244D-02-0.411D-02 0.114D-01
 Coeff-Com:  0.877D-01 0.327D+00 0.581D+00
 Coeff:      0.285D-03-0.403D-03-0.534D-03-0.244D-02-0.411D-02 0.114D-01
 Coeff:      0.877D-01 0.327D+00 0.581D+00
 Gap=     0.250 Goal=   None    Shift=    0.000
 RMSDP=2.70D-06 MaxDP=2.59D-04 DE=-1.25D-07 OVMax= 2.53D-05

 Cycle  10  Pass 1  IDiag  1:
 RMSU=  2.02D-06    CP:  5.32D-02  3.00D+00  6.17D-01  7.30D-01  9.12D-01
                    CP:  8.16D-01  9.38D-01  8.02D-01  7.32D-01
 E= -621.566732413598     Delta-E=       -0.000000014048 Rises=F Damp=F
 DIIS: error= 1.07D-06 at cycle  10 NSaved=  10.
 NSaved=10 IEnMin=10 EnMin= -621.566732413598     IErMin=10 ErrMin= 1.07D-06
 ErrMax= 1.07D-06  0.00D+00 EMaxC= 1.00D-01 BMatC= 1.08D-09 BMatP= 1.52D-08
 IDIUse=1 WtCom= 1.00D+00 WtEn= 0.00D+00
 Coeff-Com: -0.441D-06-0.429D-05-0.191D-03-0.101D-02-0.216D-02 0.843D-03
 Coeff-Com:  0.201D-01 0.102D+00 0.274D+00 0.606D+00
 Coeff:     -0.441D-06-0.429D-05-0.191D-03-0.101D-02-0.216D-02 0.843D-03
 Coeff:      0.201D-01 0.102D+00 0.274D+00 0.606D+00
 Gap=     0.250 Goal=   None    Shift=    0.000
 RMSDP=6.84D-07 MaxDP=4.06D-05 DE=-1.40D-08 OVMax= 6.13D-06

 Cycle  11  Pass 1  IDiag  1:
 RMSU=  5.33D-07    CP:  5.32D-02  3.00D+00  6.17D-01  7.30D-01  9.12D-01
                    CP:  8.15D-01  9.43D-01  8.14D-01  7.37D-01  9.15D-01
 E= -621.566732414686     Delta-E=       -0.000000001088 Rises=F Damp=F
 DIIS: error= 3.18D-07 at cycle  11 NSaved=  11.
 NSaved=11 IEnMin=11 EnMin= -621.566732414686     IErMin=11 ErrMin= 3.18D-07
 ErrMax= 3.18D-07  0.00D+00 EMaxC= 1.00D-01 BMatC= 6.33D-11 BMatP= 1.08D-09
 IDIUse=1 WtCom= 1.00D+00 WtEn= 0.00D+00
 Coeff-Com: -0.177D-04 0.230D-04-0.444D-04-0.255D-03-0.613D-03-0.419D-03
 Coeff-Com:  0.227D-02 0.198D-01 0.744D-01 0.256D+00 0.649D+00
 Coeff:     -0.177D-04 0.230D-04-0.444D-04-0.255D-03-0.613D-03-0.419D-03
 Coeff:      0.227D-02 0.198D-01 0.744D-01 0.256D+00 0.649D+00
 Gap=     0.250 Goal=   None    Shift=    0.000
 RMSDP=1.64D-07 MaxDP=1.22D-05 DE=-1.09D-09 OVMax= 1.62D-06

 Cycle  12  Pass 1  IDiag  1:
 RMSU=  1.05D-07    CP:  5.32D-02  3.00D+00  6.17D-01  7.30D-01  9.12D-01
[...]
 0.00000640,0.00000090,0.00000332,0.00000102,-0.00000694,0.00000281,0.0
 0000555,0.00000806,0.00000857,0.00000576,0.00009723,0.00000423,0.00022
 842,-0.00009897,-0.00032816,0.00001920,-0.00077073,-0.00094177,0.00115
 625,0.00000525,-0.00001866,0.00001570,-0.00000837,0.00001046,-0.000004
 20,0.00001018,-0.00000388,0.00000905,0.00000279,-0.00000309,0.00000283
 ,0.00030083,0.00045949,0.00112598,0.15077888,-0.01304551,0.19972643,-0
 .00009591,-0.00020440,0.00020471,0.00010618,0.00002684,0.00011714,0.00
 010471,0.00008260,-0.00002488,-0.00007300,0.00025126,-0.00016495,-0.00
 014298,0.00005933,0.00003273,-0.00024255,-0.00023759,0.00002882,-0.000
 03336,0.00004678,-0.00003495,0.00218486,0.00000262,0.00145604,0.000917
 32,-0.00081829,0.00129715,-0.00823841,-0.00840057,0.01842589,0.0000264
 1,-0.00002736,0.00000988,0.00001624,0.00000071,-0.00001966,-0.00758518
 ,-0.00225547,0.00949673,-0.07107949,-0.02691420,0.07078497,0.00029896,
 -0.00024465,-0.00073387,0.00018205,0.00030567,-0.00013981,0.00003097,0
 .00001010,-0.00027114,0.00004605,0.00003896,0.00000962,0.00004836,-0.0
 0001965,-0.00001611,-0.00008028,-0.00004244,-0.00001335,0.00002503,0.0
 0000393,0.00000291,0.00004583,0.00000072,-0.00003270,-0.00018849,-0.00
 000229,-0.00026517,0.00001124,0.00081861,-0.00068859,-0.00257880,-0.00
 170796,0.00017721,0.00000330,0.00000056,0.00000329,0.00000568,-0.00000
 653,-0.00000086,-0.00001320,0.00000557,-0.00001807,-0.00000134,0.00001
 306,0.00000231,-0.00107136,0.00070552,0.00039075,0.00900339,0.00737340
 ,-0.01894805,0.07835129,0.00006343,0.00007438,-0.00015808,0.00002859,-
 0.00002185,0.00003102,-0.00021484,-0.00008513,-0.00039983,-0.00002367,
 -0.00003927,0.00006885,-0.00000278,0.00003390,0.00000931,-0.00020745,0
 .00028324,0.00008629,-0.00008990,0.00010321,0.00007293,-0.00217345,0.0
 0128276,-0.00002903,0.00229427,0.00180473,0.00125157,0.00243979,0.0035
 0778,-0.01964645,-0.00004520,-0.00004967,-0.00006059,0.00000553,0.0000
 0878,0.00003737,-0.00598422,-0.00933407,0.02524438,-0.02748140,-0.0610
 4863,0.08132687,0.00041561,0.00005953,-0.00148891,0.00089835,0.0004156
 1,0.00056627,-0.00001483,-0.00011840,0.00010360,0.00002982,0.00003028,
 0.00005519,-0.00001970,0.00003116,-0.00001615,0.00001310,0.00002545,0.
 00001838,-0.00000556,-0.00001965,-0.00001306,-0.00002161,-0.00000731,-
 0.00001490,-0.00003797,0.00009762,-0.00009125,-0.00040241,-0.00050518,
 0.00041035,0.00395791,0.00077553,-0.00080151,-0.00002020,0.00001281,-0
 .00001668,0.00000264,-0.00000776,0.00000829,-0.00000232,-0.00000085,-0
 .00000682,0.00001327,-0.00001609,-0.00000227,-0.00488408,-0.00067686,0
 .00084813,-0.00004133,-0.00082022,-0.00042734,0.03115923,0.06448470,-0
 .00016369,-0.00002096,-0.00014462,-0.00002473,0.00001647,0.00003734,-0
 .00003242,-0.00010665,-0.00011276,-0.00001557,-0.00004587,0.00006433,0
 .00002206,-0.00003368,0.00003541,0.00002354,-0.00000067,0.00026685,-0.
 00000937,0.00001741,0.00000952,-0.00218919,0.00009367,0.00056566,-0.00
 044679,-0.00020736,0.00055421,0.00149787,0.00274086,-0.00653738,0.0000
 0517,0.00000504,-0.00001619,-0.00000737,0.00002143,0.00000037,-0.00029
 263,-0.00307081,0.00485137,0.07321161,0.08219364,-0.27673383,0.0003200
 9,0.00001763,0.00038474,-0.00009084,0.00008124,-0.00015117,0.00000499,
 -0.00002637,0.00009462,-0.00001050,-0.00000339,0.00000667,-0.00000255,
 0.00000822,-0.00001146,0.00001270,0.00001386,0.00001477,-0.00001489,-0
 .00001210,-0.00001234,0.00000107,0.00000212,0.00000462,-0.00004190,-0.
 00001992,0.00014278,0.00081241,-0.00047459,0.00061765,0.00128212,0.001
 01541,0.00024091,0.00000178,-0.00000156,-0.00000189,0.00000333,-0.0000
 0311,-0.00000038,0.00000236,0.00000039,0.00000820,0.00000228,-0.000011
 08,-0.00000584,-0.00082406,-0.00086164,0.00021525,0.00778928,0.0053052
 3,-0.01388836,-0.08087880,-0.08671558,0.28939917,0.00000593,-0.0000183
 1,-0.00004870,-0.00009025,-0.00016191,0.00006288,0.00001994,0.00001774
 ,0.00007257,-0.00003705,0.00005683,-0.00005655,0.00010174,-0.00011040,
 0.00021437,0.00096081,0.00023711,0.00142749,0.00002440,0.00005159,-0.0
 0006247,-0.00033097,0.00013620,-0.00025900,-0.00311636,-0.00165331,0.0
 0587406,0.00023187,-0.00025076,-0.00018970,0.00000819,-0.00001495,-0.0
 0001783,-0.00000371,0.00002469,0.00001134,-0.00043657,-0.00139491,-0.0
 0014846,0.00046764,0.00037825,-0.00016967,-0.05350432,0.01605631,-0.03
 945045,0.00170199,-0.00506847,0.02138015,0.00000458,-0.00000657,-0.000
 00479,0.00008707,0.00008543,-0.00004255,-0.00003018,0.00001597,-0.0000
 0601,-0.00001167,0.00002411,0.00002964,0.00000223,-0.00001107,-0.00001
 181,-0.00013251,-0.00001274,-0.00007216,0.00026865,0.00009244,-0.00026
 701,0.00002307,0.00000759,0.00003424,0.00003778,-0.00008153,-0.0000160
 1,-0.00000544,0.00000220,0.00000270,0.00000433,-0.00000874,0.00000117,
 0.00000097,0.00001248,-0.00000957,0.00000201,-0.00000618,-0.00001149,-
 0.00004225,0.00026658,0.00028258,0.00000355,0.00004196,0.00004172,-0.0
 0002791,0.00007519,0.00001644,0.05435049,-0.00000229,0.00003900,-0.000
 04849,-0.00011092,-0.00007549,-0.00001019,-0.00001057,0.00007062,0.000
 08874,-0.00001443,-0.00005368,0.00004207,0.00009006,0.00024366,0.00035
 129,-0.00195313,0.00169230,-0.00029347,-0.00004554,-0.00004579,-0.0000
 7909,-0.00008302,0.00043905,-0.00003188,-0.00619938,0.00636802,-0.0221
 7154,-0.00008418,0.00041768,-0.00135094,-0.00001114,0.00006343,0.00004
 951,-0.00000356,-0.00002426,0.00000917,0.00343581,-0.00145994,-0.00261
 191,-0.00012836,0.00057507,0.00043798,0.01567397,-0.05435742,0.0733587
 5,0.00613551,-0.00737525,0.01949650,-0.00001446,-0.00000920,0.00003856
 ,0.00001205,0.00001233,0.00000904,-0.00004126,0.00002718,0.00001843,0.
 00001126,0.00001685,0.00000295,-0.00000665,0.00000598,0.00001368,0.000
 01048,0.00000353,0.00000782,-0.00006243,-0.00043396,0.00102517,0.00002
 925,-0.00002626,0.00005644,-0.00010887,-0.00052143,0.00000703,-0.00000
 485,-0.00000995,0.00000712,-0.00001880,0.00001511,-0.00000738,0.000024
 85,-0.00000531,0.00001513,-0.00000056,0.00000485,-0.00000183,-0.000144
 47,-0.00016088,-0.00058762,-0.00006510,-0.00010444,0.00000828,-0.00016
 465,-0.00024192,0.00003981,-0.01406937,0.05634888,0.00001138,0.0000481
 3,0.00000792,-0.00006956,0.00016533,-0.00003595,0.00001976,0.00010781,
 0.00015706,0.00002592,-0.00010110,0.00006989,0.00018643,-0.00005521,0.
 00008435,-0.00176259,0.00156359,0.00086301,0.00009859,-0.00002591,0.00
 000963,-0.00038156,-0.00008241,0.00016369,-0.00139604,0.00564155,-0.01
 333646,0.00021182,0.00060377,-0.00069009,0.00000160,0.00002946,-0.0000
 1277,-0.00003188,-0.00000534,-0.00002399,0.00211964,-0.00057303,-0.000
 93504,-0.00000223,0.00058882,0.00023136,-0.03636127,0.07383067,-0.3037
 5298,0.00058263,-0.00139952,-0.00406339,-0.00002849,0.00000320,0.00004
 744,-0.00005626,-0.00009736,0.00004299,-0.00004245,0.00000066,0.000025
 85,0.00002402,-0.00001465,-0.00001812,-0.00000382,0.00001506,0.0000139
 9,0.00012069,0.00000459,-0.00001421,0.00042307,-0.00128252,0.00065672,
 0.00002544,-0.00010482,0.00000082,0.00000597,-0.00033126,0.00005035,0.
 00000801,-0.00000248,0.00000190,0.00000038,-0.00000209,0.00000706,0.00
 001587,-0.00001080,0.00002974,-0.00000363,-0.00000486,0.00000838,-0.00
 014449,-0.00019168,-0.00033954,-0.00006493,-0.00009810,-0.00000561,-0.
 00013738,-0.00018210,0.00008088,0.03554121,-0.07737111,0.32262882,0.00
 001300,0.00003301,-0.00003334,-0.00005665,-0.00004646,0.00006781,-0.00
 002245,-0.00000845,0.00002758,-0.00002047,0.00003182,-0.00005959,-0.00
 001879,0.00022350,0.00008763,0.00001102,-0.00114928,-0.00002641,-0.000
 10666,-0.00002780,-0.00001748,-0.00008470,-0.00019970,-0.00006277,-0.0
 0446408,-0.00127539,0.00105944,0.00009551,-0.00000674,-0.00020997,0.00
 000266,0.00002205,0.00004995,0.00002590,0.00000653,0.00000330,0.000417
 06,-0.00016117,-0.00084183,0.00050844,0.00031204,0.00050494,-0.2774603
 8,0.09280807,-0.06337429,-0.01548955,0.00752861,-0.00389563,0.00001024
 ,0.00000517,0.00001660,0.00006231,0.00011250,-0.00013819,0.00000542,0.
 00002688,0.00000327,-0.00001425,0.00003047,0.00002278,-0.00000969,-0.0
 0000636,0.00000501,0.00004674,-0.00002525,0.00003686,0.00000052,0.0000
 4713,0.00000666,0.00002884,0.00001437,0.00001905,0.00010335,-0.0000545
 9,-0.00000785,-0.00000120,-0.00000863,0.00000355,-0.00001064,0.0000171
 5,-0.00000777,0.00000641,-0.00000417,-0.00000521,-0.00000260,0.0000183
 2,-0.00000471,-0.00004596,0.00004970,0.00031872,0.00005448,0.00015935,
 0.00006131,-0.00002456,0.00007540,0.00002961,0.00005891,-0.00031128,0.
 00077374,0.29588161,-0.00004259,0.00002603,0.00005629,-0.00006643,-0.0
 0012940,0.00022595,-0.00005557,-0.00013057,-0.00011044,0.00003300,0.00
 011374,-0.00005419,-0.00001287,-0.00104381,-0.00006907,0.00261159,0.00
 021734,-0.00303955,0.00038126,0.00004326,0.00009115,0.00052853,-0.0001
 2525,0.00043169,0.01932503,-0.00883569,0.00925870,-0.00002076,0.000321
 60,0.00104154,0.00005453,-0.00015427,-0.00011609,-0.00001606,0.0000562
 3,-0.00000929,-0.00080741,0.00197817,0.00212580,-0.00103007,-0.0002975
 3,-0.00052392,0.09440752,-0.06943651,0.02781786,-0.02078457,0.00744048
 ,-0.00928285,0.00002575,0.00000957,-0.00004458,-0.00000018,0.00006096,
 -0.00015954,0.00009273,-0.00002603,-0.00005277,-0.00001291,-0.00000040
 ,0.00001653,0.00001146,-0.00001288,-0.00003134,0.00008446,-0.00001895,
 0.00007419,-0.00003081,0.00016693,-0.00028870,-0.00002228,-0.00007211,
 -0.00010101,-0.00015931,0.00030007,0.00000403,0.00000037,0.00001410,-0
 .00000801,0.00003396,-0.00004914,0.00003435,-0.00001636,-0.00000023,-0
 .00000623,0.00000288,-0.00001410,0.00000022,-0.00006173,-0.00006842,-0
 .00017742,-0.00011454,-0.00016060,0.00004458,-0.00000500,-0.00044900,0
 .00002384,0.00548623,-0.00274650,0.00003669,-0.09841013,0.07243406,-0.
 00002402,0.00002098,0.00004315,0.00003466,-0.00000751,0.00004352,0.000
 01683,0.00000519,-0.00001002,0.00002294,-0.00002956,0.00005984,0.00019
 325,-0.00086392,-0.00006708,0.00172428,0.00168329,-0.00179803,0.000321
 79,0.00003733,0.00007152,0.00008899,-0.00006842,0.00028231,0.01675623,
 -0.00551442,0.00263372,-0.00033185,0.00030208,0.00015706,0.00000602,-0
 .00008835,-0.00008590,-0.00002791,0.00000288,-0.00001020,0.00020361,-0
 .00039327,0.00197304,-0.00054628,-0.00038921,-0.00003424,-0.06598680,0
 .02892189,-0.06734494,0.00803978,-0.00336340,-0.00109043,0.00000125,-0
 .00000060,-0.00001473,-0.00006451,-0.00007903,0.00004742,0.00000280,-0
 .00001791,0.00000198,0.00000851,-0.00002528,-0.00002017,0.00000143,0.0
 0000286,-0.00000290,0.00006088,0.00001733,0.00003092,-0.00011857,-0.00
 035795,0.00035359,-0.00002575,-0.00002252,-0.00006825,-0.00003340,0.00
 007989,0.00002265,-0.00000101,0.00001174,-0.00001254,0.00001485,-0.000
 03291,0.00003300,0.00000249,-0.00001642,0.00001930,0.00000469,-0.00001
 197,0.00001389,0.00021061,0.00015330,-0.00013729,-0.00004445,-0.000121
 45,-0.00001780,-0.00003134,-0.00003893,-0.00000263,-0.02549829,0.00885
 144,-0.00300961,0.06403087,-0.02870767,0.06713387,0.00001212,-0.000017
 37,0.00005075,0.00013009,0.00025948,-0.00018011,0.00001832,0.00015653,
 0.00001571,0.00002385,-0.00008688,0.00005464,0.00020334,0.00007668,-0.
 00039599,0.00012879,0.00088019,0.00088013,0.00003713,-0.00008879,0.000
 14552,-0.00008965,0.00023843,-0.00021249,-0.00433082,-0.00111120,-0.00
 013454,-0.00021354,-0.00009331,-0.00042053,-0.00001728,0.00001289,0.00
 002431,0.00000708,-0.00000677,0.00002201,0.00054259,-0.00165502,0.0001
 3817,0.00003757,0.00002922,0.00007055,0.00425605,-0.01790001,0.0166333
 0,-0.05522601,0.03539880,-0.04322925,-0.00001645,0.00001932,0.00003426
 ,-0.00014389,0.00001948,-0.00001994,-0.00002004,-0.00000280,0.00005602
 ,0.00000964,-0.00002717,-0.00002660,-0.00002007,0.00001944,0.00003209,
 0.00023223,-0.00007577,0.00020179,0.00012633,-0.00003666,-0.00024734,-
 0.00000062,0.00007320,0.00007397,0.00000444,-0.00009506,0.00001854,0.0
 0000186,-0.00000676,-0.00000395,-0.00000519,0.00002165,-0.00000619,-0.
 00000454,-0.00000977,0.00000116,-0.00000584,0.00001169,0.00000258,0.00
 020860,0.00015530,-0.00003908,0.00001383,-0.00001863,-0.00005244,0.000
 01950,0.00006523,0.00005429,-0.00248880,-0.00357732,0.00008039,0.00183
 723,0.00216039,0.00050853,0.05651031,0.00000192,0.00000659,0.00005254,
 0.00001723,-0.00037606,0.00014923,-0.00017244,-0.00013471,-0.00002565,
 0.00001595,0.00019666,-0.00018860,-0.00055980,0.00018123,-0.00016198,-
 0.00345581,-0.00149375,0.00053131,0.00008813,0.00011780,0.00002786,0.0
 0037406,-0.00021392,0.00089194,0.00459823,-0.01635925,0.01755792,0.000
 01758,0.00029158,-0.00021516,0.00006589,-0.00009220,-0.00004711,0.0000
 2707,0.00006915,-0.00004122,0.00236968,0.00173417,0.00108147,-0.000115
 47,0.00028523,0.00000264,-0.00268666,-0.00101069,-0.00366155,0.0331762
 2,-0.18472807,0.14082778,0.00002304,-0.00001758,-0.00004938,0.00026106
 ,0.00003828,-0.00008625,0.00010058,-0.00000469,-0.00005543,-0.00002342
 ,0.00003229,0.00004592,0.00004218,-0.00003124,-0.00005405,0.00007186,0
 .00003433,0.00006345,0.00054916,-0.00094205,0.00004914,-0.00006221,-0.
 00013762,-0.00024331,-0.00009149,-0.00003959,-0.00005066,0.00001181,0.
 00000525,0.00000053,0.00002564,-0.00002719,0.00000772,-0.00002100,0.00
 000712,-0.00002495,-0.00000421,0.00000643,-0.00000735,-0.00049448,0.00
 010753,-0.00134794,-0.00000558,-0.00001466,-0.00008411,0.00010501,0.00
 014682,0.00002678,0.00101911,0.00053761,-0.00119609,-0.00076116,0.0004
 0660,0.00073319,-0.03375519,0.19734534,-0.00000054,0.00000454,0.000017
 89,-0.00007723,0.00003711,0.00002125,-0.00008452,-0.00003406,-0.000021
 99,-0.00000665,0.00003405,-0.00005368,-0.00029915,0.00004936,-0.000097
 25,-0.00182077,-0.00202601,-0.00011607,0.00001348,-0.00000794,0.000076
 78,0.00028475,-0.00046135,0.00039958,0.00568543,-0.01070550,0.01005125
 ,-0.00004229,0.00002484,0.00025141,0.00001069,-0.00002180,0.00000429,0
 .00001752,0.00000199,-0.00002072,0.00121741,-0.00000699,0.00091467,0.0
 0002143,0.00001562,-0.00001248,-0.00584529,0.01137508,-0.01262984,-0.0
 4165395,0.14096292,-0.17222331,0.00000782,0.00000147,-0.00001089,0.000
 03080,0.00012300,-0.00004380,0.00005312,0.00000045,-0.00000954,-0.0000
 1060,0.00000892,0.00000781,-0.00000051,-0.00000237,0.00000404,0.000133
 84,0.00000846,0.00009840,0.00017868,-0.00051441,0.00021242,0.00000286,
 -0.00012284,-0.00012159,-0.00002490,0.00008447,-0.00000554,0.00000366,
 -0.00000281,-0.00000401,0.00000176,0.00000157,0.00000332,-0.00000047,-
 0.00000422,-0.00000211,0.00000076,0.00000539,0.00000106,-0.00001852,0.
 00060969,0.00001516,-0.00000719,0.00007057,0.00000928,0.00002740,0.000
 00608,-0.00004996,0.00247559,0.00276136,0.00018727,-0.00115464,-0.0018
 1242,0.00137461,0.04105416,-0.15007514,0.18007559,-0.00006235,0.000058
 33,-0.00001575,0.00002113,0.00000572,0.00038033,-0.00011051,0.00010340
 ,0.00006173,0.00003337,0.00007383,-0.00000472,-0.00005176,-0.00032609,
 -0.00029331,-0.00016880,0.00017675,-0.00033567,0.00025958,0.00003738,0
 .00009805,0.00008522,-0.00021929,0.00009677,0.00071819,-0.00126595,0.0
 0469638,0.00000150,-0.00004646,0.00000469,0.00002690,-0.00007321,-0.00
 005462,-0.00000625,0.00003863,-0.00001612,0.00029486,0.00116194,0.0005
 9054,0.00022721,0.00000974,0.00005724,-0.01699966,-0.00187504,-0.01174
 057,-0.24599309,-0.02560710,-0.13105626,-0.00000038,-0.00000414,0.0000
 0545,-0.00005065,0.00033975,0.00013187,0.00004488,0.00000718,0.0000127
 9,0.00000571,0.00000321,0.00000914,0.00000682,-0.00000577,-0.00001594,
 -0.00000474,0.00032991,0.00012701,-0.00001739,-0.00013192,0.00004790,-
 0.00000031,-0.00003338,-0.00003182,0.00004879,0.00001273,-0.00002378,0
 .00000941,0.00000491,-0.00000471,0.00001751,-0.00001809,0.00001826,-0.
 00000887,-0.00000762,0.00000952,-0.00000443,0.00000640,0.00000343,-0.0
 0000193,-0.00001077,-0.00002327,0.00005040,0.00003580,-0.00003064,0.00
 004947,0.00013555,-0.00004771,0.00189184,0.00181334,0.00021002,-0.0013
 3699,-0.00357010,0.00047890,-0.00177815,-0.00075249,-0.00017396,0.2628
 0347,0.00004003,0.00004527,0.00006428,0.00004155,-0.00011692,-0.000136
 35,-0.00002305,0.00015317,0.00016705,0.00001208,0.00000491,-0.00006359
 ,0.00021973,-0.00035383,-0.00006565,0.00064122,0.00234196,-0.00110791,
 0.00017685,-0.00020732,0.00013377,-0.00002421,0.00036847,-0.00026394,-
 0.02193539,-0.00170968,-0.01367672,-0.00009729,0.00012379,0.00001955,0
 .00005923,0.00003264,0.00006918,0.00002364,0.00003082,0.00000174,-0.00
 279770,-0.00269749,0.00299195,-0.00079170,-0.00016315,-0.00149066,-0.0
 0029327,-0.00417685,0.00100174,-0.02417321,-0.04736908,-0.00681323,-0.
 00001485,0.00002798,0.00006664,0.00005188,0.00005645,-0.00034375,0.000
 02433,0.00004095,0.00003246,-0.00000885,0.00003671,0.00002993,-0.00001
 169,0.00000780,0.00002051,0.00069083,-0.00039598,0.00030580,-0.0000958
 9,0.00005161,0.00010673,0.00003530,0.00006623,0.00008570,-0.00002272,-
 0.00011950,0.00001175,0.00000954,-0.00002278,0.00000898,-0.00001013,0.
 00002293,-0.00000862,0.00000436,-0.00002011,-0.00000584,-0.00001905,0.
 00003975,-0.00000399,0.00005691,0.00003682,-0.00032378,-0.00008429,-0.
 00054883,-0.00021894,0.00004056,0.00026359,-0.00000770,-0.00121880,0.0
 0077054,0.00049310,0.00093451,0.00018228,-0.00067268,0.01896659,0.0040
 7326,0.00961093,0.02959294,0.04912357,-0.00000454,0.00015868,-0.000107
 08,0.00014672,-0.00040448,0.00019565,-0.00009259,0.00013102,0.00020821
 ,0.00003184,0.00008368,-0.00012905,0.00005272,-0.00049452,0.00041028,0
 .00051294,0.00177378,0.00090198,0.00029028,-0.00001468,-0.00005313,-0.
 00013945,0.00034771,-0.00028721,-0.00906643,0.00201785,-0.00913427,-0.
 00024817,0.00011053,-0.00005885,0.00005050,-0.00005043,-0.00001116,0.0
 0002458,0.00010096,0.00001853,-0.00148299,-0.00221169,0.00078679,-0.00
 030656,-0.00018187,-0.00062627,0.01913800,0.00048461,0.01175968,-0.132
 49642,-0.00822150,-0.12043374,0.00001413,0.00003325,0.00005886,0.00009
 997,-0.00006922,-0.00085977,0.00002351,0.00007135,0.00000447,-0.000018
 18,0.00006568,0.00006859,-0.00001103,-0.00001873,-0.00002889,-0.000007
 25,0.00005189,0.00018849,0.00015756,-0.00002338,0.00002244,0.00006607,
 0.00004100,0.00010411,-0.00002911,-0.00011004,0.00000015,0.00000110,-0
 .00000908,0.00001233,0.00000884,-0.00000665,0.00000538,0.00000228,-0.0
 0000597,-0.00001422,-0.00001219,0.00003096,-0.00001915,0.00016240,-0.0
 0010445,0.00034274,-0.00005042,-0.00026980,-0.00004556,-0.00004786,-0.
 00003539,0.00007347,-0.00112563,-0.00213084,0.00086865,0.00271098,0.00
 331170,-0.00056862,-0.01518442,-0.00443349,-0.00830329,0.13682884,0.00
 998157,0.12464946\\0.00000040,0.00000062,0.00000019,0.00000021,0.00000
 014,0.00000075,0.00000011,0.00000030,-0.00000047,0.00000036,0.00000040
 ,0.00000077,-0.00000019,-0.00000040,0.00000036,-0.00000020,-0.00000030
 ,-0.00000010,-0.00000024,-0.00000035,-0.00000022,0.00000001,0.00000020
 ,-0.00000067,0.,-0.00000006,0.00000024,0.00000033,0.00000073,-0.000000
 62,-0.00000040,-0.00000061,-0.00000020,-0.00000060,-0.00000082,-0.0000
 0069,0.00000033,0.00000057,-0.00000007,0.00000024,0.00000064,-0.000000
 82,-0.00000021,-0.00000048,0.00000040,0.00000001,-0.00000024,0.0000009
 8,0.00000067,0.00000108,0.00000018,0.00000033,0.00000027,0.00000113,0.
 00000016,0.00000051,-0.00000089,0.00000020,0.00000014,0.00000068,0.000
 00062,0.00000072,0.00000117,-0.00000038,-0.00000083,0.00000068,-0.0000
 0048,-0.00000071,-0.00000033,-0.00000017,0.00000004,-0.00000117,0.0000
 0059,0.00000118,-0.00000070,-0.00000051,-0.00000092,0.00000024,-0.0000
 0028,-0.00000034,-0.00000042,-0.00000084,-0.00000126,-0.00000057,-0.00
 000061,-0.00000068,-0.00000123,0.00000058,0.00000090,0.00000026,0.0000
 0045,0.00000103,-0.00000100,-0.00000004,0.00000023,-0.00000106,-0.0000
 0051,-0.00000094,0.00000032,-0.00000012,-0.00000029,0.00000031,0.00000
 027,0.00000010,0.00000127,-0.00000011,-0.00000055,0.00000128\\\@


 THERE ARE TWO THINGS THAT EVERYBODY THINKS THEY CAN DO BETTER THAN
 ANYONE ELSE - PUNCH THE FIRE, AND EDIT A DAILY PAPER.
 -- UNCLE ESEK, "CENTURY MAGAZINE", 1885
 Job cpu time:       0 days 13 hours  5 minutes 12.3 seconds.
 File lengths (MBytes):  RWF=    709 Int=      0 D2E=      0 Chk=     17 Scr=      1
 Normal termination of Gaussian 09 at Mon Apr 27 15:52:04 2015.
