 Entering Gaussian System, Link 0=g09
 Input=freq-hr-fine-species-0232-radical-0-restricted.gau
 Output=freq-hr-fine-species-0232-radical-0-restricted.log
 Initial command:
 /opt/g09/l1.exe "/scratch/pb556/g09_runs_freq//Gau-21276.inp" -scrdir="/scratch/pb556/g09_runs_freq//"
 Entering Link 1 = /opt/g09/l1.exe PID=     21285.
  
 Copyright (c) 1988,1990,1992,1993,1995,1998,2003,2009,2013,
            Gaussian, Inc.  All Rights Reserved.
  
 This is part of the Gaussian(R) 09 program.  It is based on
 the Gaussian(R) 03 system (copyright 2003, Gaussian, Inc.),
 the Gaussian(R) 98 system (copyright 1998, Gaussian, Inc.),
 the Gaussian(R) 94 system (copyright 1995, Gaussian, Inc.),
 the Gaussian 92(TM) system (copyright 1992, Gaussian, Inc.),
 the Gaussian 90(TM) system (copyright 1990, Gaussian, Inc.),
 the Gaussian 88(TM) system (copyright 1988, Gaussian, Inc.),
 the Gaussian 86(TM) system (copyright 1986, Carnegie Mellon
 University), and the Gaussian 82(TM) system (copyright 1983,
 Carnegie Mellon University). Gaussian is a federally registered
 trademark of Gaussian, Inc.
  
 This software contains proprietary and confidential information,
 including trade secrets, belonging to Gaussian, Inc.
  
 This software is provided under written license and may be
 used, copied, transmitted, or stored only in accord with that
 written license.
  
 The following legend is applicable only to US Government
 contracts under FAR:
  
                    RESTRICTED RIGHTS LEGEND
  
 Use, reproduction and disclosure by the US Government is
 subject to restrictions as set forth in subparagraphs (a)
 and (c) of the Commercial Computer Software - Restricted
 Rights clause in FAR 52.227-19.
  
 Gaussian, Inc.
 340 Quinnipiac St., Bldg. 40, Wallingford CT 06492
  
  
 ---------------------------------------------------------------
 Warning -- This program may not be used in any manner that
 competes with the business of Gaussian, Inc. or will provide
 assistance to any competitor of Gaussian, Inc.  The licensee
 of this program is prohibited from giving any competitor of
 Gaussian, Inc. access to this program.  By using this program,
 the user acknowledges that Gaussian, Inc. is engaged in the
 business of creating and licensing software in the field of
 computational chemistry and represents and warrants to the
 licensee that it is not a competitor of Gaussian, Inc. and that
 it will not use this program in any manner prohibited above.
 ---------------------------------------------------------------
  

 Cite this work as:
 Gaussian 09, Revision D.01,
 M. J. Frisch, G. W. Trucks, H. B. Schlegel, G. E. Scuseria, 
 M. A. Robb, J. R. Cheeseman, G. Scalmani, V. Barone, B. Mennucci, 
 G. A. Petersson, H. Nakatsuji, M. Caricato, X. Li, H. P. Hratchian, 
 A. F. Izmaylov, J. Bloino, G. Zheng, J. L. Sonnenberg, M. Hada, 
 M. Ehara, K. Toyota, R. Fukuda, J. Hasegawa, M. Ishida, T. Nakajima, 
 Y. Honda, O. Kitao, H. Nakai, T. Vreven, J. A. Montgomery, Jr., 
 J. E. Peralta, F. Ogliaro, M. Bearpark, J. J. Heyd, E. Brothers, 
 K. N. Kudin, V. N. Staroverov, T. Keith, R. Kobayashi, J. Normand, 
 K. Raghavachari, A. Rendell, J. C. Burant, S. S. Iyengar, J. Tomasi, 
 M. Cossi, N. Rega, J. M. Millam, M. Klene, J. E. Knox, J. B. Cross, 
 V. Bakken, C. Adamo, J. Jaramillo, R. Gomperts, R. E. Stratmann, 
 O. Yazyev, A. J. Austin, R. Cammi, C. Pomelli, J. W. Ochterski, 
 R. L. Martin, K. Morokuma, V. G. Zakrzewski, G. A. Voth, 
 P. Salvador, J. J. Dannenberg, S. Dapprich, A. D. Daniels, 
 O. Farkas, J. B. Foresman, J. V. Ortiz, J. Cioslowski, 
 and D. J. Fox, Gaussian, Inc., Wallingford CT, 2013.
 
 ******************************************
 Gaussian 09:  ES64L-G09RevD.01 24-Apr-2013
                14-Jul-2013 
 ******************************************
 %NProcShared=8
 Will use up to    8 processors via shared memory.
 %Mem=500MW
 ----------------------------------------------------------------------
 #p rB971/6-311+G(d,p) Opt=(Tight, NewEstmFC, MaxCyc=400) Freq=(ReadHin
 deredRotor) GFInput Population=None Integral(Grid=UltraFine) SCF=(MaxC
 yc=400, XQC) Guess=Mix NoSymmetry
 ----------------------------------------------------------------------
 1/6=400,7=10,10=7,14=-1,18=20,19=15,26=4,38=1/1,3;
 2/9=110,12=2,15=1,17=6,18=5,40=1/2;
 3/5=4,6=6,7=111,11=2,16=1,24=10,25=1,30=1,71=1,74=-20,75=-5,116=1/1,2,3;
 4/13=-1/1;
 5/5=2,7=400,8=3,13=1,38=5/2,8;
 7/29=1,30=1/1,2,3,16;
 1/6=400,7=10,10=7,14=-1,18=20,19=15,26=4/3(2);
 2/9=110,15=1/2;
 99/8=30/99;
 2/9=110,15=1/2;
 3/5=4,6=6,7=111,11=2,16=1,25=1,30=1,71=1,74=-20,75=-5,116=1/1,2,3;
 4/5=5,16=3,69=1/1;
 5/5=2,7=400,8=3,13=1,38=5/2,8;
 7/30=1/1,2,3,16;
 1/6=400,7=10,14=-1,18=20,19=15,26=4/3(-5);
 2/9=110,15=1/2;
 99/8=30,9=1/99;
 Leave Link    1 at Sun Jul 14 14:11:47 2013, MaxMem=   524288000 cpu:         0.8
 (Enter /opt/g09/l101.exe)
 --------------------------------------
 fine-species-0232-radical-0-restricted
 --------------------------------------
 Symbolic Z-matrix:
 Charge =  0 Multiplicity = 1
 O                    -2.21654   0.9927   -0.69488 
 C                    -3.0357    1.28537  -1.81589 
 Ti                   -0.88482   0.14809   0.13101 
 C                    -2.91485   2.77415  -2.14954 
 C                    -4.47453   0.86402  -1.50884 
 H                    -2.6599    0.69606  -2.66597 
 O                    -0.03241  -0.93039  -1.05748 
 O                     0.31434   1.33394   0.80146 
 O                    -1.58203  -0.86862   1.46882 
 H                    -3.26838   3.38094  -1.30877 
 H                    -3.51652   3.01782  -3.032 
 H                    -1.87365   3.03836  -2.35805 
 H                    -4.51839  -0.20031  -1.25978 
 H                    -5.11888   1.04546  -2.37619 
 H                    -4.86333   1.43427  -0.65844 
 H                    -0.04881  -1.87995  -1.18956 
 H                     0.3122    2.28744   0.90063 
 H                    -1.28732  -1.01106   2.37039 
 
 NAtoms=     18 NQM=       18 NQMF=       0 NMMI=      0 NMMIF=      0
                NMic=       0 NMicF=      0.
                    Isotopes and Nuclear Properties:
 (Nuclear quadrupole moments (NQMom) in fm**2, nuclear magnetic moments (NMagM)
  in nuclear magnetons)

  Atom         1           2           3           4           5           6           7           8           9          10
 IAtWgt=          16          12          48          12          12           1          16          16          16           1
 AtmWgt=  15.9949146  12.0000000  47.9479467  12.0000000  12.0000000   1.0078250  15.9949146  15.9949146  15.9949146   1.0078250
 NucSpn=           0           0           0           0           0           1           0           0           0           1
 AtZEff=   0.0000000   0.0000000   0.0000000   0.0000000   0.0000000   0.0000000   0.0000000   0.0000000   0.0000000   0.0000000
 NQMom=    0.0000000   0.0000000   0.0000000   0.0000000   0.0000000   0.0000000   0.0000000   0.0000000   0.0000000   0.0000000
 NMagM=    0.0000000   0.0000000   0.0000000   0.0000000   0.0000000   2.7928460   0.0000000   0.0000000   0.0000000   2.7928460
 AtZNuc=   8.0000000   6.0000000  22.0000000   6.0000000   6.0000000   1.0000000   8.0000000   8.0000000   8.0000000   1.0000000

  Atom        11          12          13          14          15          16          17          18
 IAtWgt=           1           1           1           1           1           1           1           1
 AtmWgt=   1.0078250   1.0078250   1.0078250   1.0078250   1.0078250   1.0078250   1.0078250   1.0078250
 NucSpn=           1           1           1           1           1           1           1           1
 AtZEff=   0.0000000   0.0000000   0.0000000   0.0000000   0.0000000   0.0000000   0.0000000   0.0000000
 NQMom=    0.0000000   0.0000000   0.0000000   0.0000000   0.0000000   0.0000000   0.0000000   0.0000000
 NMagM=    2.7928460   2.7928460   2.7928460   2.7928460   2.7928460   2.7928460   2.7928460   2.7928460
 AtZNuc=   1.0000000   1.0000000   1.0000000   1.0000000   1.0000000   1.0000000   1.0000000   1.0000000
 Leave Link  101 at Sun Jul 14 14:11:47 2013, MaxMem=   524288000 cpu:         1.9
 (Enter /opt/g09/l103.exe)

 GradGradGradGradGradGradGradGradGradGradGradGradGradGradGradGradGradGrad
 Berny optimization.
 Initialization pass.
                           ----------------------------
                           !    Initial Parameters    !
                           ! (Angstroms and Degrees)  !
 --------------------------                            --------------------------
 ! Name  Definition              Value          Derivative Info.                !
 --------------------------------------------------------------------------------
 ! R1    R(1,2)                  1.4189         estimate D2E/DX2                !
 ! R2    R(1,3)                  1.7802         estimate D2E/DX2                !
 ! R3    R(2,4)                  1.5305         estimate D2E/DX2                !
 ! R4    R(2,5)                  1.5304         estimate D2E/DX2                !
 ! R5    R(2,6)                  1.1005         estimate D2E/DX2                !
 ! R6    R(3,7)                  1.8172         estimate D2E/DX2                !
 ! R7    R(3,8)                  1.8149         estimate D2E/DX2                !
 ! R8    R(3,9)                  1.8192         estimate D2E/DX2                !
 ! R9    R(4,10)                 1.0955         estimate D2E/DX2                !
 ! R10   R(4,11)                 1.0955         estimate D2E/DX2                !
 ! R11   R(4,12)                 1.0942         estimate D2E/DX2                !
 ! R12   R(5,13)                 1.094          estimate D2E/DX2                !
 ! R13   R(5,14)                 1.0956         estimate D2E/DX2                !
 ! R14   R(5,15)                 1.0952         estimate D2E/DX2                !
 ! R15   R(7,16)                 0.9588         estimate D2E/DX2                !
 ! R16   R(8,17)                 0.9586         estimate D2E/DX2                !
 ! R17   R(9,18)                 0.9592         estimate D2E/DX2                !
 ! A1    A(2,1,3)              153.6735         estimate D2E/DX2                !
 ! A2    A(1,2,4)              109.1042         estimate D2E/DX2                !
 ! A3    A(1,2,5)              109.1157         estimate D2E/DX2                !
 ! A4    A(1,2,6)              107.618          estimate D2E/DX2                !
 ! A5    A(4,2,5)              112.6934         estimate D2E/DX2                !
 ! A6    A(4,2,6)              108.9979         estimate D2E/DX2                !
 ! A7    A(5,2,6)              109.1835         estimate D2E/DX2                !
 ! A8    A(1,3,7)              109.2123         estimate D2E/DX2                !
 ! A9    A(1,3,8)              110.8347         estimate D2E/DX2                !
 ! A10   A(1,3,9)              108.6406         estimate D2E/DX2                !
 ! A11   A(7,3,8)              108.6301         estimate D2E/DX2                !
 ! A12   A(7,3,9)              109.2108         estimate D2E/DX2                !
 ! A13   A(8,3,9)              110.2879         estimate D2E/DX2                !
 ! A14   A(2,4,10)             110.2436         estimate D2E/DX2                !
 ! A15   A(2,4,11)             110.4022         estimate D2E/DX2                !
 ! A16   A(2,4,12)             110.582          estimate D2E/DX2                !
 ! A17   A(10,4,11)            108.5295         estimate D2E/DX2                !
 ! A18   A(10,4,12)            108.6373         estimate D2E/DX2                !
 ! A19   A(11,4,12)            108.3845         estimate D2E/DX2                !
 ! A20   A(2,5,13)             110.5632         estimate D2E/DX2                !
 ! A21   A(2,5,14)             110.3957         estimate D2E/DX2                !
 ! A22   A(2,5,15)             110.2546         estimate D2E/DX2                !
 ! A23   A(13,5,14)            108.5282         estimate D2E/DX2                !
 ! A24   A(13,5,15)            108.3944         estimate D2E/DX2                !
 ! A25   A(14,5,15)            108.6436         estimate D2E/DX2                !
 ! A26   A(3,7,16)             132.0521         estimate D2E/DX2                !
 ! A27   A(3,8,17)             133.365          estimate D2E/DX2                !
 ! A28   A(3,9,18)             131.0312         estimate D2E/DX2                !
 ! D1    D(3,1,2,4)           -120.1151         estimate D2E/DX2                !
 ! D2    D(3,1,2,5)            116.3698         estimate D2E/DX2                !
 ! D3    D(3,1,2,6)             -1.9863         estimate D2E/DX2                !
 ! D4    D(2,1,3,7)              2.3762         estimate D2E/DX2                !
 ! D5    D(2,1,3,8)            122.0184         estimate D2E/DX2                !
 ! D6    D(2,1,3,9)           -116.6555         estimate D2E/DX2                !
 ! D7    D(1,2,4,10)           -61.793          estimate D2E/DX2                !
 ! D8    D(1,2,4,11)           178.3026         estimate D2E/DX2                !
 ! D9    D(1,2,4,12)            58.3612         estimate D2E/DX2                !
 ! D10   D(5,2,4,10)            59.5717         estimate D2E/DX2                !
 ! D11   D(5,2,4,11)           -60.3326         estimate D2E/DX2                !
 ! D12   D(5,2,4,12)           179.7259         estimate D2E/DX2                !
 ! D13   D(6,2,4,10)          -179.0518         estimate D2E/DX2                !
 ! D14   D(6,2,4,11)            61.0438         estimate D2E/DX2                !
 ! D15   D(6,2,4,12)           -58.8977         estimate D2E/DX2                !
 ! D16   D(1,2,5,13)           -57.723          estimate D2E/DX2                !
 ! D17   D(1,2,5,14)          -177.8274         estimate D2E/DX2                !
 ! D18   D(1,2,5,15)            62.1234         estimate D2E/DX2                !
 ! D19   D(4,2,5,13)          -179.0812         estimate D2E/DX2                !
 ! D20   D(4,2,5,14)            60.8144         estimate D2E/DX2                !
 ! D21   D(4,2,5,15)           -59.2349         estimate D2E/DX2                !
 ! D22   D(6,2,5,13)            59.6479         estimate D2E/DX2                !
 ! D23   D(6,2,5,14)           -60.4565         estimate D2E/DX2                !
 ! D24   D(6,2,5,15)           179.4943         estimate D2E/DX2                !
 ! D25   D(1,3,7,16)          -104.2629         estimate D2E/DX2                !
 ! D26   D(8,3,7,16)           134.7426         estimate D2E/DX2                !
 ! D27   D(9,3,7,16)            14.414          estimate D2E/DX2                !
 ! D28   D(1,3,8,17)             9.6665         estimate D2E/DX2                !
 ! D29   D(7,3,8,17)           129.6569         estimate D2E/DX2                !
 ! D30   D(9,3,8,17)          -110.6845         estimate D2E/DX2                !
 ! D31   D(1,3,9,18)          -137.4516         estimate D2E/DX2                !
 ! D32   D(7,3,9,18)           103.5158         estimate D2E/DX2                !
 ! D33   D(8,3,9,18)           -15.7907         estimate D2E/DX2                !
 --------------------------------------------------------------------------------
 Trust Radius=3.00D-01 FncErr=1.00D-07 GrdErr=1.00D-06
 Number of steps in this run=    108 maximum allowed number of steps=    108.
 GradGradGradGradGradGradGradGradGradGradGradGradGradGradGradGradGradGrad

 Leave Link  103 at Sun Jul 14 14:11:47 2013, MaxMem=   524288000 cpu:         0.1
 (Enter /opt/g09/l202.exe)
                          Input orientation:                          
 ---------------------------------------------------------------------
 Center     Atomic      Atomic             Coordinates (Angstroms)
 Number     Number       Type             X           Y           Z
 ---------------------------------------------------------------------
      1          8           0       -2.216540    0.992700   -0.694880
      2          6           0       -3.035700    1.285370   -1.815890
      3         22           0       -0.884820    0.148090    0.131010
      4          6           0       -2.914850    2.774150   -2.149540
      5          6           0       -4.474530    0.864020   -1.508840
      6          1           0       -2.659900    0.696060   -2.665970
      7          8           0       -0.032410   -0.930390   -1.057480
      8          8           0        0.314340    1.333940    0.801460
      9          8           0       -1.582030   -0.868620    1.468820
     10          1           0       -3.268380    3.380940   -1.308770
     11          1           0       -3.516520    3.017820   -3.032000
     12          1           0       -1.873650    3.038360   -2.358050
     13          1           0       -4.518390   -0.200310   -1.259780
     14          1           0       -5.118880    1.045460   -2.376190
     15          1           0       -4.863330    1.434270   -0.658440
     16          1           0       -0.048810   -1.879950   -1.189560
     17          1           0        0.312200    2.287440    0.900630
     18          1           0       -1.287320   -1.011060    2.370390
 ---------------------------------------------------------------------
                    Distance matrix (angstroms):
                    1          2          3          4          5
     1  O    0.000000
     2  C    1.418923   0.000000
     3  Ti   1.780151   3.116105   0.000000
     4  C    2.403588   1.530488   4.027173   0.000000
     5  C    2.403666   1.530375   4.010945   2.547880   0.000000
     6  H    2.041999   1.100522   3.357719   2.156422   2.158713
     7  O    2.932606   3.808481   1.817204   4.819198   4.812075
     8  O    2.959870   4.251547   1.814863   4.605461   5.337751
     9  O    2.923818   4.188335   1.819213   5.304593   4.498339
    10  H    2.680843   2.168577   4.266807   1.095478   2.798162
    11  H    3.354577   2.170598   5.016555   1.095499   2.806538
    12  H    2.658652   2.171928   3.940414   1.094249   3.494780
    13  H    2.653469   2.171376   3.906214   3.494342   1.093962
    14  H    3.354574   2.170514   5.001859   2.810247   1.095629
    15  H    2.683619   2.168431   4.255118   2.795574   1.095231
    16  H    3.632613   4.396937   2.560423   5.549450   5.217117
    17  H    3.258302   4.426292   2.569434   4.467021   5.544768
    18  H    3.778146   5.084817   2.553519   6.116080   5.359352
                    6          7          8          9         10
     6  H    0.000000
     7  O    3.483717   0.000000
     8  O    4.612599   2.950099   0.000000
     9  O    4.550441   2.964343   2.982090   0.000000
    10  H    3.069335   5.396500   4.634562   5.349537   0.000000
    11  H    2.501668   5.623710   5.675064   6.253323   1.778469
    12  H    2.489854   4.564277   4.204147   5.476721   1.778657
    13  H    2.496965   4.549501   5.473382   4.063755   3.793452
    14  H    2.500527   5.613836   6.300838   5.563912   3.165154
    15  H    3.070869   5.393388   5.380487   4.538223   2.599292
    16  H    3.953910   0.958842   3.798043   3.231182   6.169020
    17  H    4.907800   3.782510   0.958646   3.724468   4.347154
    18  H    5.492099   3.651246   3.244361   0.959152   6.062218
                   11         12         13         14         15
    11  H    0.000000
    12  H    1.775853   0.000000
    13  H    3.808001   4.323174   0.000000
    14  H    2.624471   3.808346   1.777330   0.000000
    15  H    3.155204   3.794729   1.775513   1.779647   0.000000
    16  H    6.277559   5.374494   4.775277   5.972581   5.869050
    17  H    5.536978   3.995099   5.847296   6.463489   5.472176
    18  H    7.098382   6.252978   4.926993   6.437402   5.285953
                   16         17         18
    16  H    0.000000
    17  H    4.676148   0.000000
    18  H    3.868090   3.949527   0.000000
 Symmetry turned off by external request.
 Stoichiometry    C3H10O4Ti
 Framework group  C1[X(C3H10O4Ti)]
 Deg. of freedom    48
 Full point group                 C1      NOp   1
 Rotational constants (GHZ):      2.2972372      0.8697214      0.8026359
 Leave Link  202 at Sun Jul 14 14:11:47 2013, MaxMem=   524288000 cpu:         0.0
 (Enter /opt/g09/l301.exe)
 Standard basis: 6-311+G(d,p) (5D, 7F)
 Ernie: Thresh=  0.10000D-02 Tol=  0.10000D-05 Strict=F.
 AO basis set in the form of general basis input (Overlap normalization):
      1 0
 S   6 1.00       0.000000000000
      0.8588500000D+04  0.1895150083D-02
      0.1297230000D+04  0.1438590063D-01
      0.2992960000D+03  0.7073200310D-01
      0.8737710000D+02  0.2400010105D+00
      0.2567890000D+02  0.5947970261D+00
      0.3740040000D+01  0.2808020123D+00
 SP   3 1.00       0.000000000000
      0.4211750000D+02  0.1138890124D+00  0.3651139738D-01
      0.9628370000D+01  0.9208111006D+00  0.2371529830D+00
      0.2853320000D+01 -0.3274470358D-02  0.8197019412D+00
 SP   1 1.00       0.000000000000
      0.9056610000D+00  0.1000000000D+01  0.1000000000D+01
 SP   1 1.00       0.000000000000
      0.2556110000D+00  0.1000000000D+01  0.1000000000D+01
 SP   1 1.00       0.000000000000
      0.8450000000D-01  0.1000000000D+01  0.1000000000D+01
 D   1 1.00       0.000000000000
      0.1292000000D+01  0.1000000000D+01
 ****
      2 0
 S   6 1.00       0.000000000000
      0.4563240000D+04  0.1966650249D-02
      0.6820240000D+03  0.1523060193D-01
      0.1549730000D+03  0.7612690966D-01
      0.4445530000D+02  0.2608010331D+00
      0.1302900000D+02  0.6164620782D+00
      0.1827730000D+01  0.2210060280D+00
 SP   3 1.00       0.000000000000
      0.2096420000D+02  0.1146600807D+00  0.4024869267D-01
      0.4803310000D+01  0.9199996477D+00  0.2375939567D+00
      0.1459330000D+01 -0.3030682134D-02  0.8158538515D+00
 SP   1 1.00       0.000000000000
      0.4834560000D+00  0.1000000000D+01  0.1000000000D+01
 SP   1 1.00       0.000000000000
      0.1455850000D+00  0.1000000000D+01  0.1000000000D+01
 SP   1 1.00       0.000000000000
      0.4380000000D-01  0.1000000000D+01  0.1000000000D+01
 D   1 1.00       0.000000000000
      0.6260000000D+00  0.1000000000D+01
 ****
      3 0
 S   6 1.00       0.000000000000
      0.2060820000D+06  0.5673151380D-03
      0.3122680000D+05  0.4379672866D-02
      0.7199320000D+04  0.2242029425D-01
      0.2048750000D+04  0.9063426645D-01
      0.6707900000D+03  0.2890357165D+00
      0.2436500000D+03  0.6803470061D+00
 S   1 1.00       0.000000000000
      0.9592500000D+02  0.1000000000D+01
 S   1 1.00       0.000000000000
      0.3981010000D+02  0.1000000000D+01
 S   1 1.00       0.000000000000
      0.1222050000D+02  0.1000000000D+01
 S   1 1.00       0.000000000000
      0.5008820000D+01  0.1000000000D+01
 S   1 1.00       0.000000000000
      0.1285690000D+01  0.1000000000D+01
 S   1 1.00       0.000000000000
      0.5128060000D+00  0.1000000000D+01
 S   1 1.00       0.000000000000
      0.8557600000D-01  0.1000000000D+01
 S   1 1.00       0.000000000000
      0.3330200000D-01  0.1000000000D+01
 S   1 1.00       0.000000000000
      0.9991000000D-02  0.1000000000D+01
 P   5 1.00       0.000000000000
      0.1264700000D+04  0.3122017423D-02
      0.3012300000D+03  0.2516579464D-01
      0.9697770000D+02  0.1184178291D+00
      0.3637270000D+02  0.3522190030D+00
      0.1478140000D+02  0.6219379661D+00
 P   1 1.00       0.000000000000
      0.6274650000D+01  0.1000000000D+01
 P   1 1.00       0.000000000000
      0.2478780000D+01  0.1000000000D+01
 P   1 1.00       0.000000000000
      0.1016180000D+01  0.1000000000D+01
 P   1 1.00       0.000000000000
      0.3981620000D+00  0.1000000000D+01
 P   1 1.00       0.000000000000
      0.1015610000D+00  0.1000000000D+01
 P   1 1.00       0.000000000000
      0.3405400000D-01  0.1000000000D+01
 D   3 1.00       0.000000000000
      0.2599240000D+02  0.5411706153D-01
      0.7086340000D+01  0.2873032281D+00
      0.2348710000D+01  0.7854540223D+00
 D   1 1.00       0.000000000000
      0.8001980000D+00  0.1000000000D+01
 D   1 1.00       0.000000000000
      0.2620490000D+00  0.1000000000D+01
 D   1 1.00       0.000000000000
      0.7200000000D-01  0.1000000000D+01
 F   1 1.00       0.000000000000
      0.6900000000D+00  0.1000000000D+01
 ****
      4 0
 S   6 1.00       0.000000000000
      0.4563240000D+04  0.1966650249D-02
      0.6820240000D+03  0.1523060193D-01
      0.1549730000D+03  0.7612690966D-01
      0.4445530000D+02  0.2608010331D+00
      0.1302900000D+02  0.6164620782D+00
      0.1827730000D+01  0.2210060280D+00
 SP   3 1.00       0.000000000000
      0.2096420000D+02  0.1146600807D+00  0.4024869267D-01
      0.4803310000D+01  0.9199996477D+00  0.2375939567D+00
      0.1459330000D+01 -0.3030682134D-02  0.8158538515D+00
 SP   1 1.00       0.000000000000
      0.4834560000D+00  0.1000000000D+01  0.1000000000D+01
 SP   1 1.00       0.000000000000
      0.1455850000D+00  0.1000000000D+01  0.1000000000D+01
 SP   1 1.00       0.000000000000
      0.4380000000D-01  0.1000000000D+01  0.1000000000D+01
 D   1 1.00       0.000000000000
      0.6260000000D+00  0.1000000000D+01
 ****
      5 0
 S   6 1.00       0.000000000000
      0.4563240000D+04  0.1966650249D-02
      0.6820240000D+03  0.1523060193D-01
      0.1549730000D+03  0.7612690966D-01
      0.4445530000D+02  0.2608010331D+00
      0.1302900000D+02  0.6164620782D+00
      0.1827730000D+01  0.2210060280D+00
 SP   3 1.00       0.000000000000
      0.2096420000D+02  0.1146600807D+00  0.4024869267D-01
      0.4803310000D+01  0.9199996477D+00  0.2375939567D+00
      0.1459330000D+01 -0.3030682134D-02  0.8158538515D+00
 SP   1 1.00       0.000000000000
      0.4834560000D+00  0.1000000000D+01  0.1000000000D+01
 SP   1 1.00       0.000000000000
      0.1455850000D+00  0.1000000000D+01  0.1000000000D+01
 SP   1 1.00       0.000000000000
      0.4380000000D-01  0.1000000000D+01  0.1000000000D+01
 D   1 1.00       0.000000000000
      0.6260000000D+00  0.1000000000D+01
 ****
      6 0
 S   3 1.00       0.000000000000
      0.3386500000D+02  0.2549381454D-01
      0.5094790000D+01  0.1903731086D+00
      0.1158790000D+01  0.8521614860D+00
 S   1 1.00       0.000000000000
      0.3258400000D+00  0.1000000000D+01
 S   1 1.00       0.000000000000
      0.1027410000D+00  0.1000000000D+01
 P   1 1.00       0.000000000000
      0.7500000000D+00  0.1000000000D+01
 ****
      7 0
 S   6 1.00       0.000000000000
      0.8588500000D+04  0.1895150083D-02
      0.1297230000D+04  0.1438590063D-01
      0.2992960000D+03  0.7073200310D-01
      0.8737710000D+02  0.2400010105D+00
      0.2567890000D+02  0.5947970261D+00
      0.3740040000D+01  0.2808020123D+00
 SP   3 1.00       0.000000000000
      0.4211750000D+02  0.1138890124D+00  0.3651139738D-01
      0.9628370000D+01  0.9208111006D+00  0.2371529830D+00
      0.2853320000D+01 -0.3274470358D-02  0.8197019412D+00
 SP   1 1.00       0.000000000000
      0.9056610000D+00  0.1000000000D+01  0.1000000000D+01
 SP   1 1.00       0.000000000000
      0.2556110000D+00  0.1000000000D+01  0.1000000000D+01
 SP   1 1.00       0.000000000000
      0.8450000000D-01  0.1000000000D+01  0.1000000000D+01
 D   1 1.00       0.000000000000
      0.1292000000D+01  0.1000000000D+01
 ****
      8 0
 S   6 1.00       0.000000000000
      0.8588500000D+04  0.1895150083D-02
      0.1297230000D+04  0.1438590063D-01
      0.2992960000D+03  0.7073200310D-01
      0.8737710000D+02  0.2400010105D+00
      0.2567890000D+02  0.5947970261D+00
      0.3740040000D+01  0.2808020123D+00
 SP   3 1.00       0.000000000000
      0.4211750000D+02  0.1138890124D+00  0.3651139738D-01
      0.9628370000D+01  0.9208111006D+00  0.2371529830D+00
      0.2853320000D+01 -0.3274470358D-02  0.8197019412D+00
 SP   1 1.00       0.000000000000
      0.9056610000D+00  0.1000000000D+01  0.1000000000D+01
 SP   1 1.00       0.000000000000
      0.2556110000D+00  0.1000000000D+01  0.1000000000D+01
 SP   1 1.00       0.000000000000
      0.8450000000D-01  0.1000000000D+01  0.1000000000D+01
 D   1 1.00       0.000000000000
      0.1292000000D+01  0.1000000000D+01
 ****
      9 0
 S   6 1.00       0.000000000000
      0.8588500000D+04  0.1895150083D-02
      0.1297230000D+04  0.1438590063D-01
      0.2992960000D+03  0.7073200310D-01
      0.8737710000D+02  0.2400010105D+00
      0.2567890000D+02  0.5947970261D+00
      0.3740040000D+01  0.2808020123D+00
 SP   3 1.00       0.000000000000
      0.4211750000D+02  0.1138890124D+00  0.3651139738D-01
      0.9628370000D+01  0.9208111006D+00  0.2371529830D+00
      0.2853320000D+01 -0.3274470358D-02  0.8197019412D+00
 SP   1 1.00       0.000000000000
      0.9056610000D+00  0.1000000000D+01  0.1000000000D+01
 SP   1 1.00       0.000000000000
      0.2556110000D+00  0.1000000000D+01  0.1000000000D+01
 SP   1 1.00       0.000000000000
      0.8450000000D-01  0.1000000000D+01  0.1000000000D+01
 D   1 1.00       0.000000000000
      0.1292000000D+01  0.1000000000D+01
 ****
     10 0
 S   3 1.00       0.000000000000
      0.3386500000D+02  0.2549381454D-01
      0.5094790000D+01  0.1903731086D+00
      0.1158790000D+01  0.8521614860D+00
 S   1 1.00       0.000000000000
      0.3258400000D+00  0.1000000000D+01
 S   1 1.00       0.000000000000
      0.1027410000D+00  0.1000000000D+01
 P   1 1.00       0.000000000000
      0.7500000000D+00  0.1000000000D+01
 ****
     11 0
 S   3 1.00       0.000000000000
      0.3386500000D+02  0.2549381454D-01
      0.5094790000D+01  0.1903731086D+00
      0.1158790000D+01  0.8521614860D+00
 S   1 1.00       0.000000000000
      0.3258400000D+00  0.1000000000D+01
 S   1 1.00       0.000000000000
      0.1027410000D+00  0.1000000000D+01
 P   1 1.00       0.000000000000
      0.7500000000D+00  0.1000000000D+01
 ****
     12 0
 S   3 1.00       0.000000000000
      0.3386500000D+02  0.2549381454D-01
      0.5094790000D+01  0.1903731086D+00
      0.1158790000D+01  0.8521614860D+00
 S   1 1.00       0.000000000000
      0.3258400000D+00  0.1000000000D+01
 S   1 1.00       0.000000000000
      0.1027410000D+00  0.1000000000D+01
 P   1 1.00       0.000000000000
      0.7500000000D+00  0.1000000000D+01
 ****
     13 0
 S   3 1.00       0.000000000000
      0.3386500000D+02  0.2549381454D-01
      0.5094790000D+01  0.1903731086D+00
      0.1158790000D+01  0.8521614860D+00
 S   1 1.00       0.000000000000
      0.3258400000D+00  0.1000000000D+01
 S   1 1.00       0.000000000000
      0.1027410000D+00  0.1000000000D+01
 P   1 1.00       0.000000000000
      0.7500000000D+00  0.1000000000D+01
 ****
     14 0
 S   3 1.00       0.000000000000
      0.3386500000D+02  0.2549381454D-01
      0.5094790000D+01  0.1903731086D+00
      0.1158790000D+01  0.8521614860D+00
 S   1 1.00       0.000000000000
      0.3258400000D+00  0.1000000000D+01
 S   1 1.00       0.000000000000
      0.1027410000D+00  0.1000000000D+01
 P   1 1.00       0.000000000000
      0.7500000000D+00  0.1000000000D+01
 ****
     15 0
 S   3 1.00       0.000000000000
      0.3386500000D+02  0.2549381454D-01
      0.5094790000D+01  0.1903731086D+00
      0.1158790000D+01  0.8521614860D+00
 S   1 1.00       0.000000000000
      0.3258400000D+00  0.1000000000D+01
 S   1 1.00       0.000000000000
      0.1027410000D+00  0.1000000000D+01
 P   1 1.00       0.000000000000
      0.7500000000D+00  0.1000000000D+01
 ****
     16 0
 S   3 1.00       0.000000000000
      0.3386500000D+02  0.2549381454D-01
      0.5094790000D+01  0.1903731086D+00
      0.1158790000D+01  0.8521614860D+00
 S   1 1.00       0.000000000000
      0.3258400000D+00  0.1000000000D+01
 S   1 1.00       0.000000000000
      0.1027410000D+00  0.1000000000D+01
 P   1 1.00       0.000000000000
      0.7500000000D+00  0.1000000000D+01
 ****
     17 0
 S   3 1.00       0.000000000000
      0.3386500000D+02  0.2549381454D-01
      0.5094790000D+01  0.1903731086D+00
      0.1158790000D+01  0.8521614860D+00
 S   1 1.00       0.000000000000
      0.3258400000D+00  0.1000000000D+01
 S   1 1.00       0.000000000000
      0.1027410000D+00  0.1000000000D+01
 P   1 1.00       0.000000000000
      0.7500000000D+00  0.1000000000D+01
 ****
     18 0
 S   3 1.00       0.000000000000
      0.3386500000D+02  0.2549381454D-01
      0.5094790000D+01  0.1903731086D+00
      0.1158790000D+01  0.8521614860D+00
 S   1 1.00       0.000000000000
      0.3258400000D+00  0.1000000000D+01
 S   1 1.00       0.000000000000
      0.1027410000D+00  0.1000000000D+01
 P   1 1.00       0.000000000000
      0.7500000000D+00  0.1000000000D+01
 ****

   272 basis functions,   426 primitive gaussians,   286 cartesian basis functions
    41 alpha electrons       41 beta electrons
       nuclear repulsion energy       590.2378921180 Hartrees.
 IExCor= 1614 DFT=T Ex+Corr=B971 ExCW=0 ScaHFX=  0.210000
 ScaDFX=  1.000000  1.000000  1.000000  1.000000 ScalE2=  1.000000  1.000000
 IRadAn=      5 IRanWt=     -1 IRanGd=            0 ICorTp=0 IEmpDi=  4
 NAtoms=   18 NActive=   18 NUniq=   18 SFac= 1.00D+00 NAtFMM=   60 NAOKFM=F Big=F
 Integral buffers will be    131072 words long.
 Raffenetti 2 integral format.
 Two-electron integral symmetry is turned off.
 Leave Link  301 at Sun Jul 14 14:11:47 2013, MaxMem=   524288000 cpu:         0.4
 (Enter /opt/g09/l302.exe)
 NPDir=0 NMtPBC=     1 NCelOv=     1 NCel=       1 NClECP=     1 NCelD=      1
         NCelK=      1 NCelE2=     1 NClLst=     1 CellRange=     0.0.
 One-electron integrals computed using PRISM.
 NBasis=   272 RedAO= T EigKep=  5.48D-05  NBF=   272
 NBsUse=   272 1.00D-06 EigRej= -1.00D+00 NBFU=   272
 Precomputing XC quadrature grid using
 IXCGrd= 4 IRadAn=           5 IRanWt=          -1 IRanGd=           0 AccXCQ= 0.00D+00.
 Generated NRdTot=       0 NPtTot=           0 NUsed=           0 NTot=          32
 NSgBfM=   286   286   286   286   286 MxSgAt=    18 MxSgA2=    18.
 Leave Link  302 at Sun Jul 14 14:11:48 2013, MaxMem=   524288000 cpu:         3.5
 (Enter /opt/g09/l303.exe)
 DipDrv:  MaxL=1.
 Leave Link  303 at Sun Jul 14 14:11:48 2013, MaxMem=   524288000 cpu:         0.4
 (Enter /opt/g09/l401.exe)
 ExpMin= 9.99D-03 ExpMax= 2.06D+05 ExpMxC= 7.20D+03 IAcc=3 IRadAn=         5 AccDes= 0.00D+00
 Harris functional with IExCor= 1614 and IRadAn=       5 diagonalized for initial guess.
 HarFok:  IExCor= 1614 AccDes= 0.00D+00 IRadAn=         5 IDoV= 1 UseB2=F ITyADJ=14
 ICtDFT=  3500011 ScaDFX=  1.000000  1.000000  1.000000  1.000000
 FoFCou: FMM=F IPFlag=           0 FMFlag=      100000 FMFlg1=           0
         NFxFlg=           0 DoJE=T BraDBF=F KetDBF=T FulRan=T
         wScrn=  0.000000 ICntrl=     500 IOpCl=  0 I1Cent=   200000004 NGrid=           0
         NMat0=    1 NMatS0=      1 NMatT0=    0 NMatD0=    1 NMtDS0=    0 NMtDT0=    0
 Symmetry not used in FoFCou.
 Harris En= -1251.63592297326    
 JPrj=0 DoOrth=F DoCkMO=T.
 Mixing orbitals, IMix= 1 IMixAn=  0 NRI=1 NE=   41 Coef=  7.07106781D-01  7.07106781D-01
 Leave Link  401 at Sun Jul 14 14:11:50 2013, MaxMem=   524288000 cpu:        19.0
 (Enter /opt/g09/l502.exe)
 Closed shell SCF:
 Using DIIS extrapolation, IDIIS=  1040.
 Two-electron integral symmetry not used.
 IVT=      267978 IEndB=      267978 NGot=   524288000 MDV=   524118745
 LenX=   524118745 LenY=   524036508
 Requested convergence on RMS density matrix=1.00D-08 within 128 cycles.
 Requested convergence on MAX density matrix=1.00D-06.
 Requested convergence on             energy=1.00D-06.
 No special actions if energy rises.
 Fock matrices will be formed incrementally for  20 cycles.

 Cycle   1  Pass 1  IDiag  1:
 FoFJK:  IHMeth= 1 ICntrl=       0 DoSepK=F KAlg= 0 I1Cent=   0 FoldK=F
 IRaf= 900000000 NMat=   1 IRICut=       1 DoRegI=T DoRafI=F ISym2E= 0.
 FoFCou: FMM=F IPFlag=           0 FMFlag=      100000 FMFlg1=           0
         NFxFlg=           0 DoJE=F BraDBF=F KetDBF=F FulRan=T
         wScrn=  0.000000 ICntrl=       0 IOpCl=  0 I1Cent=           0 NGrid=           0
         NMat0=    1 NMatS0=      1 NMatT0=    0 NMatD0=    1 NMtDS0=    0 NMtDT0=    0
 Symmetry not used in FoFCou.
 E= -1270.04092631358    
 DIIS: error= 1.48D-01 at cycle   1 NSaved=   1.
 NSaved= 1 IEnMin= 1 EnMin= -1270.04092631358     IErMin= 1 ErrMin= 1.48D-01
 ErrMax= 1.48D-01  0.00D+00 EMaxC= 1.00D-01 BMatC= 3.33D+00 BMatP= 3.33D+00
 IDIUse=3 WtCom= 0.00D+00 WtEn= 1.00D+00
 Coeff-Com:  0.100D+01
 Coeff-En:   0.100D+01
 Coeff:      0.100D+01
 Gap=     0.024 Goal=   None    Shift=    0.000
 GapD=    0.024 DampG=0.250 DampE=0.125 DampFc=0.1250 IDamp=-1.
 Damping current iteration by 1.25D-01
 RMSDP=9.78D-03 MaxDP=5.61D-01              OVMax= 7.32D-01

 Cycle   2  Pass 1  IDiag  1:
 RMSU=  1.18D-03    CP:  9.78D-01
 E= -1270.06382316137     Delta-E=       -0.022896847793 Rises=F Damp=T
 DIIS: error= 1.30D-01 at cycle   2 NSaved=   2.
 NSaved= 2 IEnMin= 2 EnMin= -1270.06382316137     IErMin= 2 ErrMin= 1.30D-01
 ErrMax= 1.30D-01  0.00D+00 EMaxC= 1.00D-01 BMatC= 1.94D+00 BMatP= 3.33D+00
 IDIUse=3 WtCom= 0.00D+00 WtEn= 1.00D+00
 Coeff-Com: -0.917D+00 0.192D+01
 Coeff-En:   0.468D+00 0.532D+00
 Coeff:      0.468D+00 0.532D+00
 Gap=     0.019 Goal=   None    Shift=    0.000
 RMSDP=5.78D-03 MaxDP=4.92D-01 DE=-2.29D-02 OVMax= 7.02D-01

 Cycle   3  Pass 1  IDiag  1:
 RMSU=  4.14D-03    CP:  8.64D-01  3.00D+00
 E= -1269.66343771517     Delta-E=        0.400385446198 Rises=F Damp=F
 DIIS: error= 8.23D-02 at cycle   3 NSaved=   3.
 NSaved= 3 IEnMin= 2 EnMin= -1270.06382316137     IErMin= 3 ErrMin= 8.23D-02
 ErrMax= 8.23D-02  0.00D+00 EMaxC= 1.00D-01 BMatC= 2.11D+00 BMatP= 1.94D+00
 IDIUse=3 WtCom= 1.77D-01 WtEn= 8.23D-01
 EnCoef did   100 forward-backward iterations
 Coeff-Com:  0.151D+01-0.140D+01 0.890D+00
 Coeff-En:   0.581D+00 0.717D-02 0.412D+00
 Coeff:      0.746D+00-0.243D+00 0.497D+00
 Gap=     0.289 Goal=   None    Shift=    0.000
 RMSDP=2.76D-03 MaxDP=1.04D-01 DE= 4.00D-01 OVMax= 2.84D-01

 Cycle   4  Pass 1  IDiag  1:
 RMSU=  2.63D-03    CP:  8.71D-01  2.92D+00  8.47D-01
 E= -1270.78660711605     Delta-E=       -1.123169400883 Rises=F Damp=F
 DIIS: error= 1.34D-02 at cycle   4 NSaved=   4.
 NSaved= 4 IEnMin= 4 EnMin= -1270.78660711605     IErMin= 4 ErrMin= 1.34D-02
 ErrMax= 1.34D-02  0.00D+00 EMaxC= 1.00D-01 BMatC= 7.79D-02 BMatP= 1.94D+00
 IDIUse=3 WtCom= 8.66D-01 WtEn= 1.34D-01
 Coeff-Com: -0.186D+00 0.301D+00 0.508D-01 0.834D+00
 Coeff-En:   0.000D+00 0.000D+00 0.580D-01 0.942D+00
 Coeff:     -0.161D+00 0.261D+00 0.518D-01 0.849D+00
 Gap=     0.267 Goal=   None    Shift=    0.000
 RMSDP=1.09D-03 MaxDP=4.99D-02 DE=-1.12D+00 OVMax= 5.36D-02

 Cycle   5  Pass 1  IDiag  1:
 RMSU=  9.71D-04    CP:  8.68D-01  3.00D+00  8.65D-01  8.36D-01
 E= -1270.82568254117     Delta-E=       -0.039075425120 Rises=F Damp=F
 DIIS: error= 5.21D-03 at cycle   5 NSaved=   5.
 NSaved= 5 IEnMin= 5 EnMin= -1270.82568254117     IErMin= 5 ErrMin= 5.21D-03
 ErrMax= 5.21D-03  0.00D+00 EMaxC= 1.00D-01 BMatC= 2.32D-02 BMatP= 7.79D-02
 IDIUse=3 WtCom= 9.48D-01 WtEn= 5.21D-02
 Coeff-Com: -0.149D+00 0.199D+00 0.578D-02 0.439D+00 0.505D+00
 Coeff-En:   0.000D+00 0.000D+00 0.000D+00 0.144D+00 0.856D+00
 Coeff:     -0.141D+00 0.188D+00 0.548D-02 0.424D+00 0.524D+00
 Gap=     0.241 Goal=   None    Shift=    0.000
 RMSDP=4.47D-04 MaxDP=1.54D-02 DE=-3.91D-02 OVMax= 4.04D-02

 Cycle   6  Pass 1  IDiag  1:
 RMSU=  4.10D-04    CP:  8.69D-01  3.00D+00  8.64D-01  8.62D-01  8.30D-01
 E= -1270.83487491601     Delta-E=       -0.009192374841 Rises=F Damp=F
 DIIS: error= 4.32D-03 at cycle   6 NSaved=   6.
 NSaved= 6 IEnMin= 6 EnMin= -1270.83487491601     IErMin= 6 ErrMin= 4.32D-03
 ErrMax= 4.32D-03  0.00D+00 EMaxC= 1.00D-01 BMatC= 7.15D-03 BMatP= 2.32D-02
 IDIUse=3 WtCom= 9.57D-01 WtEn= 4.32D-02
 Coeff-Com: -0.631D-01 0.778D-01 0.163D-01 0.113D+00 0.303D+00 0.552D+00
 Coeff-En:   0.000D+00 0.000D+00 0.000D+00 0.000D+00 0.263D+00 0.737D+00
 Coeff:     -0.604D-01 0.744D-01 0.156D-01 0.108D+00 0.302D+00 0.560D+00
 Gap=     0.249 Goal=   None    Shift=    0.000
 RMSDP=2.26D-04 MaxDP=8.10D-03 DE=-9.19D-03 OVMax= 2.36D-02

 Cycle   7  Pass 1  IDiag  1:
 RMSU=  1.15D-04    CP:  8.68D-01  3.00D+00  8.73D-01  8.35D-01  7.79D-01
                    CP:  5.84D-01
 E= -1270.83892535769     Delta-E=       -0.004050441672 Rises=F Damp=F
 DIIS: error= 2.37D-03 at cycle   7 NSaved=   7.
 NSaved= 7 IEnMin= 7 EnMin= -1270.83892535769     IErMin= 7 ErrMin= 2.37D-03
 ErrMax= 2.37D-03  0.00D+00 EMaxC= 1.00D-01 BMatC= 1.88D-03 BMatP= 7.15D-03
 IDIUse=3 WtCom= 9.76D-01 WtEn= 2.37D-02
 Coeff-Com: -0.449D-01 0.520D-01 0.952D-02-0.183D-02 0.110D+00 0.391D+00
 Coeff-Com:  0.485D+00
 Coeff-En:   0.000D+00 0.000D+00 0.000D+00 0.000D+00 0.000D+00 0.000D+00
 Coeff-En:   0.100D+01
 Coeff:     -0.438D-01 0.507D-01 0.930D-02-0.178D-02 0.107D+00 0.382D+00
 Coeff:      0.497D+00
 Gap=     0.246 Goal=   None    Shift=    0.000
 RMSDP=6.20D-05 MaxDP=2.81D-03 DE=-4.05D-03 OVMax= 5.99D-03

 Cycle   8  Pass 1  IDiag  1:
 RMSU=  5.00D-05    CP:  8.68D-01  3.00D+00  8.73D-01  8.39D-01  7.95D-01
                    CP:  6.21D-01  7.53D-01
 E= -1270.83981172276     Delta-E=       -0.000886365077 Rises=F Damp=F
 DIIS: error= 1.32D-03 at cycle   8 NSaved=   8.
 NSaved= 8 IEnMin= 8 EnMin= -1270.83981172276     IErMin= 8 ErrMin= 1.32D-03
 ErrMax= 1.32D-03  0.00D+00 EMaxC= 1.00D-01 BMatC= 5.85D-04 BMatP= 1.88D-03
 IDIUse=3 WtCom= 9.87D-01 WtEn= 1.32D-02
 Coeff-Com: -0.104D-01 0.106D-01 0.612D-02-0.573D-01-0.699D-01 0.218D-01
 Coeff-Com:  0.981D-01 0.100D+01
 Coeff-En:   0.000D+00 0.000D+00 0.000D+00 0.000D+00 0.000D+00 0.000D+00
 Coeff-En:   0.000D+00 0.100D+01
 Coeff:     -0.102D-01 0.105D-01 0.604D-02-0.565D-01-0.689D-01 0.215D-01
 Coeff:      0.968D-01 0.100D+01
 Gap=     0.244 Goal=   None    Shift=    0.000
 RMSDP=7.65D-05 MaxDP=3.64D-03 DE=-8.86D-04 OVMax= 5.06D-03

 Cycle   9  Pass 1  IDiag  1:
 RMSU=  2.42D-05    CP:  8.68D-01  3.00D+00  8.76D-01  8.17D-01  8.20D-01
                    CP:  7.03D-01  8.06D-01  9.36D-01
 E= -1270.84026879296     Delta-E=       -0.000457070199 Rises=F Damp=F
 DIIS: error= 1.90D-04 at cycle   9 NSaved=   9.
 NSaved= 9 IEnMin= 9 EnMin= -1270.84026879296     IErMin= 9 ErrMin= 1.90D-04
 ErrMax= 1.90D-04  0.00D+00 EMaxC= 1.00D-01 BMatC= 1.57D-05 BMatP= 5.85D-04
 IDIUse=3 WtCom= 9.98D-01 WtEn= 1.90D-03
 Coeff-Com: -0.817D-03 0.508D-03 0.198D-02-0.215D-01-0.395D-01-0.290D-01
 Coeff-Com: -0.360D-01 0.391D+00 0.733D+00
 Coeff-En:   0.000D+00 0.000D+00 0.000D+00 0.000D+00 0.000D+00 0.000D+00
 Coeff-En:   0.000D+00 0.000D+00 0.100D+01
 Coeff:     -0.816D-03 0.507D-03 0.198D-02-0.215D-01-0.394D-01-0.289D-01
 Coeff:     -0.359D-01 0.390D+00 0.734D+00
 Gap=     0.243 Goal=   None    Shift=    0.000
 RMSDP=1.30D-05 MaxDP=4.90D-04 DE=-4.57D-04 OVMax= 9.19D-04

 Cycle  10  Pass 1  IDiag  1:
 RMSU=  8.76D-06    CP:  8.68D-01  3.00D+00  8.77D-01  8.15D-01  8.14D-01
                    CP:  7.05D-01  8.12D-01  1.02D+00  9.21D-01
 E= -1270.84027745865     Delta-E=       -0.000008665692 Rises=F Damp=F
 DIIS: error= 7.38D-05 at cycle  10 NSaved=  10.
 NSaved=10 IEnMin=10 EnMin= -1270.84027745865     IErMin=10 ErrMin= 7.38D-05
 ErrMax= 7.38D-05  0.00D+00 EMaxC= 1.00D-01 BMatC= 3.11D-06 BMatP= 1.57D-05
 IDIUse=1 WtCom= 1.00D+00 WtEn= 0.00D+00
 Coeff-Com:  0.306D-03-0.416D-03 0.446D-03-0.518D-02-0.138D-01-0.165D-01
 Coeff-Com: -0.330D-01 0.113D+00 0.462D+00 0.493D+00
 Coeff:      0.306D-03-0.416D-03 0.446D-03-0.518D-02-0.138D-01-0.165D-01
 Coeff:     -0.330D-01 0.113D+00 0.462D+00 0.493D+00
 Gap=     0.243 Goal=   None    Shift=    0.000
 RMSDP=4.86D-06 MaxDP=1.90D-04 DE=-8.67D-06 OVMax= 5.11D-04

 Cycle  11  Pass 1  IDiag  1:
 RMSU=  2.90D-06    CP:  8.68D-01  3.00D+00  8.77D-01  8.15D-01  8.14D-01
                    CP:  7.05D-01  8.06D-01  1.03D+00  9.38D-01  5.82D-01
 E= -1270.84027966943     Delta-E=       -0.000002210774 Rises=F Damp=F
 DIIS: error= 2.93D-05 at cycle  11 NSaved=  11.
 NSaved=11 IEnMin=11 EnMin= -1270.84027966943     IErMin=11 ErrMin= 2.93D-05
 ErrMax= 2.93D-05  0.00D+00 EMaxC= 1.00D-01 BMatC= 4.13D-07 BMatP= 3.11D-06
 IDIUse=1 WtCom= 1.00D+00 WtEn= 0.00D+00
 Coeff-Com:  0.250D-03-0.283D-03 0.548D-04-0.109D-02-0.477D-02-0.758D-02
 Coeff-Com: -0.160D-01 0.370D-01 0.212D+00 0.300D+00 0.481D+00
 Coeff:      0.250D-03-0.283D-03 0.548D-04-0.109D-02-0.477D-02-0.758D-02
 Coeff:     -0.160D-01 0.370D-01 0.212D+00 0.300D+00 0.481D+00
 Gap=     0.243 Goal=   None    Shift=    0.000
 RMSDP=1.78D-06 MaxDP=5.99D-05 DE=-2.21D-06 OVMax= 1.47D-04

 Cycle  12  Pass 1  IDiag  1:
 RMSU=  1.19D-06    CP:  8.68D-01  3.00D+00  8.77D-01  8.15D-01  8.15D-01
                    CP:  7.04D-01  8.02D-01  1.03D+00  9.55D-01  5.94D-01
                    CP:  7.41D-01
 E= -1270.84027993752     Delta-E=       -0.000000268097 Rises=F Damp=F
 DIIS: error= 1.32D-05 at cycle  12 NSaved=  12.
 NSaved=12 IEnMin=12 EnMin= -1270.84027993752     IErMin=12 ErrMin= 1.32D-05
 ErrMax= 1.32D-05  0.00D+00 EMaxC= 1.00D-01 BMatC= 6.97D-08 BMatP= 4.13D-07
 IDIUse=1 WtCom= 1.00D+00 WtEn= 0.00D+00
 Coeff-Com:  0.168D-04-0.754D-05-0.160D-04 0.323D-03 0.393D-03 0.200D-03
 Coeff-Com:  0.331D-03 0.227D-02 0.224D-01 0.601D-01 0.233D+00 0.681D+00
 Coeff:      0.168D-04-0.754D-05-0.160D-04 0.323D-03 0.393D-03 0.200D-03
 Coeff:      0.331D-03 0.227D-02 0.224D-01 0.601D-01 0.233D+00 0.681D+00
 Gap=     0.243 Goal=   None    Shift=    0.000
 RMSDP=9.25D-07 MaxDP=4.98D-05 DE=-2.68D-07 OVMax= 4.88D-05

 Cycle  13  Pass 1  IDiag  1:
 RMSU=  3.16D-07    CP:  8.68D-01  3.00D+00  8.77D-01  8.16D-01  8.14D-01
                    CP:  7.03D-01  8.02D-01  1.02D+00  9.50D-01  6.10D-01
                    CP:  7.69D-01  7.47D-01
 E= -1270.84027999093     Delta-E=       -0.000000053401 Rises=F Damp=F
 DIIS: error= 1.12D-06 at cycle  13 NSaved=  13.
 NSaved=13 IEnMin=13 EnMin= -1270.84027999093     IErMin=13 ErrMin= 1.12D-06
 ErrMax= 1.12D-06  0.00D+00 EMaxC= 1.00D-01 BMatC= 4.78D-10 BMatP= 6.97D-08
 IDIUse=1 WtCom= 1.00D+00 WtEn= 0.00D+00
 Coeff-Com: -0.414D-05 0.797D-05-0.600D-05 0.137D-03 0.293D-03 0.432D-03
 Coeff-Com:  0.662D-03-0.424D-03-0.130D-02 0.705D-02 0.520D-01 0.213D+00
 Coeff-Com:  0.729D+00
 Coeff:     -0.414D-05 0.797D-05-0.600D-05 0.137D-03 0.293D-03 0.432D-03
 Coeff:      0.662D-03-0.424D-03-0.130D-02 0.705D-02 0.520D-01 0.213D+00
 Coeff:      0.729D+00
 Gap=     0.243 Goal=   None    Shift=    0.000
 RMSDP=1.50D-07 MaxDP=1.47D-05 DE=-5.34D-08 OVMax= 5.89D-06

 Cycle  14  Pass 1  IDiag  1:
 RMSU=  7.82D-08    CP:  8.68D-01  3.00D+00  8.77D-01  8.16D-01  8.14D-01
                    CP:  7.04D-01  8.01D-01  1.02D+00  9.48D-01  6.08D-01
                    CP:  7.79D-01  7.78D-01  8.01D-01
 E= -1270.84027999129     Delta-E=       -0.000000000365 Rises=F Damp=F
 DIIS: error= 4.01D-07 at cycle  14 NSaved=  14.
 NSaved=14 IEnMin=14 EnMin= -1270.84027999129     IErMin=14 ErrMin= 4.01D-07
 ErrMax= 4.01D-07  0.00D+00 EMaxC= 1.00D-01 BMatC= 6.72D-11 BMatP= 4.78D-10
 IDIUse=1 WtCom= 1.00D+00 WtEn= 0.00D+00
 Coeff-Com: -0.281D-05 0.386D-05-0.172D-05 0.402D-04 0.100D-03 0.182D-03
 Coeff-Com:  0.238D-03-0.356D-03-0.187D-02-0.507D-03 0.862D-02 0.552D-01
 Coeff-Com:  0.317D+00 0.622D+00
 Coeff:     -0.281D-05 0.386D-05-0.172D-05 0.402D-04 0.100D-03 0.182D-03
 Coeff:      0.238D-03-0.356D-03-0.187D-02-0.507D-03 0.862D-02 0.552D-01
 Coeff:      0.317D+00 0.622D+00
 Gap=     0.243 Goal=   None    Shift=    0.000
 RMSDP=2.75D-08 MaxDP=1.01D-06 DE=-3.65D-10 OVMax= 2.32D-06

 Cycle  15  Pass 1  IDiag  1:
 RMSU=  2.25D-08    CP:  8.68D-01  3.00D+00  8.77D-01  8.16D-01  8.14D-01
                    CP:  7.04D-01  8.01D-01  1.02D+00  9.49D-01  6.08D-01
                    CP:  7.79D-01  7.84D-01  8.32D-01  9.06D-01
 E= -1270.84027999131     Delta-E=       -0.000000000022 Rises=F Damp=F
 DIIS: error= 3.09D-07 at cycle  15 NSaved=  15.
 NSaved=15 IEnMin=15 EnMin= -1270.84027999131     IErMin=15 ErrMin= 3.09D-07
 ErrMax= 3.09D-07  0.00D+00 EMaxC= 1.00D-01 BMatC= 3.34D-11 BMatP= 6.72D-11
 IDIUse=1 WtCom= 1.00D+00 WtEn= 0.00D+00
 Coeff-Com: -0.499D-06 0.434D-06-0.325D-06 0.194D-05 0.798D-05 0.300D-04
 Coeff-Com:  0.814D-05-0.177D-03-0.925D-03-0.158D-02-0.389D-02-0.205D-02
 Coeff-Com:  0.860D-01 0.447D+00 0.476D+00
 Coeff:     -0.499D-06 0.434D-06-0.325D-06 0.194D-05 0.798D-05 0.300D-04
 Coeff:      0.814D-05-0.177D-03-0.925D-03-0.158D-02-0.389D-02-0.205D-02
 Coeff:      0.860D-01 0.447D+00 0.476D+00
 Gap=     0.243 Goal=   None    Shift=    0.000
 RMSDP=1.43D-08 MaxDP=4.46D-07 DE=-2.18D-11 OVMax= 1.19D-06

 Cycle  16  Pass 1  IDiag  1:
 RMSU=  8.32D-09    CP:  8.68D-01  3.00D+00  8.77D-01  8.16D-01  8.14D-01
                    CP:  7.04D-01  8.01D-01  1.02D+00  9.49D-01  6.08D-01
                    CP:  7.80D-01  7.84D-01  8.42D-01  9.37D-01  6.10D-01
 E= -1270.84027999132     Delta-E=       -0.000000000007 Rises=F Damp=F
 DIIS: error= 5.49D-08 at cycle  16 NSaved=  16.
 NSaved=16 IEnMin=16 EnMin= -1270.84027999132     IErMin=16 ErrMin= 5.49D-08
 ErrMax= 5.49D-08  0.00D+00 EMaxC= 1.00D-01 BMatC= 8.52D-13 BMatP= 3.34D-11
 IDIUse=1 WtCom= 1.00D+00 WtEn= 0.00D+00
 Coeff-Com: -0.856D-07 0.235D-07 0.104D-06-0.150D-05-0.204D-05-0.118D-05
 Coeff-Com: -0.996D-05-0.587D-04-0.232D-03-0.573D-03-0.197D-02-0.499D-02
 Coeff-Com:  0.564D-02 0.122D+00 0.199D+00 0.681D+00
 Coeff:     -0.856D-07 0.235D-07 0.104D-06-0.150D-05-0.204D-05-0.118D-05
 Coeff:     -0.996D-05-0.587D-04-0.232D-03-0.573D-03-0.197D-02-0.499D-02
 Coeff:      0.564D-02 0.122D+00 0.199D+00 0.681D+00
 Gap=     0.243 Goal=   None    Shift=    0.000
 RMSDP=4.19D-09 MaxDP=1.28D-07 DE=-6.82D-12 OVMax= 2.69D-07

 SCF Done:  E(RB971) =  -1270.84027999     A.U. after   16 cycles
            NFock= 16  Conv=0.42D-08     -V/T= 2.0016
 KE= 1.268777741492D+03 PE=-4.184068534597D+03 EE= 1.054212620996D+03
 Leave Link  502 at Sun Jul 14 14:13:24 2013, MaxMem=   524288000 cpu:       746.4
 (Enter /opt/g09/l508.exe)
 QCSCF skips out because SCF is already converged.
 Leave Link  508 at Sun Jul 14 14:13:24 2013, MaxMem=   524288000 cpu:         0.0
 (Enter /opt/g09/l701.exe)
 Compute integral first derivatives.
 ... and contract with generalized density number  0.
 Leave Link  701 at Sun Jul 14 14:13:24 2013, MaxMem=   524288000 cpu:         2.5
 (Enter /opt/g09/l702.exe)
 L702 exits ... SP integral derivatives will be done elsewhere.
 Leave Link  702 at Sun Jul 14 14:13:24 2013, MaxMem=   524288000 cpu:         0.3
 (Enter /opt/g09/l703.exe)
 Compute integral first derivatives, UseDBF=F ICtDFT=           0.
 Integral derivatives from FoFJK, PRISM(SPDF).
 Calling FoFJK, ICntrl=      2127 FMM=F ISym2X=0 I1Cent= 0 IOpClX= 0 NMat=1 NMatS=1 NMatT=0.
 FoFJK:  IHMeth= 1 ICntrl=    2127 DoSepK=F KAlg= 0 I1Cent=   0 FoldK=F
 IRaf=         0 NMat=   1 IRICut=       1 DoRegI=T DoRafI=F ISym2E= 0.
 FoFCou: FMM=F IPFlag=           0 FMFlag=      100000 FMFlg1=         800
         NFxFlg=           0 DoJE=F BraDBF=F KetDBF=F FulRan=T
         wScrn=  0.000000 ICntrl=    2127 IOpCl=  0 I1Cent=           0 NGrid=           0
         NMat0=    1 NMatS0=      1 NMatT0=    0 NMatD0=    1 NMtDS0=    0 NMtDT0=    0
 Symmetry not used in FoFCou.
 Leave Link  703 at Sun Jul 14 14:13:41 2013, MaxMem=   524288000 cpu:       134.2
 (Enter /opt/g09/l716.exe)
 Dipole        =-4.26059980D-01 2.14943687D-01-8.38044672D-02
 -------------------------------------------------------------------
 Center     Atomic                   Forces (Hartrees/Bohr)
 Number     Number              X              Y              Z
 -------------------------------------------------------------------
      1        8          -0.000002505    0.000002011   -0.000001936
      2        6          -0.000000056    0.000000622    0.000000074
      3       22           0.000001509   -0.000003085   -0.000001789
      4        6           0.000004434    0.000002059    0.000008197
      5        6          -0.000002192    0.000005162   -0.000001485
      6        1           0.000000576   -0.000001046   -0.000000842
      7        8          -0.000000522    0.000007971    0.000002080
      8        8           0.000000354    0.000000697    0.000001092
      9        8          -0.000001177    0.000000442   -0.000003330
     10        1           0.000001400   -0.000001732   -0.000003217
     11        1          -0.000002503    0.000000960   -0.000003028
     12        1          -0.000000684    0.000000127    0.000000344
     13        1          -0.000000078   -0.000005106    0.000001722
     14        1           0.000000849    0.000001107    0.000000732
     15        1           0.000000318    0.000000093   -0.000000384
     16        1          -0.000000849   -0.000007612   -0.000001366
     17        1           0.000000420   -0.000001486   -0.000000228
     18        1           0.000000709   -0.000001182    0.000003363
 -------------------------------------------------------------------
 Cartesian Forces:  Max     0.000008197 RMS     0.000002650
 FormGI is forming the generalized inverse of G from B-inverse, IUseBI=4.
 Leave Link  716 at Sun Jul 14 14:13:41 2013, MaxMem=   524288000 cpu:         0.3
 (Enter /opt/g09/l103.exe)

 GradGradGradGradGradGradGradGradGradGradGradGradGradGradGradGradGradGrad
 Berny optimization.
 Red2BG is reusing G-inverse.
 Internal  Forces:  Max     0.000007334 RMS     0.000001443
 Search for a local minimum.
 Step number   1 out of a maximum of  108
 All quantities printed in internal units (Hartrees-Bohrs-Radians)
 RMS Force = .14431D-05 SwitMx=.10000D-02 MixMth= 2
 Mixed Optimization -- En-DIIS/RFO-DIIS
 Second derivative matrix not updated -- first step.
 ITU=  0
     Eigenvalues ---    0.00363   0.00364   0.01441   0.04232   0.04483
     Eigenvalues ---    0.04509   0.04540   0.04839   0.05000   0.05615
     Eigenvalues ---    0.05618   0.05644   0.05644   0.07481   0.12550
     Eigenvalues ---    0.12774   0.13015   0.16000   0.16000   0.16000
     Eigenvalues ---    0.16000   0.16000   0.16000   0.16000   0.16000
     Eigenvalues ---    0.16000   0.16827   0.19780   0.20841   0.21009
     Eigenvalues ---    0.22843   0.22976   0.23132   0.25000   0.25623
     Eigenvalues ---    0.29378   0.29389   0.33624   0.34170   0.34185
     Eigenvalues ---    0.34187   0.34215   0.34326   0.34359   0.42623
     Eigenvalues ---    0.55656   0.55723   0.55766
 RFO step:  Lambda= 0.00000000D+00 EMin= 3.62652173D-03
 Linear search not attempted -- first point.
 Iteration  1 RMS(Cart)=  0.00000519 RMS(Int)=  0.00000000
 Iteration  2 RMS(Cart)=  0.00000000 RMS(Int)=  0.00000000
 ITry= 1 IFail=0 DXMaxC= 1.43D-05 DCOld= 1.00D+10 DXMaxT= 3.00D-01 DXLimC= 3.00D+00 Rises=F
 Variable       Old X    -DE/DX   Delta X   Delta X   Delta X     New X
                                 (Linear)    (Quad)   (Total)
    R1        2.68138   0.00000   0.00000   0.00000   0.00000   2.68137
    R2        3.36400   0.00000   0.00000   0.00001   0.00001   3.36401
    R3        2.89220   0.00000   0.00000   0.00000   0.00000   2.89220
    R4        2.89199   0.00000   0.00000   0.00000   0.00000   2.89199
    R5        2.07968   0.00000   0.00000   0.00000   0.00000   2.07969
    R6        3.43402   0.00000   0.00000  -0.00001  -0.00001   3.43401
    R7        3.42959   0.00000   0.00000   0.00000   0.00000   3.42960
    R8        3.43781   0.00000   0.00000   0.00000   0.00000   3.43782
    R9        2.07015   0.00000   0.00000  -0.00001  -0.00001   2.07014
   R10        2.07019   0.00000   0.00000   0.00001   0.00001   2.07021
   R11        2.06783   0.00000   0.00000   0.00000   0.00000   2.06783
   R12        2.06729   0.00001   0.00000   0.00002   0.00002   2.06731
   R13        2.07044   0.00000   0.00000   0.00000   0.00000   2.07044
   R14        2.06969   0.00000   0.00000   0.00000   0.00000   2.06968
   R15        1.81195   0.00001   0.00000   0.00001   0.00001   1.81196
   R16        1.81158   0.00000   0.00000   0.00000   0.00000   1.81158
   R17        1.81253   0.00000   0.00000   0.00001   0.00001   1.81254
    A1        2.68211   0.00000   0.00000   0.00000   0.00000   2.68211
    A2        1.90423   0.00000   0.00000  -0.00001  -0.00001   1.90422
    A3        1.90443   0.00000   0.00000   0.00000   0.00000   1.90443
    A4        1.87829   0.00000   0.00000   0.00000   0.00000   1.87829
    A5        1.96687   0.00000   0.00000   0.00000   0.00000   1.96687
    A6        1.90237   0.00000   0.00000   0.00001   0.00001   1.90238
    A7        1.90561   0.00000   0.00000   0.00000   0.00000   1.90561
    A8        1.90611   0.00000   0.00000   0.00000   0.00000   1.90612
    A9        1.93443   0.00000   0.00000   0.00000   0.00000   1.93443
   A10        1.89614   0.00000   0.00000   0.00000   0.00000   1.89614
   A11        1.89595   0.00000   0.00000   0.00000   0.00000   1.89595
   A12        1.90609   0.00000   0.00000   0.00000   0.00000   1.90609
   A13        1.92489   0.00000   0.00000   0.00000   0.00000   1.92488
   A14        1.92411   0.00000   0.00000   0.00000   0.00000   1.92412
   A15        1.92688   0.00000   0.00000  -0.00001  -0.00001   1.92687
   A16        1.93002   0.00000   0.00000   0.00001   0.00001   1.93003
   A17        1.89420   0.00000   0.00000   0.00000   0.00000   1.89419
   A18        1.89608   0.00000   0.00000   0.00000   0.00000   1.89608
   A19        1.89167   0.00000   0.00000   0.00000   0.00000   1.89167
   A20        1.92969   0.00000   0.00000   0.00000   0.00000   1.92969
   A21        1.92677   0.00000   0.00000   0.00000   0.00000   1.92677
   A22        1.92431   0.00000   0.00000   0.00000   0.00000   1.92430
   A23        1.89417   0.00000   0.00000   0.00001   0.00001   1.89418
   A24        1.89184   0.00000   0.00000   0.00000   0.00000   1.89184
   A25        1.89619   0.00000   0.00000   0.00000   0.00000   1.89619
   A26        2.30474   0.00000   0.00000   0.00000   0.00000   2.30474
   A27        2.32766   0.00000   0.00000   0.00000   0.00000   2.32766
   A28        2.28693   0.00000   0.00000   0.00000   0.00000   2.28693
    D1       -2.09640   0.00000   0.00000   0.00000   0.00000  -2.09640
    D2        2.03104   0.00000   0.00000   0.00000   0.00000   2.03104
    D3       -0.03467   0.00000   0.00000   0.00000   0.00000  -0.03466
    D4        0.04147   0.00000   0.00000   0.00000   0.00000   0.04147
    D5        2.12962   0.00000   0.00000   0.00000   0.00000   2.12963
    D6       -2.03602   0.00000   0.00000   0.00000   0.00000  -2.03602
    D7       -1.07849   0.00000   0.00000   0.00000   0.00000  -1.07850
    D8        3.11197   0.00000   0.00000   0.00000   0.00000   3.11197
    D9        1.01859   0.00000   0.00000   0.00000   0.00000   1.01860
   D10        1.03972   0.00000   0.00000  -0.00001  -0.00001   1.03971
   D11       -1.05300   0.00000   0.00000   0.00000   0.00000  -1.05301
   D12        3.13681   0.00000   0.00000   0.00000   0.00000   3.13681
   D13       -3.12504   0.00000   0.00000   0.00000   0.00000  -3.12504
   D14        1.06542   0.00000   0.00000   0.00001   0.00001   1.06542
   D15       -1.02796   0.00000   0.00000   0.00001   0.00001  -1.02795
   D16       -1.00746   0.00000   0.00000   0.00000   0.00000  -1.00745
   D17       -3.10367   0.00000   0.00000   0.00000   0.00000  -3.10368
   D18        1.08426   0.00000   0.00000   0.00000   0.00000   1.08426
   D19       -3.12556   0.00000   0.00000   0.00001   0.00001  -3.12554
   D20        1.06141   0.00000   0.00000   0.00001   0.00001   1.06142
   D21       -1.03384   0.00000   0.00000   0.00001   0.00001  -1.03383
   D22        1.04105   0.00000   0.00000   0.00000   0.00000   1.04105
   D23       -1.05517   0.00000   0.00000  -0.00001  -0.00001  -1.05517
   D24        3.13277   0.00000   0.00000   0.00000   0.00000   3.13276
   D25       -1.81973   0.00000   0.00000   0.00000   0.00000  -1.81973
   D26        2.35170   0.00000   0.00000   0.00000   0.00000   2.35170
   D27        0.25157   0.00000   0.00000   0.00000   0.00000   0.25158
   D28        0.16871   0.00000   0.00000  -0.00001  -0.00001   0.16871
   D29        2.26294   0.00000   0.00000   0.00000   0.00000   2.26294
   D30       -1.93181   0.00000   0.00000   0.00000   0.00000  -1.93181
   D31       -2.39898   0.00000   0.00000   0.00000   0.00000  -2.39898
   D32        1.80669   0.00000   0.00000   0.00000   0.00000   1.80669
   D33       -0.27560   0.00000   0.00000   0.00000   0.00000  -0.27560
         Item               Value     Threshold  Converged?
 Maximum Force            0.000007     0.000015     YES
 RMS     Force            0.000001     0.000010     YES
 Maximum Displacement     0.000014     0.000060     YES
 RMS     Displacement     0.000005     0.000040     YES
 Predicted change in Energy=-2.301334D-10
 Optimization completed.
    -- Stationary point found.
                           ----------------------------
                           !   Optimized Parameters   !
                           ! (Angstroms and Degrees)  !
 --------------------------                            --------------------------
 ! Name  Definition              Value          Derivative Info.                !
 --------------------------------------------------------------------------------
 ! R1    R(1,2)                  1.4189         -DE/DX =    0.0                 !
 ! R2    R(1,3)                  1.7802         -DE/DX =    0.0                 !
 ! R3    R(2,4)                  1.5305         -DE/DX =    0.0                 !
 ! R4    R(2,5)                  1.5304         -DE/DX =    0.0                 !
 ! R5    R(2,6)                  1.1005         -DE/DX =    0.0                 !
 ! R6    R(3,7)                  1.8172         -DE/DX =    0.0                 !
 ! R7    R(3,8)                  1.8149         -DE/DX =    0.0                 !
 ! R8    R(3,9)                  1.8192         -DE/DX =    0.0                 !
 ! R9    R(4,10)                 1.0955         -DE/DX =    0.0                 !
 ! R10   R(4,11)                 1.0955         -DE/DX =    0.0                 !
 ! R11   R(4,12)                 1.0942         -DE/DX =    0.0                 !
 ! R12   R(5,13)                 1.094          -DE/DX =    0.0                 !
 ! R13   R(5,14)                 1.0956         -DE/DX =    0.0                 !
 ! R14   R(5,15)                 1.0952         -DE/DX =    0.0                 !
 ! R15   R(7,16)                 0.9588         -DE/DX =    0.0                 !
 ! R16   R(8,17)                 0.9586         -DE/DX =    0.0                 !
 ! R17   R(9,18)                 0.9592         -DE/DX =    0.0                 !
 ! A1    A(2,1,3)              153.6735         -DE/DX =    0.0                 !
 ! A2    A(1,2,4)              109.1042         -DE/DX =    0.0                 !
 ! A3    A(1,2,5)              109.1157         -DE/DX =    0.0                 !
 ! A4    A(1,2,6)              107.618          -DE/DX =    0.0                 !
 ! A5    A(4,2,5)              112.6934         -DE/DX =    0.0                 !
 ! A6    A(4,2,6)              108.9979         -DE/DX =    0.0                 !
 ! A7    A(5,2,6)              109.1835         -DE/DX =    0.0                 !
 ! A8    A(1,3,7)              109.2123         -DE/DX =    0.0                 !
 ! A9    A(1,3,8)              110.8347         -DE/DX =    0.0                 !
 ! A10   A(1,3,9)              108.6406         -DE/DX =    0.0                 !
 ! A11   A(7,3,8)              108.6301         -DE/DX =    0.0                 !
 ! A12   A(7,3,9)              109.2108         -DE/DX =    0.0                 !
 ! A13   A(8,3,9)              110.2879         -DE/DX =    0.0                 !
 ! A14   A(2,4,10)             110.2436         -DE/DX =    0.0                 !
 ! A15   A(2,4,11)             110.4022         -DE/DX =    0.0                 !
 ! A16   A(2,4,12)             110.582          -DE/DX =    0.0                 !
 ! A17   A(10,4,11)            108.5295         -DE/DX =    0.0                 !
 ! A18   A(10,4,12)            108.6373         -DE/DX =    0.0                 !
 ! A19   A(11,4,12)            108.3845         -DE/DX =    0.0                 !
 ! A20   A(2,5,13)             110.5632         -DE/DX =    0.0                 !
 ! A21   A(2,5,14)             110.3957         -DE/DX =    0.0                 !
 ! A22   A(2,5,15)             110.2546         -DE/DX =    0.0                 !
 ! A23   A(13,5,14)            108.5282         -DE/DX =    0.0                 !
 ! A24   A(13,5,15)            108.3944         -DE/DX =    0.0                 !
 ! A25   A(14,5,15)            108.6436         -DE/DX =    0.0                 !
 ! A26   A(3,7,16)             132.0521         -DE/DX =    0.0                 !
 ! A27   A(3,8,17)             133.365          -DE/DX =    0.0                 !
 ! A28   A(3,9,18)             131.0312         -DE/DX =    0.0                 !
 ! D1    D(3,1,2,4)           -120.1151         -DE/DX =    0.0                 !
 ! D2    D(3,1,2,5)            116.3698         -DE/DX =    0.0                 !
 ! D3    D(3,1,2,6)             -1.9863         -DE/DX =    0.0                 !
 ! D4    D(2,1,3,7)              2.3762         -DE/DX =    0.0                 !
 ! D5    D(2,1,3,8)            122.0184         -DE/DX =    0.0                 !
 ! D6    D(2,1,3,9)           -116.6555         -DE/DX =    0.0                 !
 ! D7    D(1,2,4,10)           -61.793          -DE/DX =    0.0                 !
 ! D8    D(1,2,4,11)           178.3026         -DE/DX =    0.0                 !
 ! D9    D(1,2,4,12)            58.3612         -DE/DX =    0.0                 !
 ! D10   D(5,2,4,10)            59.5717         -DE/DX =    0.0                 !
 ! D11   D(5,2,4,11)           -60.3326         -DE/DX =    0.0                 !
 ! D12   D(5,2,4,12)           179.7259         -DE/DX =    0.0                 !
 ! D13   D(6,2,4,10)          -179.0518         -DE/DX =    0.0                 !
 ! D14   D(6,2,4,11)            61.0438         -DE/DX =    0.0                 !
 ! D15   D(6,2,4,12)           -58.8977         -DE/DX =    0.0                 !
 ! D16   D(1,2,5,13)           -57.723          -DE/DX =    0.0                 !
 ! D17   D(1,2,5,14)          -177.8274         -DE/DX =    0.0                 !
 ! D18   D(1,2,5,15)            62.1234         -DE/DX =    0.0                 !
 ! D19   D(4,2,5,13)          -179.0812         -DE/DX =    0.0                 !
 ! D20   D(4,2,5,14)            60.8144         -DE/DX =    0.0                 !
 ! D21   D(4,2,5,15)           -59.2349         -DE/DX =    0.0                 !
 ! D22   D(6,2,5,13)            59.6479         -DE/DX =    0.0                 !
 ! D23   D(6,2,5,14)           -60.4565         -DE/DX =    0.0                 !
 ! D24   D(6,2,5,15)           179.4943         -DE/DX =    0.0                 !
 ! D25   D(1,3,7,16)          -104.2629         -DE/DX =    0.0                 !
 ! D26   D(8,3,7,16)           134.7426         -DE/DX =    0.0                 !
 ! D27   D(9,3,7,16)            14.414          -DE/DX =    0.0                 !
 ! D28   D(1,3,8,17)             9.6665         -DE/DX =    0.0                 !
 ! D29   D(7,3,8,17)           129.6569         -DE/DX =    0.0                 !
 ! D30   D(9,3,8,17)          -110.6845         -DE/DX =    0.0                 !
 ! D31   D(1,3,9,18)          -137.4516         -DE/DX =    0.0                 !
 ! D32   D(7,3,9,18)           103.5158         -DE/DX =    0.0                 !
 ! D33   D(8,3,9,18)           -15.7907         -DE/DX =    0.0                 !
 --------------------------------------------------------------------------------
 Lowest energy point so far.  Saving SCF results.
 GradGradGradGradGradGradGradGradGradGradGradGradGradGradGradGradGradGrad

 Largest change from initial coordinates is atom    0       0.000 Angstoms.
 Leave Link  103 at Sun Jul 14 14:13:41 2013, MaxMem=   524288000 cpu:         0.2
 (Enter /opt/g09/l202.exe)
                          Input orientation:                          
 ---------------------------------------------------------------------
 Center     Atomic      Atomic             Coordinates (Angstroms)
 Number     Number       Type             X           Y           Z
 ---------------------------------------------------------------------
      1          8           0       -2.216540    0.992700   -0.694880
      2          6           0       -3.035700    1.285370   -1.815890
      3         22           0       -0.884820    0.148090    0.131010
      4          6           0       -2.914850    2.774150   -2.149540
      5          6           0       -4.474530    0.864020   -1.508840
      6          1           0       -2.659900    0.696060   -2.665970
      7          8           0       -0.032410   -0.930390   -1.057480
      8          8           0        0.314340    1.333940    0.801460
      9          8           0       -1.582030   -0.868620    1.468820
     10          1           0       -3.268380    3.380940   -1.308770
     11          1           0       -3.516520    3.017820   -3.032000
     12          1           0       -1.873650    3.038360   -2.358050
     13          1           0       -4.518390   -0.200310   -1.259780
     14          1           0       -5.118880    1.045460   -2.376190
     15          1           0       -4.863330    1.434270   -0.658440
     16          1           0       -0.048810   -1.879950   -1.189560
     17          1           0        0.312200    2.287440    0.900630
     18          1           0       -1.287320   -1.011060    2.370390
 ---------------------------------------------------------------------
                    Distance matrix (angstroms):
                    1          2          3          4          5
     1  O    0.000000
     2  C    1.418923   0.000000
     3  Ti   1.780151   3.116105   0.000000
     4  C    2.403588   1.530488   4.027173   0.000000
     5  C    2.403666   1.530375   4.010945   2.547880   0.000000
     6  H    2.041999   1.100522   3.357719   2.156422   2.158713
     7  O    2.932606   3.808481   1.817204   4.819198   4.812075
     8  O    2.959870   4.251547   1.814863   4.605461   5.337751
     9  O    2.923818   4.188335   1.819213   5.304593   4.498339
    10  H    2.680843   2.168577   4.266807   1.095478   2.798162
    11  H    3.354577   2.170598   5.016555   1.095499   2.806538
    12  H    2.658652   2.171928   3.940414   1.094249   3.494780
    13  H    2.653469   2.171376   3.906214   3.494342   1.093962
    14  H    3.354574   2.170514   5.001859   2.810247   1.095629
    15  H    2.683619   2.168431   4.255118   2.795574   1.095231
    16  H    3.632613   4.396937   2.560423   5.549450   5.217117
    17  H    3.258302   4.426292   2.569434   4.467021   5.544768
    18  H    3.778146   5.084817   2.553519   6.116080   5.359352
                    6          7          8          9         10
     6  H    0.000000
     7  O    3.483717   0.000000
     8  O    4.612599   2.950099   0.000000
     9  O    4.550441   2.964343   2.982090   0.000000
    10  H    3.069335   5.396500   4.634562   5.349537   0.000000
    11  H    2.501668   5.623710   5.675064   6.253323   1.778469
    12  H    2.489854   4.564277   4.204147   5.476721   1.778657
    13  H    2.496965   4.549501   5.473382   4.063755   3.793452
    14  H    2.500527   5.613836   6.300838   5.563912   3.165154
    15  H    3.070869   5.393388   5.380487   4.538223   2.599292
    16  H    3.953910   0.958842   3.798043   3.231182   6.169020
    17  H    4.907800   3.782510   0.958646   3.724468   4.347154
    18  H    5.492099   3.651246   3.244361   0.959152   6.062218
                   11         12         13         14         15
    11  H    0.000000
    12  H    1.775853   0.000000
    13  H    3.808001   4.323174   0.000000
    14  H    2.624471   3.808346   1.777330   0.000000
    15  H    3.155204   3.794729   1.775513   1.779647   0.000000
    16  H    6.277559   5.374494   4.775277   5.972581   5.869050
    17  H    5.536978   3.995099   5.847296   6.463489   5.472176
    18  H    7.098382   6.252978   4.926993   6.437402   5.285953
                   16         17         18
    16  H    0.000000
    17  H    4.676148   0.000000
    18  H    3.868090   3.949527   0.000000
 Symmetry turned off by external request.
 Stoichiometry    C3H10O4Ti
 Framework group  C1[X(C3H10O4Ti)]
 Deg. of freedom    48
 Full point group                 C1      NOp   1
 Rotational constants (GHZ):      2.2972372      0.8697214      0.8026359
 Leave Link  202 at Sun Jul 14 14:13:41 2013, MaxMem=   524288000 cpu:         0.0
 (Enter /opt/g09/l9999.exe)
 1\1\GINC-ESCHER\FOpt\RB971\6-311+G(d,p)\C3H10O4Ti1\PB556\14-Jul-2013\0
 \\#p rB971/6-311+G(d,p) Opt=(Tight, NewEstmFC, MaxCyc=400) Freq=(ReadH
 inderedRotor) GFInput Population=None Integral(Grid=UltraFine) SCF=(Ma
 xCyc=400, XQC) Guess=Mix NoSymmetry\\fine-species-0232-radical-0-restr
 icted\\0,1\O,-2.21654,0.9927,-0.69488\C,-3.0357,1.28537,-1.81589\Ti,-0
 .88482,0.14809,0.13101\C,-2.91485,2.77415,-2.14954\C,-4.47453,0.86402,
 -1.50884\H,-2.6599,0.69606,-2.66597\O,-0.03241,-0.93039,-1.05748\O,0.3
 1434,1.33394,0.80146\O,-1.58203,-0.86862,1.46882\H,-3.26838,3.38094,-1
 .30877\H,-3.51652,3.01782,-3.032\H,-1.87365,3.03836,-2.35805\H,-4.5183
 9,-0.20031,-1.25978\H,-5.11888,1.04546,-2.37619\H,-4.86333,1.43427,-0.
 65844\H,-0.04881,-1.87995,-1.18956\H,0.3122,2.28744,0.90063\H,-1.28732
 ,-1.01106,2.37039\\Version=ES64L-G09RevD.01\HF=-1270.84028\RMSD=4.188e
 -09\RMSF=2.650e-06\Dipole=-0.42606,0.2149437,-0.0838045\PG=C01 [X(C3H1
 0O4Ti1)]\\@


 LEARN FROM YESTERDAY,
 LIVE FOR TODAY,
 LOOK TO TOMORROW,
 REST THIS AFTERNOON.

           -- SNOOPY
 Leave Link 9999 at Sun Jul 14 14:13:41 2013, MaxMem=   524288000 cpu:         0.3
 Job cpu time:       0 days  0 hours 15 minutes 13.4 seconds.
 File lengths (MBytes):  RWF=     41 Int=      0 D2E=      0 Chk=      5 Scr=      1
 Normal termination of Gaussian 09 at Sun Jul 14 14:13:41 2013.
 (Enter /opt/g09/l1.exe)
 Link1:  Proceeding to internal job step number  2.
 ----------------------------------------------------------------------
 #P Geom=AllCheck Guess=TCheck SCRF=Check GenChk RB971/6-311+G(d,p) Fre
 q
 ----------------------------------------------------------------------
 1/6=400,7=10,10=4,18=20,29=7,30=1,38=1,40=1/1,3;
 2/12=2,15=1,40=1/2;
 3/5=4,6=6,7=111,11=2,14=-4,16=1,24=10,25=1,30=1,70=2,71=2,74=-20,75=-5,116=1,140=1/1,2,3;
 4/5=101/1;
 5/5=2,7=400,8=3,13=1,98=1/2,8;
 8/6=4,10=90,11=11/1;
 11/6=1,8=1,9=11,15=111,16=1,31=1/1,2,10;
 10/6=1,31=1/2;
 7/8=3001,10=1,25=1,30=1/1,2,3,16;
 1/6=400,7=10,10=4,18=20,30=1/3;
 99/8=30/99;
 Leave Link    1 at Sun Jul 14 14:13:41 2013, MaxMem=   524288000 cpu:         0.4
 (Enter /opt/g09/l101.exe)
 Structure from the checkpoint file:  "/scratch/pb556/g09_runs_freq//Gau-21285.chk"
 --------------------------------------
 fine-species-0232-radical-0-restricted
 --------------------------------------
 Charge =  0 Multiplicity = 1
 Redundant internal coordinates found in file.
 O,0,-2.21654,0.9927,-0.69488
 C,0,-3.0357,1.28537,-1.81589
 Ti,0,-0.88482,0.14809,0.13101
 C,0,-2.91485,2.77415,-2.14954
 C,0,-4.47453,0.86402,-1.50884
 H,0,-2.6599,0.69606,-2.66597
 O,0,-0.03241,-0.93039,-1.05748
 O,0,0.31434,1.33394,0.80146
 O,0,-1.58203,-0.86862,1.46882
 H,0,-3.26838,3.38094,-1.30877
 H,0,-3.51652,3.01782,-3.032
 H,0,-1.87365,3.03836,-2.35805
 H,0,-4.51839,-0.20031,-1.25978
 H,0,-5.11888,1.04546,-2.37619
 H,0,-4.86333,1.43427,-0.65844
 H,0,-0.04881,-1.87995,-1.18956
 H,0,0.3122,2.28744,0.90063
 H,0,-1.28732,-1.01106,2.37039
 Recover connectivity data from disk.
 NAtoms=     18 NQM=       18 NQMF=       0 NMMI=      0 NMMIF=      0
                NMic=       0 NMicF=      0.
                    Isotopes and Nuclear Properties:
 (Nuclear quadrupole moments (NQMom) in fm**2, nuclear magnetic moments (NMagM)
  in nuclear magnetons)

  Atom         1           2           3           4           5           6           7           8           9          10
 IAtWgt=          16          12          48          12          12           1          16          16          16           1
 AtmWgt=  15.9949146  12.0000000  47.9479467  12.0000000  12.0000000   1.0078250  15.9949146  15.9949146  15.9949146   1.0078250
 NucSpn=           0           0           0           0           0           1           0           0           0           1
 AtZEff=  -5.6000000  -3.6000000 -23.9800000  -3.6000000  -3.6000000  -1.0000000  -5.6000000  -5.6000000  -5.6000000  -1.0000000
 NQMom=    0.0000000   0.0000000   0.0000000   0.0000000   0.0000000   0.0000000   0.0000000   0.0000000   0.0000000   0.0000000
 NMagM=    0.0000000   0.0000000   0.0000000   0.0000000   0.0000000   2.7928460   0.0000000   0.0000000   0.0000000   2.7928460
 AtZNuc=   8.0000000   6.0000000  22.0000000   6.0000000   6.0000000   1.0000000   8.0000000   8.0000000   8.0000000   1.0000000

  Atom        11          12          13          14          15          16          17          18
 IAtWgt=           1           1           1           1           1           1           1           1
 AtmWgt=   1.0078250   1.0078250   1.0078250   1.0078250   1.0078250   1.0078250   1.0078250   1.0078250
 NucSpn=           1           1           1           1           1           1           1           1
 AtZEff=  -1.0000000  -1.0000000  -1.0000000  -1.0000000  -1.0000000  -1.0000000  -1.0000000  -1.0000000
 NQMom=    0.0000000   0.0000000   0.0000000   0.0000000   0.0000000   0.0000000   0.0000000   0.0000000
 NMagM=    2.7928460   2.7928460   2.7928460   2.7928460   2.7928460   2.7928460   2.7928460   2.7928460
 AtZNuc=   1.0000000   1.0000000   1.0000000   1.0000000   1.0000000   1.0000000   1.0000000   1.0000000
 Leave Link  101 at Sun Jul 14 14:13:42 2013, MaxMem=   524288000 cpu:         1.8
 (Enter /opt/g09/l103.exe)

 GradGradGradGradGradGradGradGradGradGradGradGradGradGradGradGradGradGrad
 Berny optimization.
 Initialization pass.
                           ----------------------------
                           !    Initial Parameters    !
                           ! (Angstroms and Degrees)  !
 --------------------------                            --------------------------
 ! Name  Definition              Value          Derivative Info.                !
 --------------------------------------------------------------------------------
 ! R1    R(1,2)                  1.4189         calculate D2E/DX2 analytically  !
 ! R2    R(1,3)                  1.7802         calculate D2E/DX2 analytically  !
 ! R3    R(2,4)                  1.5305         calculate D2E/DX2 analytically  !
 ! R4    R(2,5)                  1.5304         calculate D2E/DX2 analytically  !
 ! R5    R(2,6)                  1.1005         calculate D2E/DX2 analytically  !
[...]
 6511,0.3754707,-0.5287072,-0.9903049,-1.0995023,-0.5092062,-0.3508601,
 -0.6175807,-1.0267727,-0.3813572,-0.3266639,-0.2617248,-0.8095477,-0.6
 002773,-0.2184872,0.3987326,-0.097614,-0.9897701,0.5575739,0.1927634,0
 .5685505,-1.3401949,0.0479392,0.0380073,0.0579275,0.015025,-0.0091956,
 -0.0360437,0.069282,-0.1131753,-0.0501277,0.00366,0.0425924,-0.1124463
 ,0.0432845,0.0194836,0.0415181,-0.110487,0.0631365,-0.0758887,-0.11953
 68,-0.0802829,0.0529085,-0.0377994,0.0190134,0.0075686,0.0358927,0.003
 939,0.0716562,0.0461542,0.0012962,0.0160969,-0.0398677,-0.1271984,0.04
 47904,0.0312393,0.0468689,0.0630898,-0.0562848,0.0325805,-0.0983453,0.
 0244014,0.0751298,0.0377813,-0.1164206,0.0310407,-0.074688,0.0293208,-
 0.0038549,0.0269609,0.0457031,0.0013282,-0.0934581,0.0877701,-0.078487
 8,-0.0372828,0.3241439,-0.0474746,0.0026348,-0.0916918,0.325484,0.0632
 643,-0.0015109,0.0182229,0.3428966,0.3304321,0.0387618,0.0147878,0.109
 5239,0.3095733,0.0544428,0.0229889,0.008754,0.3455009,0.2797035,-0.020
 7681,-0.0284697,-0.002158,0.3456154,-0.0173952,-0.054497,-0.0699613,0.
 3651285\Polar=94.2239357,-5.2291727,91.1271098,10.6822732,-6.6678215,9
 1.1241347\PG=C01 [X(C3H10O4Ti1)]\NImag=0\\0.28089512,-0.10624274,0.127
 59487,0.20285877,-0.09584503,0.27913308,-0.09250641,0.00918123,-0.0544
 4378,0.46260544,0.00900073,-0.06316243,0.01407203,-0.01390729,0.498954
 63,-0.05418629,0.01453102,-0.14518124,-0.05509359,0.05776886,0.5053826
 4,-0.14243292,0.06814784,-0.08142288,-0.02349168,0.01166348,-0.0171108
 0,0.39184358,0.06614589,-0.07307205,0.04893028,0.01481983,-0.00714876,
 0.01055663,-0.00728974,0.40734063,-0.07578188,0.04443223,-0.07621888,-
 0.01479316,0.00808966,-0.01542310,0.02582129,-0.00385947,0.39626606,-0
 .00704789,0.02553072,-0.01692183,-0.07558334,-0.01489110,0.00850946,0.
 00338563,-0.00021898,0.00057468,0.57225388,0.00672905,-0.00952467,0.01
 282049,-0.01210549,-0.18366222,0.01373193,0.00004461,0.00028986,-0.000
 00067,-0.00498980,0.46482021,-0.01290092,0.03780309,-0.02243485,0.0074
 3082,0.00766444,-0.07355113,0.00281740,-0.00101649,0.00133267,0.002265
 89,0.02191096,0.56188403,-0.03440568,-0.00114420,-0.01391555,-0.165258
 80,-0.02820990,0.03273225,0.00085314,-0.00109970,0.00083389,-0.0034470
 2,-0.00674004,0.00441752,0.47115736,0.00907313,0.00243381,0.00231942,-
 0.02905843,-0.08684954,0.00474029,-0.00003859,0.00192601,-0.00080647,-
 0.03391352,-0.01260839,0.00855470,-0.02633697,0.56498490,-0.04302927,-
 0.00212281,-0.00727701,0.03912144,0.00658780,-0.08122857,0.00121698,-0
 .00255882,0.00216881,0.00813317,0.00183894,-0.00025001,0.02057113,0.00
 226688,0.56470574,-0.00003306,-0.00706846,-0.02711404,-0.08055248,0.04
 866516,0.07153505,0.00337793,-0.00267601,-0.00109256,0.00184268,-0.002
 92052,-0.00143105,-0.01291740,0.01632380,0.02451819,0.09085939,-0.0016
 7219,0.00672664,0.00846342,0.04786193,-0.12308381,-0.10157111,-0.00008
 371,0.00125626,0.00073858,0.01158641,-0.02037028,-0.02383182,-0.004945
 58,0.00523117,0.00741621,-0.05037392,0.13302489,-0.01167723,-0.0042571
 8,-0.03856732,0.06991465,-0.10022553,-0.18008204,0.00584743,-0.0053472
 0,0.00014710,-0.00147923,0.00394801,0.00688414,0.00450214,-0.00399651,
 -0.00373021,-0.06697635,0.10622458,0.21139980,-0.00679088,0.01011662,0
 .00081585,0.00340764,-0.00242949,0.00368542,-0.06856669,0.04504435,0.0
 4810547,-0.00043606,-0.00006553,-0.00023861,-0.00013432,0.00001287,-0.
 00042175,-0.00000905,-0.00061150,-0.00059347,0.05970093,0.01591393,-0.
 00705458,0.00622066,-0.00539762,0.00114528,-0.00528707,0.05577945,-0.1
 0355127,-0.08103170,0.00064332,0.00021738,0.00093893,0.00017548,-0.000
 54827,0.00091213,0.00033991,-0.00006804,0.00168179,-0.05115081,0.64030
 466,0.01290575,-0.00554427,0.01533971,-0.00292753,0.00079166,-0.005030
 86,0.04963950,-0.06695535,-0.10120308,0.00079946,0.00033685,0.00107495
 ,0.00026700,-0.00028863,0.00130455,0.00135699,-0.00039724,0.00202336,-
 0.06009743,0.15833951,0.11111097,-0.01211363,0.00084246,-0.01074741,0.
 00359849,-0.00094262,0.00478756,-0.10271406,-0.07301105,-0.03698517,-0
 .00107102,-0.00021418,-0.00070858,-0.00025393,0.00032049,-0.00084465,-
 0.00048952,-0.00003941,-0.00085276,0.01320911,-0.00630442,-0.00899619,
 0.10384567,-0.00942123,0.01847103,-0.00844509,0.00268425,-0.00083956,0
 .00491240,-0.08699916,-0.12255438,-0.04688470,-0.00137650,-0.00063045,
 -0.00100341,-0.00015117,0.00041403,-0.00110672,-0.00032755,0.00001351,
 -0.00052944,0.00578774,-0.00920521,-0.00862532,0.09077265,0.66323722,-
 0.01028597,0.00017748,-0.00250843,0.00231660,0.00003172,0.00302331,-0.
 04092493,-0.04226435,-0.05457990,-0.00021089,-0.00015290,-0.00072865,-
 0.00009425,0.00010759,-0.00060290,-0.00015128,0.00001316,-0.00022670,0
 .00172223,-0.00514566,-0.00192760,0.04894523,0.10768987,0.05090076,0.0
 1311478,-0.00444274,0.00266191,-0.00022936,0.00103602,-0.00349490,-0.0
 5377018,-0.02718844,0.03923727,0.00025919,0.00021346,0.00026415,0.0001
 8191,-0.00075653,0.00138480,0.00006264,-0.00006417,0.00027791,0.000441
 51,-0.00046101,0.00795744,-0.00180064,-0.00690929,0.00277259,0.0925902
 6,0.00907599,-0.00443634,0.00769703,-0.00359823,0.00077409,-0.00347518
 ,-0.03637530,-0.08303867,0.07130281,0.00061561,0.00009586,0.00067976,0
 .00016351,-0.00065156,0.00069168,0.00042461,-0.00017775,0.00089500,-0.
 00265447,0.01659202,0.00201782,-0.00932210,-0.00723966,0.00062948,0.01
 593637,0.09254146,-0.01328033,0.01000232,-0.01139844,0.00384080,-0.001
 35769,0.00636952,0.05551901,0.07785593,-0.13544972,-0.00085999,-0.0003
 2758,-0.00116921,-0.00024801,0.00052443,-0.00163017,-0.00032983,0.0000
 8651,-0.00070229,0.00863242,-0.00680203,-0.01110607,0.00730278,0.00967
 771,0.01516599,0.10217911,-0.16315686,0.62455068,-0.00010348,-0.000106
 72,-0.00014496,-0.00006517,-0.00107688,-0.00241344,-0.00009903,0.00057
 251,0.00040758,-0.07461263,0.04560521,0.06620763,0.00047746,-0.0005217
 4,-0.00119320,0.00076045,-0.00068786,-0.00000536,0.00008192,-0.0001057
 2,-0.00020572,0.00003207,-0.00029714,-0.00011665,-0.00003077,-0.000098
 03,0.00001296,0.07638040,-0.00107931,0.00368332,0.00033342,0.01088802,
 -0.02153647,-0.02822332,0.00021866,-0.00039408,-0.00029734,0.04557465,
 -0.12166963,-0.10844828,0.00140188,0.00154787,-0.00081070,-0.00080856,
 -0.00593915,0.00233396,0.00000998,0.00013264,0.00024077,0.00001139,0.0
 0012651,0.00006383,-0.00005445,0.00004473,0.00007210,-0.04971002,0.135
 57207,0.00116341,-0.00081478,0.00224946,-0.00277654,0.00474318,0.00377
 104,-0.00056793,0.00032556,-0.00042492,0.06585512,-0.11024047,-0.20216
 777,-0.00053446,0.00012702,0.00058620,-0.00018295,0.00178566,0.0009184
 8,0.00005439,-0.00014432,-0.00008676,0.00015118,0.00021646,0.00012806,
 -0.00007683,-0.00012352,0.00020449,-0.07277464,0.12053442,0.21725228,0
 .00128990,0.00024432,0.00007095,-0.00081397,-0.00105106,0.00257292,0.0
 0045431,-0.00072319,0.00043003,-0.12493084,0.03100990,-0.11623650,-0.0
 0028629,-0.00017657,0.00004695,0.00007660,0.00042285,0.00009098,-0.000
 10952,0.00017571,0.00013229,-0.00002814,0.00012812,-0.00012329,0.00005
 460,0.00012811,-0.00018418,0.00593380,-0.00337061,0.00935788,0.1333842
 5,0.00304399,-0.00842942,0.00547075,0.01708020,-0.00124819,0.02372899,
 -0.00195771,0.00047084,-0.00091393,0.02966797,-0.05955982,0.04434151,0
 .00024000,0.00111096,-0.00006186,0.00032425,0.00082961,-0.00099228,0.0
 0023046,-0.00044477,-0.00048979,0.00054729,0.00080500,0.00033219,-0.00
 016330,-0.00033771,0.00060999,-0.01108203,0.00393868,-0.01377964,-0.03
 360809,0.06229118,-0.00109406,0.00313737,0.00011886,-0.00330829,-0.002
 03084,-0.00640830,0.00118880,-0.00074353,0.00067066,-0.11545204,0.0458
 8788,-0.21525088,-0.00036116,-0.00048171,-0.00011705,0.00008742,0.0004
 3161,0.00038083,-0.00021851,0.00028671,0.00023935,-0.00031804,-0.00019
 585,-0.00016409,0.00011070,0.00023637,-0.00031303,-0.01377509,0.006289
 41,-0.01836261,0.12834270,-0.05085612,0.23265051,0.00225035,0.00033666
 ,0.00068784,-0.00329863,0.00125523,-0.00100232,-0.00055713,-0.00028529
 ,0.00001957,-0.28663016,-0.05821137,0.04840224,0.00115698,-0.00125328,
 -0.00020609,0.00058423,-0.00061111,-0.00022316,0.00008867,-0.00002170,
 -0.00010846,0.00016370,0.00032645,0.00001010,0.00004264,0.00000383,0.0
 0003141,-0.00874186,-0.00217248,0.00074492,-0.01527061,-0.00371826,0.0
 0403986,0.30995195,0.00042995,0.00286487,-0.00223164,-0.03348514,-0.00
 811798,0.00651520,0.00008158,-0.00055770,0.00083698,-0.05566384,-0.059
 53901,0.01089421,0.00137520,-0.00647167,0.00151908,0.00022608,0.001325
 54,-0.00046350,0.00002166,0.00016329,-0.00009583,-0.00002340,-0.000022
 71,-0.00017249,0.00011353,0.00015244,-0.00020633,0.01735074,0.00397702
 ,-0.00222132,0.00720322,0.00085036,-0.00219988,0.06409136,0.06578189,0
 .00015672,-0.00099305,0.00057381,0.00637953,0.00166292,-0.00319587,0.0
 0013492,0.00103084,-0.00015950,0.04788086,0.01045366,-0.05590716,-0.00
 037576,0.00157070,0.00007857,-0.00064151,-0.00013160,0.00014276,0.0000
 8175,-0.00022569,-0.00023003,-0.00005025,-0.00039995,0.00014458,-0.000
 12437,-0.00017028,0.00019068,0.02379984,0.00675509,-0.00427275,-0.0250
 5224,-0.00697765,0.00575681,-0.05245372,-0.01282443,0.05620578,0.00336
 113,0.00108461,0.00105238,-0.00180182,-0.03303064,0.00690011,-0.000980
 70,-0.00024082,-0.00058653,-0.00631133,-0.00031612,0.00073349,-0.04600
 784,-0.00513475,0.00121137,0.00135273,0.00058691,-0.00025170,0.0002332
 9,0.00003232,-0.00000055,0.00022212,0.00025848,0.00009196,0.00000820,-
 0.00002974,0.00021982,-0.00006345,0.00005451,-0.00017190,0.00010786,0.
 00017817,0.00021633,-0.00017799,-0.00202260,0.00046406,0.05011401,0.00
 044514,0.00194209,-0.00109365,0.00151299,-0.00910663,0.00213210,-0.000
 62822,-0.00065171,0.00017164,-0.00257663,0.00094806,0.00057852,-0.0075
 0234,-0.29743897,0.05726693,-0.00043888,0.00079731,0.00015316,0.000095
 43,0.00010322,0.00001223,0.00007245,0.00014536,-0.00001012,0.00031320,
 0.00016006,-0.00015411,0.00017800,0.00043003,0.00003855,0.00019272,0.0
 0014503,-0.00006047,-0.00006944,-0.00055802,0.00022667,0.00907184,0.32
 179613,-0.00013657,-0.00097491,0.00023401,-0.00108430,0.00713902,-0.00
 348380,-0.00054444,0.00004492,0.00040406,0.00154925,-0.00009500,0.0001
 2829,0.00256839,0.05751150,-0.05961412,-0.00029653,0.00018347,-0.00011
 720,0.00003169,-0.00020947,-0.00027868,0.00008960,0.00007145,0.0000359
 8,0.00026535,0.00003701,-0.00004787,0.00006048,0.00036004,0.00013888,0
 .00004475,-0.00039166,0.00024888,0.00012587,0.00059722,0.00043457,-0.0
 0349710,-0.06403610,0.06089497,-0.01029127,-0.00039752,-0.00210299,-0.
 01152262,0.00656525,-0.02533750,0.00138519,-0.00161477,0.00149715,0.00
 099699,0.00051703,-0.00053813,-0.13514394,0.02436240,-0.11875585,0.000
 74357,0.00069632,0.00065226,-0.00029460,0.00051981,0.00053429,-0.00046
 937,-0.00052347,-0.00032016,0.00060215,0.00047005,-0.00085649,-0.00003
 226,-0.00005821,0.00008947,0.00005051,-0.00074023,0.00052884,0.0002221
 5,0.00024321,0.00033445,0.00043023,-0.00003124,0.00201834,0.14626918,-
 0.00253184,0.00130982,-0.00051157,-0.00334244,-0.00065644,-0.00743438,
 -0.00033393,-0.00026458,0.00018661,0.00016265,-0.00011315,-0.00010657,
 0.02531564,-0.05335789,0.03534375,0.00032986,0.00019354,0.00000933,0.0
 0004106,0.00005908,0.00001489,-0.00000179,-0.00007014,0.00000798,0.000
 26586,0.00012424,-0.00013662,-0.00009834,-0.00000608,-0.00008139,-0.00
 051631,-0.00033401,0.00025999,0.00022587,0.00010883,0.00000523,0.01890
 849,-0.00348536,0.02472746,-0.02712451,0.05388402,0.00114591,0.0003440
 4,0.00198819,0.00450075,-0.00105742,0.00363594,0.00088115,-0.00026328,
 0.00022892,-0.00008724,0.00025079,-0.00022118,-0.12058942,0.03466285,-
 0.21095759,-0.00071594,-0.00031265,0.00037388,-0.00013709,0.00014173,0
 .00005736,-0.00013484,-0.00007357,-0.00004444,-0.00017641,0.00008580,0
 .00000279,-0.00007594,0.00008500,-0.00001498,0.00027557,0.00002175,0.0
 0050859,0.00003797,-0.00024410,0.00018817,-0.00300694,0.00020632,-0.00
 544596,0.13265066,-0.03922293,0.22776344,0.00372777,-0.00064567,-0.000
 73183,-0.01385189,0.01747788,0.02760343,-0.00053770,0.00038543,0.00032
 690,0.00125137,0.00165782,-0.00041587,-0.07598503,0.04696461,0.0684906
 4,-0.00569133,-0.00222820,0.00085075,0.00004961,-0.00014481,-0.0003027
 1,0.00008601,-0.00000685,-0.00004204,0.00007310,-0.00005406,-0.0000707
 2,0.00025561,-0.00095864,-0.00034228,0.00002462,-0.00010599,-0.0000801
 7,0.00019942,0.00005506,-0.00040428,-0.00042303,-0.00058652,-0.0012294
 3,0.00710211,-0.01124290,-0.01464468,0.08375873,0.00107040,-0.00017864
 ,0.00077187,-0.00346519,0.00421803,0.00762207,0.00017157,-0.00003925,-
 0.00062539,-0.00008213,0.00124603,0.00109979,0.04745409,-0.11966127,-0
 .10735083,-0.00205017,0.00037658,0.00062352,0.00004105,0.00011328,0.00
 013030,-0.00000939,0.00002373,0.00006360,-0.00028692,-0.00000838,0.000
 27495,-0.00006775,0.00014349,-0.00033639,-0.00001210,-0.00004680,0.000
 09211,0.00017146,0.00002930,-0.00011311,0.01059759,-0.01518904,-0.0249
 9044,-0.00293142,0.00258184,0.00540889,-0.05060373,0.12641098,0.000179
 35,0.00016601,0.00214477,0.00190768,-0.00398034,-0.00802791,-0.0004637
 9,0.00025854,-0.00032384,-0.00049603,-0.00031911,0.00013569,0.07023278
 ,-0.10674498,-0.20357191,0.00123009,0.00092509,0.00106446,0.00008691,-
 0.00009584,-0.00005038,0.00014010,0.00017967,0.00009916,-0.00006373,-0
 .00011395,0.00017052,0.00025532,0.00074218,0.00014130,0.00010879,-0.00
 003191,-0.00004537,-0.00018693,0.00020586,0.00028896,-0.00337200,0.004
 49709,0.00642183,0.00950454,-0.01309008,-0.01807228,-0.07905218,0.1174
 1509,0.21968718,-0.00105327,-0.00054404,-0.00085765,0.00001376,0.00031
 574,0.00041271,-0.00075125,0.01102957,0.00811631,-0.00003896,-0.000049
 28,-0.00010362,-0.00002233,0.00015903,-0.00011074,0.00001020,0.0000953
 6,-0.00019576,-0.00062655,-0.01228295,-0.00257153,-0.00009535,-0.00115
 348,-0.00189502,-0.00103476,-0.00200281,-0.00092842,0.00000478,-0.0000
 4104,0.00000182,0.00001216,0.00002455,-0.00000011,-0.00001896,-0.00001
 843,0.00000989,-0.00008866,-0.00006145,0.00004874,-0.00002674,-0.00003
 588,0.00002641,0.00002023,-0.00005457,-0.00001572,0.00361912,-0.002160
 44,0.00171513,-0.00145720,0.00087953,-0.00036074,0.00087911,-0.0001343
 6,-0.00808466,-0.00125278,-0.00015037,-0.00002777,-0.00012289,-0.00004
 651,0.00006966,-0.00014365,-0.00003761,-0.00006981,-0.00018566,-0.0036
 1607,-0.53928966,-0.08081004,0.00172417,0.00163990,0.00021794,-0.00074
 953,-0.00085892,0.00207024,0.00002046,0.00000080,0.00002723,-0.0000254
 4,0.00008468,-0.00006008,0.00001166,-0.00001483,0.00002456,0.00004333,
 -0.00000028,0.00002821,-0.00009211,0.00000194,-0.00003065,0.00001437,-
 0.00000545,0.00002979,0.00453612,0.54509384,-0.00045682,-0.00003535,0.
 00027949,0.00005995,0.00014855,0.00081065,0.00501212,-0.01289280,-0.00
 667208,0.00002567,0.00000033,-0.00011027,-0.00006424,-0.00003423,-0.00
 011765,0.00011309,-0.00002135,-0.00007694,-0.00106680,-0.06987399,-0.0
 1206463,0.00008451,-0.00013896,0.00002291,-0.00199131,0.00233965,0.001
 17970,0.00000750,-0.00004065,-0.00000852,-0.00003162,0.00003268,-0.000
 00986,0.00000241,-0.00001708,0.00003810,-0.00000116,0.00001164,0.00006
 094,-0.00004495,0.00002245,-0.00001320,0.00003696,-0.00003388,-0.00001
 904,-0.00188499,0.08085041,0.01704418,0.00077721,0.00318947,0.00155699
 ,-0.00053134,-0.00022028,-0.00038989,-0.00631416,-0.01575180,-0.007013
 10,0.00009842,-0.00016338,0.00001871,0.00004222,-0.00000363,-0.0000585
 1,0.00002697,0.00004971,0.00012558,0.00075136,0.00069944,0.00134967,-0
 .00057720,0.00680399,0.00053181,-0.00009789,0.00009372,0.00113232,-0.0
 0018031,0.00008335,0.00000672,0.00006105,0.00005057,0.00009331,0.00004
 258,0.00002257,-0.00014905,0.00000078,0.00002211,-0.00000825,0.0000125
 9,-0.00001269,0.00003722,-0.00004560,0.00000998,0.00000426,0.00008570,
 -0.00002455,-0.00009200,0.00591865,0.00241571,-0.00070808,0.00200532,-
 0.00070271,0.00070901,-0.00107443,-0.00040648,-0.00875284,-0.00175766,
 0.00009027,0.00005236,0.00004773,0.00008411,-0.00011058,0.00024059,0.0
 0009799,-0.00005305,0.00016579,-0.00151979,0.00148232,0.00116871,-0.00
 600156,-0.54478024,-0.05918965,0.00028367,0.00142258,-0.00158714,0.000
 09553,-0.00003143,-0.00005319,-0.00001018,-0.00011460,0.00002958,-0.00
 007630,0.00003060,0.00008485,-0.00006645,-0.00003929,-0.00001449,0.000
 12249,0.00000945,0.00002743,-0.00000678,0.00000535,-0.00004260,0.00010
 880,-0.00025099,0.00000401,0.00533573,0.55131167,0.00221586,0.00153384
 ,-0.00061726,-0.00046254,-0.00032324,-0.00029966,-0.00429494,-0.007537
 21,0.00104661,-0.00019900,-0.00007778,0.00020765,-0.00000957,0.0000702
 4,0.00000262,0.00003774,0.00001299,0.00003000,-0.00024350,-0.00058074,
 -0.00084274,-0.00098469,-0.05322427,-0.00888011,0.00065947,-0.00012817
 ,-0.00055199,-0.00004074,0.00001433,-0.00001413,0.00012281,0.00003320,
 0.00004481,0.00008345,0.00007265,-0.00024239,0.00002423,0.00003633,-0.
 00001179,0.00001665,-0.00001990,0.00000906,0.00001409,-0.00002441,-0.0
 0000990,0.00005532,0.00007235,-0.00000089,0.00287859,0.05979356,0.0097
 5491,0.00136222,0.00191817,-0.00130177,-0.00011783,-0.00022023,0.00028
 981,-0.00108426,-0.00789779,0.01088225,0.00002110,-0.00000135,0.000015
 43,-0.00000648,-0.00002234,-0.00007460,-0.00000458,0.00001816,-0.00000
 669,-0.00099637,0.00158967,0.00026772,-0.00154431,0.00040416,-0.002226
 05,-0.05046736,0.02722295,-0.16211266,0.00000246,0.00001088,0.00000260
 ,-0.00001030,-0.00001185,-0.00000047,-0.00000731,-0.00000073,0.0000091
 4,0.00002446,-0.00000914,-0.00000584,-0.00003388,-0.00000879,0.0000128
 8,-0.00001398,0.00004722,0.00000055,-0.00000912,-0.00019265,0.00029167
 ,-0.00007104,0.00015595,0.00012676,0.05295659,-0.00023616,-0.00017536,
 0.00047949,0.00015456,-0.00002827,-0.00005313,-0.00185998,-0.00317365,
 0.01167160,-0.00000873,0.00003563,0.00001581,-0.00003350,-0.00002027,0
 .00007138,-0.00002998,-0.00001316,-0.00003785,0.00064642,-0.00015137,0
 .00015374,0.00157902,0.00046606,-0.00239968,0.02291427,-0.01515849,0.0
 7255419,0.00002979,-0.00002033,-0.00000303,-0.00001141,-0.00001100,-0.
 00002254,-0.00000328,-0.00000221,0.00002123,0.00002486,0.00000202,0.00
 001178,0.00001693,0.00001488,-0.00003002,0.00002900,-0.00001975,-0.000
 00052,-0.00002522,0.00035715,-0.00032143,-0.00018430,-0.00018225,0.000
 27624,-0.02300228,0.01808040,0.00220357,-0.00154003,0.00214203,-0.0005
 8252,0.00027524,-0.00108063,-0.00274889,0.00443581,-0.01180988,0.00011
 269,0.00003367,0.00014368,0.00006733,-0.00010308,0.00025069,0.00005347
 ,-0.00001553,0.00013788,-0.00019898,0.00087505,0.00167056,-0.00087837,
 -0.00212029,0.00014210,-0.15184314,0.08055553,-0.48546556,-0.00000560,
 -0.00000427,-0.00003775,0.00003120,-0.00007623,0.00005189,-0.00000496,
 0.00003543,-0.00003509,-0.00002587,0.00002326,-0.00000298,0.00012943,0
 .00002575,0.00001331,-0.00000658,-0.00002775,-0.00003325,-0.00010763,-
 0.00013686,-0.00034290,-0.00002439,0.00015157,0.00037520,0.15382925,-0
 .08238726,0.49388069\\0.00000258,-0.00000206,0.00000200,0.,-0.00000056
 ,-0.00000014,-0.00000153,0.00000311,0.00000176,-0.00000445,-0.00000203
 ,-0.00000823,0.00000214,-0.00000516,0.00000146,-0.00000058,0.00000105,
 0.00000086,0.00000053,-0.00000796,-0.00000209,-0.00000035,-0.00000070,
 -0.00000109,0.00000115,-0.00000046,0.00000332,-0.00000139,0.00000171,0
 .00000319,0.00000254,-0.00000098,0.00000307,0.00000067,-0.00000013,-0.
 00000034,0.00000008,0.00000511,-0.00000172,-0.00000082,-0.00000112,-0.
 00000069,-0.00000031,-0.00000011,0.00000037,0.00000085,0.00000759,0.00
 000136,-0.00000042,0.00000151,0.00000023,-0.00000070,0.00000117,-0.000
 00332\\\@


 TO ERR IS HUMAN - AND TO BLAME IT ON A COMPUTER IS EVEN MORE SO.
 Job cpu time:       0 days  1 hours 24 minutes 50.4 seconds.
 File lengths (MBytes):  RWF=    138 Int=      0 D2E=      0 Chk=      6 Scr=      1
 Normal termination of Gaussian 09 at Sun Jul 14 14:24:19 2013.
