 Entering Gaussian System, Link 0=g09
 Initial command:
 /usr/local/Cluster-Apps/gaussian/g09/l1.exe "/rds/user/am2145/hpc-work/scratch/40966987/Gau-134410.inp" -scrdir="/rds/user/am2145/hpc-work/scratch/40966987/"
 Entering Link 1 = /usr/local/Cluster-Apps/gaussian/g09/l1.exe PID=    134411.
  
 Copyright (c) 1988,1990,1992,1993,1995,1998,2003,2009,2013,
            Gaussian, Inc.  All Rights Reserved.
  
 This is part of the Gaussian(R) 09 program.  It is based on
 the Gaussian(R) 03 system (copyright 2003, Gaussian, Inc.),
 the Gaussian(R) 98 system (copyright 1998, Gaussian, Inc.),
 the Gaussian(R) 94 system (copyright 1995, Gaussian, Inc.),
 the Gaussian 92(TM) system (copyright 1992, Gaussian, Inc.),
 the Gaussian 90(TM) system (copyright 1990, Gaussian, Inc.),
 the Gaussian 88(TM) system (copyright 1988, Gaussian, Inc.),
 the Gaussian 86(TM) system (copyright 1986, Carnegie Mellon
 University), and the Gaussian 82(TM) system (copyright 1983,
 Carnegie Mellon University). Gaussian is a federally registered
 trademark of Gaussian, Inc.
  
 This software contains proprietary and confidential information,
 including trade secrets, belonging to Gaussian, Inc.
  
 This software is provided under written license and may be
 used, copied, transmitted, or stored only in accord with that
 written license.
  
 The following legend is applicable only to US Government
 contracts under FAR:
  
                    RESTRICTED RIGHTS LEGEND
  
 Use, reproduction and disclosure by the US Government is
 subject to restrictions as set forth in subparagraphs (a)
 and (c) of the Commercial Computer Software - Restricted
 Rights clause in FAR 52.227-19.
  
 Gaussian, Inc.
 340 Quinnipiac St., Bldg. 40, Wallingford CT 06492
  
  
 ---------------------------------------------------------------
 Warning -- This program may not be used in any manner that
 competes with the business of Gaussian, Inc. or will provide
 assistance to any competitor of Gaussian, Inc.  The licensee
 of this program is prohibited from giving any competitor of
 Gaussian, Inc. access to this program.  By using this program,
 the user acknowledges that Gaussian, Inc. is engaged in the
 business of creating and licensing software in the field of
 computational chemistry and represents and warrants to the
 licensee that it is not a competitor of Gaussian, Inc. and that
 it will not use this program in any manner prohibited above.
 ---------------------------------------------------------------
  

 Cite this work as:
 Gaussian 09, Revision D.01,
 M. J. Frisch, G. W. Trucks, H. B. Schlegel, G. E. Scuseria, 
 M. A. Robb, J. R. Cheeseman, G. Scalmani, V. Barone, B. Mennucci, 
 G. A. Petersson, H. Nakatsuji, M. Caricato, X. Li, H. P. Hratchian, 
 A. F. Izmaylov, J. Bloino, G. Zheng, J. L. Sonnenberg, M. Hada, 
 M. Ehara, K. Toyota, R. Fukuda, J. Hasegawa, M. Ishida, T. Nakajima, 
 Y. Honda, O. Kitao, H. Nakai, T. Vreven, J. A. Montgomery, Jr., 
 J. E. Peralta, F. Ogliaro, M. Bearpark, J. J. Heyd, E. Brothers, 
 K. N. Kudin, V. N. Staroverov, T. Keith, R. Kobayashi, J. Normand, 
 K. Raghavachari, A. Rendell, J. C. Burant, S. S. Iyengar, J. Tomasi, 
 M. Cossi, N. Rega, J. M. Millam, M. Klene, J. E. Knox, J. B. Cross, 
 V. Bakken, C. Adamo, J. Jaramillo, R. Gomperts, R. E. Stratmann, 
 O. Yazyev, A. J. Austin, R. Cammi, C. Pomelli, J. W. Ochterski, 
 R. L. Martin, K. Morokuma, V. G. Zakrzewski, G. A. Voth, 
 P. Salvador, J. J. Dannenberg, S. Dapprich, A. D. Daniels, 
 O. Farkas, J. B. Foresman, J. V. Ortiz, J. Cioslowski, 
 and D. J. Fox, Gaussian, Inc., Wallingford CT, 2013.
 
 ******************************************
 Gaussian 09:  ES64L-G09RevD.01 24-Apr-2013
                24-May-2021 
 ******************************************
 %nprocshared=20
 Will use up to   20 processors via shared memory.
 %mem=32GB
 %chk=ethane_2.chk
 ----------------
 # b3lyp/6-31g(d)
 ----------------
 1/38=1/1;
 2/12=2,17=6,18=5,40=1/2;
 3/5=1,6=6,7=1,11=2,16=1,25=1,30=1,74=-5/1,2,3;
 4//1;
 5/5=2,38=5/2;
 6/7=2,8=2,9=2,10=2,28=1/1;
 99/5=1,9=1/99;
 -----------
 ethane_scan
 -----------
 Symbolic Z-matrix:
 Charge =  0 Multiplicity = 1
 C                     0.81537   0.00002  -0.00002 
 C                    -0.81537  -0.00002   0.00002 
 H                    -1.19302   0.19545  -1.00807 
 H                    -1.19302   0.7753    0.67332 
 H                    -1.19306  -0.97077   0.33476 
 H                     1.19306   0.97077  -0.33476 
 H                     1.19302  -0.7753   -0.67332 
 H                     1.19302  -0.19545   1.00807 
 
                          Input orientation:                          
 ---------------------------------------------------------------------
 Center     Atomic      Atomic             Coordinates (Angstroms)
 Number     Number       Type             X           Y           Z
 ---------------------------------------------------------------------
      1          6           0        0.815370    0.000016   -0.000015
      2          6           0       -0.815370   -0.000016    0.000015
      3          1           0       -1.193015    0.195450   -1.008069
      4          1           0       -1.193022    0.775296    0.673316
      5          1           0       -1.193063   -0.970770    0.334762
      6          1           0        1.193063    0.970770   -0.334762
      7          1           0        1.193022   -0.775296   -0.673316
      8          1           0        1.193015   -0.195450    1.008069
 ---------------------------------------------------------------------
                    Distance matrix (angstroms):
                    1          2          3          4          5
     1  C    0.000000
     2  C    1.630740   0.000000
     3  H    2.255655   1.094101   0.000000
     4  H    2.255676   1.094104   1.778560   0.000000
     5  H    2.255727   1.094107   1.778557   1.778585   0.000000
     6  H    1.094107   2.255727   2.597659   2.597659   3.148244
     7  H    1.094104   2.255676   2.597610   3.148168   2.597659
     8  H    1.094101   2.255655   3.148135   2.597610   2.597659
                    6          7          8
     6  H    0.000000
     7  H    1.778585   0.000000
     8  H    1.778557   1.778560   0.000000
 Stoichiometry    C2H6
 Framework group  CI[X(C2H6)]
 Deg. of freedom     9
 Full point group                 CI      NOp   2
 Largest Abelian subgroup         CI      NOp   2
 Largest concise Abelian subgroup CI      NOp   2
                         Standard orientation:                         
 ---------------------------------------------------------------------
 Center     Atomic      Atomic             Coordinates (Angstroms)
 Number     Number       Type             X           Y           Z
 ---------------------------------------------------------------------
      1          6           0        0.815370    0.000016   -0.000015
      2          6           0       -0.815370   -0.000016    0.000015
      3          1           0       -1.193015    0.195450   -1.008069
      4          1           0       -1.193022    0.775296    0.673316
      5          1           0       -1.193063   -0.970770    0.334762
      6          1           0        1.193063    0.970770   -0.334762
      7          1           0        1.193022   -0.775296   -0.673316
      8          1           0        1.193015   -0.195450    1.008069
 ---------------------------------------------------------------------
 Rotational constants (GHZ):     79.2613353     18.2114193     18.2113352
 Standard basis: 6-31G(d) (6D, 7F)
 There are    21 symmetry adapted cartesian basis functions of AG  symmetry.
 There are    21 symmetry adapted cartesian basis functions of AU  symmetry.
 There are    21 symmetry adapted basis functions of AG  symmetry.
 There are    21 symmetry adapted basis functions of AU  symmetry.
    42 basis functions,    80 primitive gaussians,    42 cartesian basis functions
     9 alpha electrons        9 beta electrons
       nuclear repulsion energy        41.0511292370 Hartrees.
 NAtoms=    8 NActive=    8 NUniq=    4 SFac= 4.00D+00 NAtFMM=   60 NAOKFM=F Big=F
 Integral buffers will be    131072 words long.
 Raffenetti 2 integral format.
 Two-electron integral symmetry is turned on.
 One-electron integrals computed using PRISM.
 NBasis=    42 RedAO= T EigKep=  7.06D-03  NBF=    21    21
 NBsUse=    42 1.00D-06 EigRej= -1.00D+00 NBFU=    21    21
 ExpMin= 1.61D-01 ExpMax= 3.05D+03 ExpMxC= 4.57D+02 IAcc=1 IRadAn=         1 AccDes= 0.00D+00
 Harris functional with IExCor=  402 and IRadAn=       1 diagonalized for initial guess.
 HarFok:  IExCor=  402 AccDes= 0.00D+00 IRadAn=         1 IDoV= 1 UseB2=F ITyADJ=14
 ICtDFT=  3500011 ScaDFX=  1.000000  1.000000  1.000000  1.000000
 FoFCou: FMM=F IPFlag=           0 FMFlag=      100000 FMFlg1=           0
         NFxFlg=           0 DoJE=T BraDBF=F KetDBF=T FulRan=T
         wScrn=  0.000000 ICntrl=     500 IOpCl=  0 I1Cent=   200000004 NGrid=           0
         NMat0=    1 NMatS0=      1 NMatT0=    0 NMatD0=    1 NMtDS0=    0 NMtDT0=    0
 Petite list used in FoFCou.
 Initial guess orbital symmetries:
       Occupied  (AG) (AU) (AG) (AU) (AU) (AU) (AG) (AG) (AG)
       Virtual   (AG) (AU) (AU) (AU) (AU) (AG) (AG) (AU) (AU) (AG)
                 (AU) (AG) (AG) (AG) (AU) (AU) (AG) (AG) (AU) (AG)
                 (AU) (AU) (AU) (AG) (AG) (AG) (AU) (AU) (AG) (AG)
                 (AU) (AG) (AU)
 The electronic state of the initial guess is 1-AG.
 Keep R1 ints in memory in symmetry-blocked form, NReq=1296204.
 Requested convergence on RMS density matrix=1.00D-08 within 128 cycles.
 Requested convergence on MAX density matrix=1.00D-06.
 Requested convergence on             energy=1.00D-06.
 No special actions if energy rises.
 Integral accuracy reduced to 1.0D-05 until final iterations.
 Initial convergence to 1.0D-05 achieved.  Increase integral accuracy.
 SCF Done:  E(RB3LYP) =  -79.8263566553     A.U. after    9 cycles
            NFock=  9  Conv=0.68D-08     -V/T= 2.0123

 **********************************************************************

            Population analysis using the SCF density.

 **********************************************************************

 Orbital symmetries:
       Occupied  (AG) (AU) (AG) (AU) (AU) (AU) (AG) (AG) (AG)
       Virtual   (AG) (AU) (AU) (AU) (AG) (AG) (AU) (AU) (AU) (AG)
                 (AU) (AG) (AG) (AG) (AU) (AU) (AG) (AG) (AU) (AG)
                 (AU) (AU) (AU) (AG) (AG) (AG) (AU) (AU) (AG) (AG)
                 (AU) (AG) (AU)
 The electronic state is 1-AG.
 Alpha  occ. eigenvalues --  -10.17742 -10.17730  -0.73104  -0.61692  -0.42401
 Alpha  occ. eigenvalues --   -0.42401  -0.34910  -0.34910  -0.34257
 Alpha virt. eigenvalues --    0.10480   0.14823   0.17039   0.17040   0.18750
 Alpha virt. eigenvalues --    0.18751   0.20826   0.53279   0.53280   0.54094
 Alpha virt. eigenvalues --    0.62479   0.63883   0.63886   0.89188   0.89869
 Alpha virt. eigenvalues --    0.89869   0.91421   0.91421   0.97770   1.06436
 Alpha virt. eigenvalues --    1.42014   1.53574   1.53577   1.84118   1.96850
 Alpha virt. eigenvalues --    1.96855   2.26161   2.26165   2.29115   2.29118
 Alpha virt. eigenvalues --    2.53755   4.11806   4.35326
          Condensed to atoms (all electrons):
               1          2          3          4          5          6
     1  C    5.026259   0.360239  -0.030160  -0.030158  -0.030152   0.381463
     2  C    0.360239   5.026259   0.381464   0.381462   0.381463  -0.030152
     3  H   -0.030160   0.381464   0.567238  -0.031905  -0.031906  -0.002515
     4  H   -0.030158   0.381462  -0.031905   0.567241  -0.031903  -0.002515
     5  H   -0.030152   0.381463  -0.031906  -0.031903   0.567232   0.003490
     6  H    0.381463  -0.030152  -0.002515  -0.002515   0.003490   0.567232
     7  H    0.381462  -0.030158  -0.002515   0.003491  -0.002515  -0.031903
     8  H    0.381464  -0.030160   0.003491  -0.002515  -0.002515  -0.031906
               7          8
     1  C    0.381462   0.381464
     2  C   -0.030158  -0.030160
     3  H   -0.002515   0.003491
     4  H    0.003491  -0.002515
     5  H   -0.002515  -0.002515
     6  H   -0.031903  -0.031906
     7  H    0.567241  -0.031905
     8  H   -0.031905   0.567238
 Mulliken charges:
               1
     1  C   -0.440418
     2  C   -0.440418
     3  H    0.146808
     4  H    0.146803
     5  H    0.146807
     6  H    0.146807
     7  H    0.146803
     8  H    0.146808
 Sum of Mulliken charges =   0.00000
 Mulliken charges with hydrogens summed into heavy atoms:
               1
     1  C    0.000000
     2  C    0.000000
 Electronic spatial extent (au):  <R**2>=            114.6975
 Charge=              0.0000 electrons
 Dipole moment (field-independent basis, Debye):
    X=              0.0000    Y=              0.0000    Z=              0.0000  Tot=              0.0000
 Quadrupole moment (field-independent basis, Debye-Ang):
   XX=            -15.1589   YY=            -14.6930   ZZ=            -14.6932
   XY=              0.0001   XZ=              0.0000   YZ=              0.0000
 Traceless Quadrupole moment (field-independent basis, Debye-Ang):
   XX=             -0.3105   YY=              0.1553   ZZ=              0.1552
   XY=              0.0001   XZ=              0.0000   YZ=              0.0000
 Octapole moment (field-independent basis, Debye-Ang**2):
  XXX=              0.0000  YYY=              0.0000  ZZZ=              0.0000  XYY=              0.0000
  XXY=              0.0000  XXZ=              0.0000  XZZ=              0.0000  YZZ=              0.0000
  YYZ=              0.0000  XYZ=              0.0000
 Hexadecapole moment (field-independent basis, Debye-Ang**3):
 XXXX=            -99.8263 YYYY=            -28.6372 ZZZZ=            -28.6370 XXXY=             -0.0002
 XXXZ=              0.0004 YYYX=              0.7111 YYYZ=              0.0000 ZZZX=              1.0998
 ZZZY=              0.0000 XXYY=            -20.1194 XXZZ=            -20.1198 YYZZ=             -9.5457
 XXYZ=             -0.0001 YYXZ=             -1.0991 ZZXY=             -0.7118
 N-N= 4.105112923699D+01 E-N=-2.658293466406D+02  KE= 7.885592466488D+01
 Symmetry AG   KE= 4.084954875373D+01
 Symmetry AU   KE= 3.800637591116D+01
 1\1\GINC-CPU-E-329\SP\RB3LYP\6-31G(d)\C2H6\AM2145\24-May-2021\0\\# b3l
 yp/6-31g(d)\\ethane_scan\\0,1\C,0,0.81537,0.000016,-0.000015\C,0,-0.81
 537,-0.000016,0.000015\H,0,-1.193015,0.19545,-1.008069\H,0,-1.193022,0
 .775296,0.673316\H,0,-1.193063,-0.97077,0.334762\H,0,1.193063,0.97077,
 -0.334762\H,0,1.193022,-0.775296,-0.673316\H,0,1.193015,-0.19545,1.008
 069\\Version=ES64L-G09RevD.01\State=1-AG\HF=-79.8263567\RMSD=6.844e-09
 \Dipole=0.,0.,0.\Quadrupole=-0.2308688,0.115491,0.1153778,0.0001089,-0
 .0000161,0.0000245\PG=CI [X(C2H6)]\\@


 FAULTILY FAULTLESS, ICILY REGULAR, SPLENDIDLY NULL...
           MAUDE BY TENNYSON
 Job cpu time:       0 days  0 hours  1 minutes 52.9 seconds.
 File lengths (MBytes):  RWF=      5 Int=      0 D2E=      0 Chk=      1 Scr=      1
 Normal termination of Gaussian 09 at Mon May 24 17:12:00 2021.
