 Entering Gaussian System, Link 0=g09
 Initial command:
 /usr/local/Cluster-Apps/gaussian/g09/l1.exe "/rds/user/am2145/hpc-work/scratch/26066750/Gau-72005.inp" -scrdir="/rds/user/am2145/hpc-work/scratch/26066750/"
 Entering Link 1 = /usr/local/Cluster-Apps/gaussian/g09/l1.exe PID=     72006.
  
 Copyright (c) 1988,1990,1992,1993,1995,1998,2003,2009,2013,
            Gaussian, Inc.  All Rights Reserved.
  
 This is part of the Gaussian(R) 09 program.  It is based on
 the Gaussian(R) 03 system (copyright 2003, Gaussian, Inc.),
 the Gaussian(R) 98 system (copyright 1998, Gaussian, Inc.),
 the Gaussian(R) 94 system (copyright 1995, Gaussian, Inc.),
 the Gaussian 92(TM) system (copyright 1992, Gaussian, Inc.),
 the Gaussian 90(TM) system (copyright 1990, Gaussian, Inc.),
 the Gaussian 88(TM) system (copyright 1988, Gaussian, Inc.),
 the Gaussian 86(TM) system (copyright 1986, Carnegie Mellon
 University), and the Gaussian 82(TM) system (copyright 1983,
 Carnegie Mellon University). Gaussian is a federally registered
 trademark of Gaussian, Inc.
  
 This software contains proprietary and confidential information,
 including trade secrets, belonging to Gaussian, Inc.
  
 This software is provided under written license and may be
 used, copied, transmitted, or stored only in accord with that
 written license.
  
 The following legend is applicable only to US Government
 contracts under FAR:
  
                    RESTRICTED RIGHTS LEGEND
  
 Use, reproduction and disclosure by the US Government is
 subject to restrictions as set forth in subparagraphs (a)
 and (c) of the Commercial Computer Software - Restricted
 Rights clause in FAR 52.227-19.
  
 Gaussian, Inc.
 340 Quinnipiac St., Bldg. 40, Wallingford CT 06492
  
  
 ---------------------------------------------------------------
 Warning -- This program may not be used in any manner that
 competes with the business of Gaussian, Inc. or will provide
 assistance to any competitor of Gaussian, Inc.  The licensee
 of this program is prohibited from giving any competitor of
 Gaussian, Inc. access to this program.  By using this program,
 the user acknowledges that Gaussian, Inc. is engaged in the
 business of creating and licensing software in the field of
 computational chemistry and represents and warrants to the
 licensee that it is not a competitor of Gaussian, Inc. and that
 it will not use this program in any manner prohibited above.
 ---------------------------------------------------------------
  

 Cite this work as:
 Gaussian 09, Revision D.01,
 M. J. Frisch, G. W. Trucks, H. B. Schlegel, G. E. Scuseria, 
 M. A. Robb, J. R. Cheeseman, G. Scalmani, V. Barone, B. Mennucci, 
 G. A. Petersson, H. Nakatsuji, M. Caricato, X. Li, H. P. Hratchian, 
 A. F. Izmaylov, J. Bloino, G. Zheng, J. L. Sonnenberg, M. Hada, 
 M. Ehara, K. Toyota, R. Fukuda, J. Hasegawa, M. Ishida, T. Nakajima, 
 Y. Honda, O. Kitao, H. Nakai, T. Vreven, J. A. Montgomery, Jr., 
 J. E. Peralta, F. Ogliaro, M. Bearpark, J. J. Heyd, E. Brothers, 
 K. N. Kudin, V. N. Staroverov, T. Keith, R. Kobayashi, J. Normand, 
 K. Raghavachari, A. Rendell, J. C. Burant, S. S. Iyengar, J. Tomasi, 
 M. Cossi, N. Rega, J. M. Millam, M. Klene, J. E. Knox, J. B. Cross, 
 V. Bakken, C. Adamo, J. Jaramillo, R. Gomperts, R. E. Stratmann, 
 O. Yazyev, A. J. Austin, R. Cammi, C. Pomelli, J. W. Ochterski, 
 R. L. Martin, K. Morokuma, V. G. Zakrzewski, G. A. Voth, 
 P. Salvador, J. J. Dannenberg, S. Dapprich, A. D. Daniels, 
 O. Farkas, J. B. Foresman, J. V. Ortiz, J. Cioslowski, 
 and D. J. Fox, Gaussian, Inc., Wallingford CT, 2013.
 
 ******************************************
 Gaussian 09:  ES64L-G09RevD.01 24-Apr-2013
                17-Jul-2020 
 ******************************************
 %NProcShared=20
 Will use up to   20 processors via shared memory.
 %mem=64GB
 %Chk=h2o-freq.chk
 -------------------------
 #t B3LYP/6-311G(d,p) Freq
 -------------------------
 --------
 h2o-freq
 --------
 Symbolic Z-matrix:
 Charge =  0 Multiplicity = 1
 H                     0.75697  -0.47495   0. 
 H                    -0.75697  -0.47495   0. 
 O                     0.        0.11874   0. 
 

 GradGradGradGradGradGradGradGradGradGradGradGradGradGradGradGradGradGrad
 Initialization pass.
 Number of steps in this run=      2 maximum allowed number of steps=      2.
 GradGradGradGradGradGradGradGradGradGradGradGradGradGradGradGradGradGrad

                    Distance matrix (angstroms):
                    1          2          3
     1  H    0.000000
     2  H    1.513940   0.000000
     3  O    0.962014   0.962014   0.000000
 Framework group  C2V[C2(O),SGV(H2)]
 Deg. of freedom     2
                         Standard orientation:                         
 ---------------------------------------------------------------------
 Center     Atomic      Atomic             Coordinates (Angstroms)
 Number     Number       Type             X           Y           Z
 ---------------------------------------------------------------------
      1          1           0        0.000000    0.756970   -0.474952
      2          1           0        0.000000   -0.756970   -0.474952
      3          8           0        0.000000    0.000000    0.118738
 ---------------------------------------------------------------------
 Rotational constants (GHZ):    800.9916578    437.5671610    282.9802189
    30 basis functions,    48 primitive gaussians,    31 cartesian basis functions
     5 alpha electrons        5 beta electrons
       nuclear repulsion energy         9.1506903071 Hartrees.
 NAtoms=    3 NActive=    3 NUniq=    2 SFac= 2.25D+00 NAtFMM=   60 NAOKFM=F Big=F
 ExpMin= 1.03D-01 ExpMax= 8.59D+03 ExpMxC= 1.30D+03 IAcc=1 IRadAn=         1 AccDes= 0.00D+00
 Harris functional with IExCor=  402 and IRadAn=       1 diagonalized for initial guess.
 HarFok:  IExCor=  402 AccDes= 0.00D+00 IRadAn=         1 IDoV= 1 UseB2=F ITyADJ=14
 ICtDFT=  3500011 ScaDFX=  1.000000  1.000000  1.000000  1.000000
 FoFCou: FMM=F IPFlag=           0 FMFlag=      100000 FMFlg1=           0
         NFxFlg=           0 DoJE=T BraDBF=F KetDBF=T FulRan=T
         wScrn=  0.000000 ICntrl=     500 IOpCl=  0 I1Cent=   200000004 NGrid=           0
         NMat0=    1 NMatS0=      1 NMatT0=    0 NMatD0=    1 NMtDS0=    0 NMtDT0=    0
 Petite list used in FoFCou.
 Initial guess orbital symmetries:
       Occupied  (A1) (A1) (B2) (A1) (B1)
       Virtual   (A1) (B2) (B2) (A1) (A1) (B1) (B2) (A1) (A1) (A2)
                 (B1) (B2) (B2) (A1) (A1) (B2) (B1) (A2) (A1) (A1)
                 (B2) (B1) (A1) (B2) (A1)
 The electronic state of the initial guess is 1-A1.
 Integral accuracy reduced to 1.0D-05 until final iterations.
 Initial convergence to 1.0D-05 achieved.  Increase integral accuracy.
 SCF Done:  E(RB3LYP) =  -76.4474479921     A.U. after    9 cycles
            NFock=  9  Conv=0.97D-08     -V/T= 2.0017
 DoSCS=F DFT=T ScalE2(SS,OS)=  1.000000  1.000000
 NROrb=     30 NOA=     5 NOB=     5 NVA=    25 NVB=    25
 Symmetrizing basis deriv contribution to polar:
 IMax=3 JMax=2 DiffMx= 0.00D+00
 Calling FoFCou, ICntrl=  3107 FMM=F I1Cent=   0 AccDes= 0.00D+00.
 End of G2Drv F.D. properties file   721 does not exist.
 End of G2Drv F.D. properties file   722 does not exist.
 End of G2Drv F.D. properties file   788 does not exist.
          IDoAtm=111
 End of Minotr F.D. properties file   721 does not exist.
 End of Minotr F.D. properties file   722 does not exist.
 End of Minotr F.D. properties file   788 does not exist.

 **********************************************************************

            Population analysis using the SCF density.

 **********************************************************************

 Orbital symmetries:
       Occupied  (A1) (A1) (B2) (A1) (B1)
       Virtual   (A1) (B2) (B2) (A1) (A1) (B1) (B2) (A1) (A1) (A2)
                 (B1) (B2) (B2) (A1) (A1) (B2) (B1) (A2) (A1) (A1)
                 (B2) (B1) (A1) (B2) (A1)
 The electronic state is 1-A1.
 Alpha  occ. eigenvalues --  -19.10270  -1.00265  -0.52152  -0.37654  -0.29943
 Alpha virt. eigenvalues --    0.02861   0.10392   0.37816   0.42399   0.75997
 Alpha virt. eigenvalues --    0.76423   0.86215   1.06658   1.23938   1.26846
 Alpha virt. eigenvalues --    1.45879   1.65893   1.92072   2.05071   2.28819
 Alpha virt. eigenvalues --    2.47968   3.11254   3.15446   3.31972   3.58924
 Alpha virt. eigenvalues --    3.82257   4.76463   5.18715   5.60532  49.84211
          Condensed to atoms (all electrons):
 Mulliken charges:
               1
     1  H    0.236713
     2  H    0.236713
     3  O   -0.473425
 Sum of Mulliken charges =   0.00000
 Mulliken charges with hydrogens summed into heavy atoms:
               1
     3  O    0.000000
 APT charges:
               1
     1  H    0.244409
     2  H    0.244409
     3  O   -0.488817
 Sum of APT charges =   0.00000
 APT charges with hydrogens summed into heavy atoms:
               1
     3  O    0.000000
 Electronic spatial extent (au):  <R**2>=             19.1828
 Charge=              0.0000 electrons
 Dipole moment (field-independent basis, Debye):
    X=              0.0000    Y=              0.0000    Z=             -2.0704  Tot=              2.0704
  Exact polarizability:   4.055   0.000   7.749   0.000   0.000   5.950
 Approx polarizability:   4.314   0.000   9.538   0.000   0.000   7.300
 Calling FoFJK, ICntrl=    100127 FMM=F ISym2X=1 I1Cent= 0 IOpClX= 0 NMat=1 NMatS=1 NMatT=0.
 Full mass-weighted force constant matrix:
 Low frequencies ---  -48.7179  -16.6675   -0.0006    0.0012    0.0012   13.0112
 Low frequencies --- 1638.8566 3809.6340 3906.5202
 Diagonal vibrational polarizability:
        0.0000000       0.0439510       0.5879057
 Harmonic frequencies (cm**-1), IR intensities (KM/Mole), Raman scattering
 activities (A**4/AMU), depolarization ratios for plane and unpolarized
 incident light, reduced masses (AMU), force constants (mDyne/A),
 and normal coordinates:
                      1                      2                      3
                     A1                     A1                     B2
 Frequencies --   1638.8566              3809.6340              3906.5202
 Red. masses --      1.0822                 1.0456                 1.0811
 Frc consts  --      1.7126                 8.9406                 9.7211
 IR Inten    --     58.0124                 3.5827                24.9239
  Atom  AN      X      Y      Z        X      Y      Z        X      Y      Z
     1   1     0.00   0.43   0.56     0.00  -0.58   0.40     0.00   0.56  -0.44
     2   1     0.00  -0.43   0.56     0.00   0.58   0.40     0.00   0.56   0.44
     3   8     0.00   0.00  -0.07     0.00   0.00  -0.05     0.00  -0.07   0.00
 
 Temperature   298.150 Kelvin.  Pressure   1.00000 Atm.
 Zero-point correction=                           0.021312 (Hartree/Particle)
 Thermal correction to Energy=                    0.024148
 Thermal correction to Enthalpy=                  0.025092
 Thermal correction to Gibbs Free Energy=         0.003665
 Sum of electronic and zero-point Energies=            -76.426136
 Sum of electronic and thermal Energies=               -76.423300
 Sum of electronic and thermal Enthalpies=             -76.422356
 Sum of electronic and thermal Free Energies=          -76.443783

 GradGradGradGradGradGradGradGradGradGradGradGradGradGradGradGradGradGrad
 Step number   1 out of a maximum of    2
 All quantities printed in internal units (Hartrees-Bohrs-Radians)
 Second derivative matrix not updated -- analytic derivatives used.
 ITU=  0
     Eigenvalues ---    0.15019   0.78165   0.96651
 Angle between quadratic step and forces=  44.02 degrees.
 ClnCor:  largest displacement from symmetrization is 5.83D-14 for atom     2.
 Linear search not attempted -- first point.
 ClnCor:  largest displacement from symmetrization is 9.94D-31 for atom     3.
 Variable       Old X    -DE/DX   Delta X   Delta X   Delta X     New X
                                 (Linear)    (Quad)   (Total)
    X1        1.43047   0.00000   0.00000   0.00018   0.00018   1.43065
    Y1       -0.89753   0.00004   0.00000   0.00020   0.00011  -0.89741
    Z1        0.00000   0.00000   0.00000   0.00000   0.00000   0.00000
    X2       -1.43047   0.00000   0.00000  -0.00018  -0.00018  -1.43065
    Y2       -0.89753   0.00004   0.00000   0.00020   0.00011  -0.89741
    Z2        0.00000   0.00000   0.00000   0.00000   0.00000   0.00000
    X3        0.00000   0.00000   0.00000   0.00000   0.00000   0.00000
    Y3        0.22439  -0.00008   0.00000  -0.00014  -0.00022   0.22416
    Z3        0.00000   0.00000   0.00000   0.00000   0.00000   0.00000
         Item               Value     Threshold  Converged?
 Maximum Force            0.000081     0.000450     YES
 RMS     Force            0.000033     0.000300     YES
 Maximum Displacement     0.000224     0.001800     YES
 RMS     Displacement     0.000125     0.001200     YES
 Optimization completed.
    -- Stationary point found.
 GradGradGradGradGradGradGradGradGradGradGradGradGradGradGradGradGradGrad

 1\1\GINC-CPU-G-25\Freq\RB3LYP\6-311G(d,p)\H2O1\AM2145\17-Jul-2020\0\\#
 t B3LYP/6-311G(d,p) Freq\\h2o-freq\\0,1\H,0.75697,-0.47495,0.\H,-0.756
 97,-0.47495,0.\O,0.,0.11874,0.\\Version=ES64L-G09RevD.01\State=1-A1\HF
 =-76.447448\RMSD=9.721e-09\RMSF=3.298e-05\ZeroPoint=0.0213123\Thermal=
 0.0241476\Dipole=0.,-0.8145584,0.\DipoleDeriv=0.2142663,0.0667497,0.,0
 .1166612,0.1559432,0.,0.,0.,0.3630162,0.2142663,-0.0667497,0.,-0.11666
 12,0.1559432,0.,0.,0.,0.3630162,-0.4285326,0.,0.,0.,-0.3118864,0.,0.,0
 .,-0.7260324\Polar=7.7491366,0.,5.949575,0.,0.,4.0548907\PG=C02V [C2(O
 1),SGV(H2)]\NImag=0\\0.36624235,-0.23208640,0.21728758,0.,0.,-0.000049
 97,-0.03201032,-0.03011258,0.,0.36624235,0.03011258,0.01158723,0.,0.23
 208640,0.21728758,0.,0.,0.00004056,0.,0.,-0.00004997,-0.33423203,0.262
 19898,0.,-0.33423203,-0.26219898,0.,0.66846405,0.20197382,-0.22887481,
 0.,-0.20197382,-0.22887481,0.,0.,0.45774961,0.,0.,0.00000941,0.,0.,0.0
 0000941,0.,0.,-0.00001882\\-0.00000445,-0.00004032,0.,0.00000445,-0.00
 004032,0.,0.,0.00008063,0.\\\@


 In the beginning the Universe was created.
 This has made a lot of people very angry
 and been widely regarded as a bad move.
                               -D.Adams
 Job cpu time:       0 days  0 hours  4 minutes 20.6 seconds.
 File lengths (MBytes):  RWF=      5 Int=      0 D2E=      0 Chk=      1 Scr=      1
 Normal termination of Gaussian 09 at Fri Jul 17 18:02:18 2020.
