 Entering Gaussian System, Link 0=g09
 Initial command:
 /usr/local/Cluster-Apps/gaussian/g09/l1.exe "/rds/user/am2145/hpc-work/scratch/26067371/Gau-72966.inp" -scrdir="/rds/user/am2145/hpc-work/scratch/26067371/"
 Entering Link 1 = /usr/local/Cluster-Apps/gaussian/g09/l1.exe PID=     72967.
  
 Copyright (c) 1988,1990,1992,1993,1995,1998,2003,2009,2013,
            Gaussian, Inc.  All Rights Reserved.
  
 This is part of the Gaussian(R) 09 program.  It is based on
 the Gaussian(R) 03 system (copyright 2003, Gaussian, Inc.),
 the Gaussian(R) 98 system (copyright 1998, Gaussian, Inc.),
 the Gaussian(R) 94 system (copyright 1995, Gaussian, Inc.),
 the Gaussian 92(TM) system (copyright 1992, Gaussian, Inc.),
 the Gaussian 90(TM) system (copyright 1990, Gaussian, Inc.),
 the Gaussian 88(TM) system (copyright 1988, Gaussian, Inc.),
 the Gaussian 86(TM) system (copyright 1986, Carnegie Mellon
 University), and the Gaussian 82(TM) system (copyright 1983,
 Carnegie Mellon University). Gaussian is a federally registered
 trademark of Gaussian, Inc.
  
 This software contains proprietary and confidential information,
 including trade secrets, belonging to Gaussian, Inc.
  
 This software is provided under written license and may be
 used, copied, transmitted, or stored only in accord with that
 written license.
  
 The following legend is applicable only to US Government
 contracts under FAR:
  
                    RESTRICTED RIGHTS LEGEND
  
 Use, reproduction and disclosure by the US Government is
 subject to restrictions as set forth in subparagraphs (a)
 and (c) of the Commercial Computer Software - Restricted
 Rights clause in FAR 52.227-19.
  
 Gaussian, Inc.
 340 Quinnipiac St., Bldg. 40, Wallingford CT 06492
  
  
 ---------------------------------------------------------------
 Warning -- This program may not be used in any manner that
 competes with the business of Gaussian, Inc. or will provide
 assistance to any competitor of Gaussian, Inc.  The licensee
 of this program is prohibited from giving any competitor of
 Gaussian, Inc. access to this program.  By using this program,
 the user acknowledges that Gaussian, Inc. is engaged in the
 business of creating and licensing software in the field of
 computational chemistry and represents and warrants to the
 licensee that it is not a competitor of Gaussian, Inc. and that
 it will not use this program in any manner prohibited above.
 ---------------------------------------------------------------
  

 Cite this work as:
 Gaussian 09, Revision D.01,
 M. J. Frisch, G. W. Trucks, H. B. Schlegel, G. E. Scuseria, 
 M. A. Robb, J. R. Cheeseman, G. Scalmani, V. Barone, B. Mennucci, 
 G. A. Petersson, H. Nakatsuji, M. Caricato, X. Li, H. P. Hratchian, 
 A. F. Izmaylov, J. Bloino, G. Zheng, J. L. Sonnenberg, M. Hada, 
 M. Ehara, K. Toyota, R. Fukuda, J. Hasegawa, M. Ishida, T. Nakajima, 
 Y. Honda, O. Kitao, H. Nakai, T. Vreven, J. A. Montgomery, Jr., 
 J. E. Peralta, F. Ogliaro, M. Bearpark, J. J. Heyd, E. Brothers, 
 K. N. Kudin, V. N. Staroverov, T. Keith, R. Kobayashi, J. Normand, 
 K. Raghavachari, A. Rendell, J. C. Burant, S. S. Iyengar, J. Tomasi, 
 M. Cossi, N. Rega, J. M. Millam, M. Klene, J. E. Knox, J. B. Cross, 
 V. Bakken, C. Adamo, J. Jaramillo, R. Gomperts, R. E. Stratmann, 
 O. Yazyev, A. J. Austin, R. Cammi, C. Pomelli, J. W. Ochterski, 
 R. L. Martin, K. Morokuma, V. G. Zakrzewski, G. A. Voth, 
 P. Salvador, J. J. Dannenberg, S. Dapprich, A. D. Daniels, 
 O. Farkas, J. B. Foresman, J. V. Ortiz, J. Cioslowski, 
 and D. J. Fox, Gaussian, Inc., Wallingford CT, 2013.
 
 ******************************************
 Gaussian 09:  ES64L-G09RevD.01 24-Apr-2013
                17-Jul-2020 
 ******************************************
 %NProcShared=20
 Will use up to   20 processors via shared memory.
 %mem=64GB
 %Chk=h2o-freq.chk
 -------------------------
 #p B3LYP/6-311G(d,p) Freq
 -------------------------
 1/10=4,30=1,38=1/1,3;
 2/12=2,17=6,18=5,40=1/2;
 3/5=4,6=6,7=101,11=2,16=1,25=1,30=1,71=2,74=-5,140=1/1,2,3;
 4//1;
 5/5=2,38=5,98=1/2;
 8/6=4,10=90,11=11/1;
 11/6=1,8=1,9=11,15=111,16=1/1,2,10;
 10/6=1/2;
 6/7=2,8=2,9=2,10=2,18=1,28=1/1;
 7/8=1,10=1,25=1/1,2,3,16;
 1/10=4,30=1/3;
 99//99;
 Leave Link    1 at Fri Jul 17 18:04:26 2020, MaxMem=  8589934592 cpu:         3.0
 (Enter /usr/local/Cluster-Apps/gaussian/g09/l101.exe)
 --------
 h2o-freq
 --------
 Symbolic Z-matrix:
 Charge =  0 Multiplicity = 1
 H                     0.75697  -0.47495   0. 
 H                    -0.75697  -0.47495   0. 
 O                     0.        0.11874   0. 
 
 NAtoms=      3 NQM=        3 NQMF=       0 NMMI=      0 NMMIF=      0
                NMic=       0 NMicF=      0.
                    Isotopes and Nuclear Properties:
 (Nuclear quadrupole moments (NQMom) in fm**2, nuclear magnetic moments (NMagM)
  in nuclear magnetons)

  Atom         1           2           3
 IAtWgt=           1           1          16
 AtmWgt=   1.0078250   1.0078250  15.9949146
 NucSpn=           1           1           0
 AtZEff=   0.0000000   0.0000000   0.0000000
 NQMom=    0.0000000   0.0000000   0.0000000
 NMagM=    2.7928460   2.7928460   0.0000000
 AtZNuc=   1.0000000   1.0000000   8.0000000
 Leave Link  101 at Fri Jul 17 18:04:27 2020, MaxMem=  8589934592 cpu:         1.4
 (Enter /usr/local/Cluster-Apps/gaussian/g09/l103.exe)

 GradGradGradGradGradGradGradGradGradGradGradGradGradGradGradGradGradGrad
 Berny optimization.
 Initialization pass.
 Trust Radius=3.00D-01 FncErr=1.00D-07 GrdErr=1.00D-07
 Number of steps in this run=      2 maximum allowed number of steps=      2.
 GradGradGradGradGradGradGradGradGradGradGradGradGradGradGradGradGradGrad

 Leave Link  103 at Fri Jul 17 18:04:27 2020, MaxMem=  8589934592 cpu:         0.4
 (Enter /usr/local/Cluster-Apps/gaussian/g09/l202.exe)
                          Input orientation:                          
 ---------------------------------------------------------------------
 Center     Atomic      Atomic             Coordinates (Angstroms)
 Number     Number       Type             X           Y           Z
 ---------------------------------------------------------------------
      1          1           0        0.756970   -0.474950    0.000000
      2          1           0       -0.756970   -0.474950    0.000000
      3          8           0        0.000000    0.118740    0.000000
 ---------------------------------------------------------------------
                    Distance matrix (angstroms):
                    1          2          3
     1  H    0.000000
     2  H    1.513940   0.000000
     3  O    0.962014   0.962014   0.000000
 Stoichiometry    H2O
 Framework group  C2V[C2(O),SGV(H2)]
 Deg. of freedom     2
 Full point group                 C2V     NOp   4
 Largest Abelian subgroup         C2V     NOp   4
 Largest concise Abelian subgroup C2      NOp   2
                         Standard orientation:                         
 ---------------------------------------------------------------------
 Center     Atomic      Atomic             Coordinates (Angstroms)
 Number     Number       Type             X           Y           Z
 ---------------------------------------------------------------------
      1          1           0        0.000000    0.756970   -0.474952
      2          1           0        0.000000   -0.756970   -0.474952
      3          8           0        0.000000    0.000000    0.118738
 ---------------------------------------------------------------------
 Rotational constants (GHZ):    800.9916578    437.5671610    282.9802189
 Leave Link  202 at Fri Jul 17 18:04:27 2020, MaxMem=  8589934592 cpu:         1.3
 (Enter /usr/local/Cluster-Apps/gaussian/g09/l301.exe)
 Standard basis: 6-311G(d,p) (5D, 7F)
 Ernie: Thresh=  0.10000D-02 Tol=  0.10000D-05 Strict=F.
 There are    15 symmetry adapted cartesian basis functions of A1  symmetry.
 There are     2 symmetry adapted cartesian basis functions of A2  symmetry.
 There are     5 symmetry adapted cartesian basis functions of B1  symmetry.
 There are     9 symmetry adapted cartesian basis functions of B2  symmetry.
 There are    14 symmetry adapted basis functions of A1  symmetry.
 There are     2 symmetry adapted basis functions of A2  symmetry.
 There are     5 symmetry adapted basis functions of B1  symmetry.
 There are     9 symmetry adapted basis functions of B2  symmetry.
    30 basis functions,    48 primitive gaussians,    31 cartesian basis functions
     5 alpha electrons        5 beta electrons
       nuclear repulsion energy         9.1506903071 Hartrees.
 IExCor=  402 DFT=T Ex+Corr=B3LYP ExCW=0 ScaHFX=  0.200000
 ScaDFX=  0.800000  0.720000  1.000000  0.810000 ScalE2=  1.000000  1.000000
 IRadAn=      0 IRanWt=     -1 IRanGd=            0 ICorTp=0 IEmpDi=  4
 NAtoms=    3 NActive=    3 NUniq=    2 SFac= 2.25D+00 NAtFMM=   60 NAOKFM=F Big=F
 Integral buffers will be    131072 words long.
 Raffenetti 2 integral format.
 Two-electron integral symmetry is turned on.
 Leave Link  301 at Fri Jul 17 18:04:27 2020, MaxMem=  8589934592 cpu:         1.8
 (Enter /usr/local/Cluster-Apps/gaussian/g09/l302.exe)
 NPDir=0 NMtPBC=     1 NCelOv=     1 NCel=       1 NClECP=     1 NCelD=      1
         NCelK=      1 NCelE2=     1 NClLst=     1 CellRange=     0.0.
 One-electron integrals computed using PRISM.
 One-electron integral symmetry used in STVInt
 NBasis=    30 RedAO= T EigKep=  2.46D-02  NBF=    14     2     5     9
 NBsUse=    30 1.00D-06 EigRej= -1.00D+00 NBFU=    14     2     5     9
 Precomputing XC quadrature grid using
 IXCGrd= 4 IRadAn=           0 IRanWt=          -1 IRanGd=           0 AccXCQ= 0.00D+00.
 Generated NRdTot=       0 NPtTot=           0 NUsed=           0 NTot=          32
 NSgBfM=    31    31    31    31    31 MxSgAt=     3 MxSgA2=     3.
 Leave Link  302 at Fri Jul 17 18:04:28 2020, MaxMem=  8589934592 cpu:         9.6
 (Enter /usr/local/Cluster-Apps/gaussian/g09/l303.exe)
 DipDrv:  MaxL=1.
 Leave Link  303 at Fri Jul 17 18:04:28 2020, MaxMem=  8589934592 cpu:         2.5
 (Enter /usr/local/Cluster-Apps/gaussian/g09/l401.exe)
 ExpMin= 1.03D-01 ExpMax= 8.59D+03 ExpMxC= 1.30D+03 IAcc=1 IRadAn=         1 AccDes= 0.00D+00
 Harris functional with IExCor=  402 and IRadAn=       1 diagonalized for initial guess.
 HarFok:  IExCor=  402 AccDes= 0.00D+00 IRadAn=         1 IDoV= 1 UseB2=F ITyADJ=14
 ICtDFT=  3500011 ScaDFX=  1.000000  1.000000  1.000000  1.000000
 FoFCou: FMM=F IPFlag=           0 FMFlag=      100000 FMFlg1=           0
         NFxFlg=           0 DoJE=T BraDBF=F KetDBF=T FulRan=T
         wScrn=  0.000000 ICntrl=     500 IOpCl=  0 I1Cent=   200000004 NGrid=           0
         NMat0=    1 NMatS0=      1 NMatT0=    0 NMatD0=    1 NMtDS0=    0 NMtDT0=    0
 Petite list used in FoFCou.
 Harris En= -76.4896178185025    
 JPrj=0 DoOrth=F DoCkMO=F.
 Initial guess orbital symmetries:
       Occupied  (A1) (A1) (B2) (A1) (B1)
       Virtual   (A1) (B2) (B2) (A1) (A1) (B1) (B2) (A1) (A1) (A2)
                 (B1) (B2) (B2) (A1) (A1) (B2) (B1) (A2) (A1) (A1)
                 (B2) (B1) (A1) (B2) (A1)
 The electronic state of the initial guess is 1-A1.
 Leave Link  401 at Fri Jul 17 18:04:29 2020, MaxMem=  8589934592 cpu:        18.6
 (Enter /usr/local/Cluster-Apps/gaussian/g09/l502.exe)
 Closed shell SCF:
 Using DIIS extrapolation, IDIIS=  1040.
 Integral symmetry usage will be decided dynamically.
 Keep R1 ints in memory in symmetry-blocked form, NReq=992486.
 IVT=       22369 IEndB=       22369 NGot=  8589934592 MDV=  8589880307
 LenX=  8589880307 LenY=  8589878905
 Requested convergence on RMS density matrix=1.00D-08 within 128 cycles.
 Requested convergence on MAX density matrix=1.00D-06.
 Requested convergence on             energy=1.00D-06.
 No special actions if energy rises.
 FoFCou: FMM=F IPFlag=           0 FMFlag=           0 FMFlg1=           0
         NFxFlg=           0 DoJE=F BraDBF=F KetDBF=F FulRan=T
         wScrn=  0.000000 ICntrl=     600 IOpCl=  0 I1Cent=           0 NGrid=           0
         NMat0=    1 NMatS0=    465 NMatT0=    0 NMatD0=    1 NMtDS0=    0 NMtDT0=    0
 Petite list used in FoFCou.
 Integral accuracy reduced to 1.0D-05 until final iterations.

 Cycle   1  Pass 0  IDiag  1:
 E= -76.3597658203461    
 DIIS: error= 8.29D-02 at cycle   1 NSaved=   1.
 NSaved= 1 IEnMin= 1 EnMin= -76.3597658203461     IErMin= 1 ErrMin= 8.29D-02
 ErrMax= 8.29D-02  0.00D+00 EMaxC= 1.00D-01 BMatC= 1.35D-01 BMatP= 1.35D-01
 IDIUse=3 WtCom= 1.71D-01 WtEn= 8.29D-01
 Coeff-Com:  0.100D+01
 Coeff-En:   0.100D+01
 Coeff:      0.100D+01
 Gap=     0.168 Goal=   None    Shift=    0.000
 GapD=    0.168 DampG=1.000 DampE=0.500 DampFc=0.5000 IDamp=-1.
 Damping current iteration by 5.00D-01
 RMSDP=1.48D-02 MaxDP=1.83D-01              OVMax= 2.12D-01

 Cycle   2  Pass 0  IDiag  1:
 E= -76.3876844395824     Delta-E=       -0.027918619236 Rises=F Damp=T
 DIIS: error= 2.23D-02 at cycle   2 NSaved=   2.
 NSaved= 2 IEnMin= 2 EnMin= -76.3876844395824     IErMin= 2 ErrMin= 2.23D-02
 ErrMax= 2.23D-02  0.00D+00 EMaxC= 1.00D-01 BMatC= 8.17D-03 BMatP= 1.35D-01
 IDIUse=3 WtCom= 7.77D-01 WtEn= 2.23D-01
 Coeff-Com:  0.186D+00 0.814D+00
 Coeff-En:   0.324D+00 0.676D+00
 Coeff:      0.216D+00 0.784D+00
 Gap=     0.315 Goal=   None    Shift=    0.000
 RMSDP=2.00D-03 MaxDP=3.28D-02 DE=-2.79D-02 OVMax= 1.20D-01

 Cycle   3  Pass 0  IDiag  1:
 E= -76.4473380070403     Delta-E=       -0.059653567458 Rises=F Damp=F
 DIIS: error= 3.06D-03 at cycle   3 NSaved=   3.
 NSaved= 3 IEnMin= 3 EnMin= -76.4473380070403     IErMin= 3 ErrMin= 3.06D-03
 ErrMax= 3.06D-03  0.00D+00 EMaxC= 1.00D-01 BMatC= 1.98D-04 BMatP= 8.17D-03
 IDIUse=3 WtCom= 9.69D-01 WtEn= 3.06D-02
 Coeff-Com:  0.362D-01 0.789D-02 0.956D+00
 Coeff-En:   0.000D+00 0.000D+00 0.100D+01
 Coeff:      0.351D-01 0.765D-02 0.957D+00
 Gap=     0.328 Goal=   None    Shift=    0.000
 RMSDP=2.36D-04 MaxDP=3.58D-03 DE=-5.97D-02 OVMax= 2.68D-03

 Cycle   4  Pass 0  IDiag  1:
 E= -76.4474492001701     Delta-E=       -0.000111193130 Rises=F Damp=F
 DIIS: error= 3.87D-04 at cycle   4 NSaved=   4.
 NSaved= 4 IEnMin= 4 EnMin= -76.4474492001701     IErMin= 4 ErrMin= 3.87D-04
 ErrMax= 3.87D-04  0.00D+00 EMaxC= 1.00D-01 BMatC= 2.98D-06 BMatP= 1.98D-04
 IDIUse=3 WtCom= 9.96D-01 WtEn= 3.87D-03
 Coeff-Com:  0.544D-02-0.163D-01 0.205D+00 0.806D+00
 Coeff-En:   0.000D+00 0.000D+00 0.000D+00 0.100D+01
 Coeff:      0.542D-02-0.163D-01 0.204D+00 0.807D+00
 Gap=     0.328 Goal=   None    Shift=    0.000
 RMSDP=2.46D-05 MaxDP=2.51D-04 DE=-1.11D-04 OVMax= 2.98D-04

 Cycle   5  Pass 0  IDiag  1:
 E= -76.4474508375427     Delta-E=       -0.000001637373 Rises=F Damp=F
 DIIS: error= 8.60D-05 at cycle   5 NSaved=   5.
 NSaved= 5 IEnMin= 5 EnMin= -76.4474508375427     IErMin= 5 ErrMin= 8.60D-05
 ErrMax= 8.60D-05  0.00D+00 EMaxC= 1.00D-01 BMatC= 1.39D-07 BMatP= 2.98D-06
 IDIUse=1 WtCom= 1.00D+00 WtEn= 0.00D+00
 Coeff-Com:  0.107D-02-0.252D-02 0.164D-01 0.658D-01 0.919D+00
 Coeff:      0.107D-02-0.252D-02 0.164D-01 0.658D-01 0.919D+00
 Gap=     0.328 Goal=   None    Shift=    0.000
 RMSDP=6.66D-06 MaxDP=7.77D-05 DE=-1.64D-06 OVMax= 8.81D-05

 Initial convergence to 1.0D-05 achieved.  Increase integral accuracy.
 Cycle   6  Pass 1  IDiag  1:
 E= -76.4474479919449     Delta-E=        0.000002845598 Rises=F Damp=F
 DIIS: error= 3.94D-06 at cycle   1 NSaved=   1.
 NSaved= 1 IEnMin= 1 EnMin= -76.4474479919449     IErMin= 1 ErrMin= 3.94D-06
 ErrMax= 3.94D-06  0.00D+00 EMaxC= 1.00D-01 BMatC= 3.56D-10 BMatP= 3.56D-10
 IDIUse=1 WtCom= 1.00D+00 WtEn= 0.00D+00
 Coeff-Com:  0.100D+01
 Coeff:      0.100D+01
 Gap=     0.328 Goal=   None    Shift=    0.000
 RMSDP=6.66D-06 MaxDP=7.77D-05 DE= 2.85D-06 OVMax= 6.10D-06

 Cycle   7  Pass 1  IDiag  1:
 E= -76.4474479920555     Delta-E=       -0.000000000111 Rises=F Damp=F
 DIIS: error= 2.40D-06 at cycle   2 NSaved=   2.
 NSaved= 2 IEnMin= 2 EnMin= -76.4474479920555     IErMin= 2 ErrMin= 2.40D-06
 ErrMax= 2.40D-06  0.00D+00 EMaxC= 1.00D-01 BMatC= 9.19D-11 BMatP= 3.56D-10
 IDIUse=1 WtCom= 1.00D+00 WtEn= 0.00D+00
 Coeff-Com:  0.276D+00 0.724D+00
 Coeff:      0.276D+00 0.724D+00
 Gap=     0.328 Goal=   None    Shift=    0.000
 RMSDP=2.51D-07 MaxDP=2.72D-06 DE=-1.11D-10 OVMax= 3.61D-06

 Cycle   8  Pass 1  IDiag  1:
 E= -76.4474479920814     Delta-E=       -0.000000000026 Rises=F Damp=F
 DIIS: error= 1.72D-06 at cycle   3 NSaved=   3.
 NSaved= 3 IEnMin= 3 EnMin= -76.4474479920814     IErMin= 3 ErrMin= 1.72D-06
 ErrMax= 1.72D-06  0.00D+00 EMaxC= 1.00D-01 BMatC= 5.13D-11 BMatP= 9.19D-11
 IDIUse=1 WtCom= 1.00D+00 WtEn= 0.00D+00
 Coeff-Com:  0.181D-01 0.426D+00 0.556D+00
 Coeff:      0.181D-01 0.426D+00 0.556D+00
 Gap=     0.328 Goal=   None    Shift=    0.000
 RMSDP=1.15D-07 MaxDP=1.32D-06 DE=-2.59D-11 OVMax= 1.74D-06

 Cycle   9  Pass 1  IDiag  1:
 E= -76.4474479921135     Delta-E=       -0.000000000032 Rises=F Damp=F
 DIIS: error= 1.21D-07 at cycle   4 NSaved=   4.
 NSaved= 4 IEnMin= 4 EnMin= -76.4474479921135     IErMin= 4 ErrMin= 1.21D-07
 ErrMax= 1.21D-07  0.00D+00 EMaxC= 1.00D-01 BMatC= 2.38D-13 BMatP= 5.13D-11
 IDIUse=1 WtCom= 1.00D+00 WtEn= 0.00D+00
 Coeff-Com: -0.448D-02 0.919D-01 0.150D+00 0.762D+00
 Coeff:     -0.448D-02 0.919D-01 0.150D+00 0.762D+00
 Gap=     0.328 Goal=   None    Shift=    0.000
 RMSDP=9.72D-09 MaxDP=1.22D-07 DE=-3.21D-11 OVMax= 1.32D-07

 SCF Done:  E(RB3LYP) =  -76.4474479921     A.U. after    9 cycles
            NFock=  9  Conv=0.97D-08     -V/T= 2.0017
 KE= 7.631959989497D+01 PE=-1.994712017358D+02 EE= 3.755346354165D+01
 Leave Link  502 at Fri Jul 17 18:04:33 2020, MaxMem=  8589934592 cpu:        63.5
 (Enter /usr/local/Cluster-Apps/gaussian/g09/l801.exe)
 DoSCS=F DFT=T ScalE2(SS,OS)=  1.000000  1.000000
 Range of M.O.s used for correlation:     1    30
 NBasis=    30 NAE=     5 NBE=     5 NFC=     0 NFV=     0
 NROrb=     30 NOA=     5 NOB=     5 NVA=    25 NVB=    25
 Leave Link  801 at Fri Jul 17 18:04:33 2020, MaxMem=  8589934592 cpu:         0.3
 (Enter /usr/local/Cluster-Apps/gaussian/g09/l1101.exe)
 Using compressed storage, NAtomX=     3.
 Will process      4 centers per pass.
 Leave Link 1101 at Fri Jul 17 18:04:34 2020, MaxMem=  8589934592 cpu:        10.9
 (Enter /usr/local/Cluster-Apps/gaussian/g09/l1102.exe)
 Symmetrizing basis deriv contribution to polar:
 IMax=3 JMax=2 DiffMx= 0.00D+00
 Leave Link 1102 at Fri Jul 17 18:04:34 2020, MaxMem=  8589934592 cpu:         1.5
 (Enter /usr/local/Cluster-Apps/gaussian/g09/l1110.exe)
 Forming Gx(P) for the SCF density, NAtomX=     3.
 Integral derivatives from FoFJK, PRISM(SPDF).
 Do as many integral derivatives as possible in FoFJK.
 G2DrvN: MDV=    8589934464.
 G2DrvN: will do     4 centers at a time, making    1 passes.
 Calling FoFCou, ICntrl=  3107 FMM=F I1Cent=   0 AccDes= 0.00D+00.
 FoFJK:  IHMeth= 1 ICntrl=    3107 DoSepK=F KAlg= 0 I1Cent=   0 FoldK=F
 IRaf=         0 NMat=   1 IRICut=       1 DoRegI=T DoRafI=F ISym2E= 1.
 FoFCou: FMM=F IPFlag=           0 FMFlag=      100000 FMFlg1=           0
         NFxFlg=           0 DoJE=F BraDBF=F KetDBF=F FulRan=T
         wScrn=  0.000000 ICntrl=    3107 IOpCl=  0 I1Cent=           0 NGrid=           0
         NMat0=    1 NMatS0=      1 NMatT0=    0 NMatD0=    1 NMtDS0=    0 NMtDT0=    0
 Petite list used in FoFCou.
 End of G2Drv F.D. properties file   721 does not exist.
 End of G2Drv F.D. properties file   722 does not exist.
 End of G2Drv F.D. properties file   788 does not exist.
 Leave Link 1110 at Fri Jul 17 18:04:35 2020, MaxMem=  8589934592 cpu:        12.6
 (Enter /usr/local/Cluster-Apps/gaussian/g09/l1002.exe)
 Minotr:  Closed shell wavefunction.
          IDoAtm=111
          Direct CPHF calculation.
          Differentiating once with respect to electric field.
                with respect to dipole field.
          Differentiating once with respect to nuclear coordinates.
          Using symmetry in CPHF.
          Requested convergence is 1.0D-08 RMS, and 1.0D-07 maximum.
          Secondary convergence is 1.0D-12 RMS, and 1.0D-12 maximum.
          NewPWx=T KeepS1=F KeepF1=F KeepIn=T MapXYZ=F SortEE=F KeepMc=T.
          MDV=    8589934528 using IRadAn=       2.
 Generate precomputed XC quadrature information.
 Keep R1 ints in memory in symmetry-blocked form, NReq=969676.
 FoFCou: FMM=F IPFlag=           0 FMFlag=           0 FMFlg1=           0
         NFxFlg=           0 DoJE=F BraDBF=F KetDBF=F FulRan=T
         wScrn=  0.000000 ICntrl=     600 IOpCl=  0 I1Cent=           0 NGrid=           0
         NMat0=    1 NMatS0=    465 NMatT0=    0 NMatD0=    1 NMtDS0=    0 NMtDT0=    0
 Petite list used in FoFCou.
          Solving linear equations simultaneously, MaxMat=       0.
          There are     9 degrees of freedom in the 1st order CPHF.  IDoFFX=4 NUNeed=     9.
      9 vectors produced by pass  0 Test12= 1.39D-15 1.11D-08 XBig12= 3.45D+00 1.26D+00.
 AX will form     9 AO Fock derivatives at one time.
      9 vectors produced by pass  1 Test12= 1.39D-15 1.11D-08 XBig12= 4.35D-01 3.26D-01.
      9 vectors produced by pass  2 Test12= 1.39D-15 1.11D-08 XBig12= 4.72D-03 2.84D-02.
      9 vectors produced by pass  3 Test12= 1.39D-15 1.11D-08 XBig12= 8.88D-06 1.07D-03.
      9 vectors produced by pass  4 Test12= 1.39D-15 1.11D-08 XBig12= 2.38D-08 6.28D-05.
      4 vectors produced by pass  5 Test12= 1.39D-15 1.11D-08 XBig12= 2.36D-11 1.97D-06.
      1 vectors produced by pass  6 Test12= 1.39D-15 1.11D-08 XBig12= 5.12D-15 3.18D-08.
 InvSVY:  IOpt=1 It=  1 EMax= 6.66D-16
 Solved reduced A of dimension    50 with     9 vectors.
 FullF1:  Do perturbations    1 to     9.
 Isotropic polarizability for W=    0.000000        5.92 Bohr**3.
 End of Minotr F.D. properties file   721 does not exist.
 End of Minotr F.D. properties file   722 does not exist.
 End of Minotr F.D. properties file   788 does not exist.
 Leave Link 1002 at Fri Jul 17 18:04:40 2020, MaxMem=  8589934592 cpu:        85.5
 (Enter /usr/local/Cluster-Apps/gaussian/g09/l601.exe)
 Copying SCF densities to generalized density rwf, IOpCl= 0 IROHF=0.

 **********************************************************************

            Population analysis using the SCF density.

 **********************************************************************

 Orbital symmetries:
       Occupied  (A1) (A1) (B2) (A1) (B1)
       Virtual   (A1) (B2) (B2) (A1) (A1) (B1) (B2) (A1) (A1) (A2)
                 (B1) (B2) (B2) (A1) (A1) (B2) (B1) (A2) (A1) (A1)
                 (B2) (B1) (A1) (B2) (A1)
 The electronic state is 1-A1.
 Alpha  occ. eigenvalues --  -19.10270  -1.00265  -0.52152  -0.37654  -0.29943
 Alpha virt. eigenvalues --    0.02861   0.10392   0.37816   0.42399   0.75997
 Alpha virt. eigenvalues --    0.76423   0.86215   1.06658   1.23938   1.26846
 Alpha virt. eigenvalues --    1.45879   1.65893   1.92072   2.05071   2.28819
 Alpha virt. eigenvalues --    2.47968   3.11254   3.15446   3.31972   3.58924
 Alpha virt. eigenvalues --    3.82257   4.76463   5.18715   5.60532  49.84211
          Condensed to atoms (all electrons):
               1          2          3
     1  H    0.490304  -0.037315   0.310298
     2  H   -0.037315   0.490304   0.310298
     3  O    0.310298   0.310298   7.852829
 Mulliken charges:
               1
     1  H    0.236713
     2  H    0.236713
     3  O   -0.473425
 Sum of Mulliken charges =   0.00000
 Mulliken charges with hydrogens summed into heavy atoms:
               1
     3  O    0.000000
 APT charges:
               1
     1  H    0.244409
     2  H    0.244409
     3  O   -0.488817
 Sum of APT charges =   0.00000
 APT charges with hydrogens summed into heavy atoms:
               1
     3  O    0.000000
 Electronic spatial extent (au):  <R**2>=             19.1828
 Charge=              0.0000 electrons
 Dipole moment (field-independent basis, Debye):
    X=              0.0000    Y=              0.0000    Z=             -2.0704  Tot=              2.0704
 Quadrupole moment (field-independent basis, Debye-Ang):
   XX=             -7.2002   YY=             -4.3297   ZZ=             -6.0583
   XY=              0.0000   XZ=              0.0000   YZ=              0.0000
 Traceless Quadrupole moment (field-independent basis, Debye-Ang):
   XX=             -1.3374   YY=              1.5330   ZZ=             -0.1956
   XY=              0.0000   XZ=              0.0000   YZ=              0.0000
 Octapole moment (field-independent basis, Debye-Ang**2):
  XXX=              0.0000  YYY=              0.0000  ZZZ=             -1.1858  XYY=              0.0000
  XXY=              0.0000  XXZ=             -0.3129  XZZ=              0.0000  YZZ=              0.0000
  YYZ=             -1.2140  XYZ=              0.0000
 Hexadecapole moment (field-independent basis, Debye-Ang**3):
 XXXX=             -5.3103 YYYY=             -6.1937 ZZZZ=             -6.4057 XXXY=              0.0000
 XXXZ=              0.0000 YYYX=              0.0000 YYYZ=              0.0000 ZZZX=              0.0000
 ZZZY=              0.0000 XXYY=             -2.1890 XXZZ=             -2.0081 YYZZ=             -1.7666
 XXYZ=              0.0000 YYXZ=              0.0000 ZZXY=              0.0000
 N-N= 9.150690307109D+00 E-N=-1.994712003352D+02  KE= 7.631959989497D+01
 Symmetry A1   KE= 6.803033646309D+01
 Symmetry A2   KE= 1.030992577347D-35
 Symmetry B1   KE= 4.668129303401D+00
 Symmetry B2   KE= 3.621134128484D+00
  Exact polarizability:   4.055   0.000   7.749   0.000   0.000   5.950
 Approx polarizability:   4.314   0.000   9.538   0.000   0.000   7.300
 No NMR shielding tensors so no spin-rotation constants.
 Leave Link  601 at Fri Jul 17 18:04:41 2020, MaxMem=  8589934592 cpu:        12.4
 (Enter /usr/local/Cluster-Apps/gaussian/g09/l701.exe)
 Compute integral second derivatives.
 ... and contract with generalized density number  0.
 Leave Link  701 at Fri Jul 17 18:04:42 2020, MaxMem=  8589934592 cpu:         8.2
 (Enter /usr/local/Cluster-Apps/gaussian/g09/l702.exe)
 L702 exits ... SP integral derivatives will be done elsewhere.
 Leave Link  702 at Fri Jul 17 18:04:42 2020, MaxMem=  8589934592 cpu:         0.3
 (Enter /usr/local/Cluster-Apps/gaussian/g09/l703.exe)
 Compute integral second derivatives, UseDBF=F ICtDFT=           0.
 Integral derivatives from FoFJK, PRISM(SPDF).
 Calling FoFJK, ICntrl=    100127 FMM=F ISym2X=1 I1Cent= 0 IOpClX= 0 NMat=1 NMatS=1 NMatT=0.
 FoFJK:  IHMeth= 1 ICntrl=  100127 DoSepK=F KAlg= 0 I1Cent=   0 FoldK=F
 IRaf=         0 NMat=   1 IRICut=       1 DoRegI=T DoRafI=F ISym2E= 1.
 FoFCou: FMM=F IPFlag=           0 FMFlag=      100000 FMFlg1=         800
         NFxFlg=           0 DoJE=F BraDBF=F KetDBF=F FulRan=T
         wScrn=  0.000000 ICntrl=  100127 IOpCl=  0 I1Cent=           0 NGrid=           0
         NMat0=    1 NMatS0=      1 NMatT0=    0 NMatD0=    1 NMtDS0=    0 NMtDT0=    0
 Petite list used in FoFCou.
 Leave Link  703 at Fri Jul 17 18:04:43 2020, MaxMem=  8589934592 cpu:        13.5
 (Enter /usr/local/Cluster-Apps/gaussian/g09/l716.exe)
 Dipole        =-4.01109683D-17 4.85722573D-17-8.14558437D-01
 Polarizability= 4.05489070D+00 1.58356303D-10 7.74913660D+00
                 1.85888492D-10 3.62709719D-09 5.94957502D+00
 Full mass-weighted force constant matrix:
 Low frequencies ---  -48.7179  -16.6675   -0.0018   -0.0012   -0.0011   13.0112
 Low frequencies --- 1638.8566 3809.6340 3906.5202
 Diagonal vibrational polarizability:
        0.0000000       0.0439510       0.5879057
 Harmonic frequencies (cm**-1), IR intensities (KM/Mole), Raman scattering
 activities (A**4/AMU), depolarization ratios for plane and unpolarized
 incident light, reduced masses (AMU), force constants (mDyne/A),
 and normal coordinates:
                      1                      2                      3
                     A1                     A1                     B2
 Frequencies --   1638.8566              3809.6340              3906.5202
 Red. masses --      1.0822                 1.0456                 1.0811
 Frc consts  --      1.7126                 8.9406                 9.7211
 IR Inten    --     58.0124                 3.5827                24.9239
  Atom  AN      X      Y      Z        X      Y      Z        X      Y      Z
     1   1     0.00   0.43   0.56     0.00  -0.58   0.40     0.00   0.56  -0.44
     2   1     0.00  -0.43   0.56     0.00   0.58   0.40     0.00   0.56   0.44
     3   8     0.00   0.00  -0.07     0.00   0.00  -0.05     0.00  -0.07   0.00

 -------------------
 - Thermochemistry -
 -------------------
 Temperature   298.150 Kelvin.  Pressure   1.00000 Atm.
 Atom     1 has atomic number  1 and mass   1.00783
 Atom     2 has atomic number  1 and mass   1.00783
 Atom     3 has atomic number  8 and mass  15.99491
 Molecular mass:    18.01056 amu.
 Principal axes and moments of inertia in atomic units:
                           1         2         3
     Eigenvalues --     2.25313   4.12449   6.37762
           X            0.00000   0.00000   1.00000
           Y            1.00000   0.00000   0.00000
           Z            0.00000   1.00000   0.00000
 This molecule is an asymmetric top.
 Rotational symmetry number  2.
 Rotational temperatures (Kelvin)     38.44149    20.99989    13.58089
 Rotational constants (GHZ):         800.99166   437.56716   282.98022
 Zero-point vibrational energy      55955.4 (Joules/Mol)
                                   13.37366 (Kcal/Mol)
 Vibrational temperatures:   2357.95  5481.21  5620.60
          (Kelvin)
 
 Zero-point correction=                           0.021312 (Hartree/Particle)
 Thermal correction to Energy=                    0.024148
 Thermal correction to Enthalpy=                  0.025092
 Thermal correction to Gibbs Free Energy=         0.003665
 Sum of electronic and zero-point Energies=            -76.426136
 Sum of electronic and thermal Energies=               -76.423300
 Sum of electronic and thermal Enthalpies=             -76.422356
 Sum of electronic and thermal Free Energies=          -76.443783
 
                     E (Thermal)             CV                S
                      KCal/Mol        Cal/Mol-Kelvin    Cal/Mol-Kelvin
 Total                   15.153              6.007             45.096
 Electronic               0.000              0.000              0.000
 Translational            0.889              2.981             34.608
 Rotational               0.889              2.981             10.481
 Vibrational             13.375              0.046              0.007
                       Q            Log10(Q)             Ln(Q)
 Total Bot       0.206149D-01         -1.685818         -3.881740
 Total V=0       0.130957D+09          8.117130         18.690383
 Vib (Bot)       0.157475D-09         -9.802789        -22.571756
 Vib (V=0)       0.100037D+01          0.000160          0.000368
 Electronic      0.100000D+01          0.000000          0.000000
 Translational   0.300432D+07          6.477746         14.915562
 Rotational      0.435737D+02          1.639224          3.774454
 
                                                               h2o-freq
                                                             IR Spectrum
 
     3   3                                                                     1                                                     
     9   8                                                                     6                                                     
     0   1                                                                     3                                                     
     7   0                                                                     9                                                     
 
     X   X                                                                     X                                                     
     X                                                                         X                                                     
     X                                                                         X                                                     
     X                                                                         X                                                     
     X                                                                         X                                                     
     X                                                                         X                                                     
     X                                                                         X                                                     
     X                                                                         X                                                     
     X                                                                         X                                                     
                                                                               X                                                     
                                                                               X                                                     
                                                                               X                                                     
                                                                               X                                                     
                                                                               X                                                     
                                                                               X                                                     
                                                                               X                                                     
                                                                               X                                                     
                                                                               X                                                     
                                                                               X                                                     
                                                                               X                                                     
 
 ***** Axes restored to original set *****
 -------------------------------------------------------------------
 Center     Atomic                   Forces (Hartrees/Bohr)
 Number     Number              X              Y              Z
 -------------------------------------------------------------------
      1        1           0.000004446    0.000040316    0.000000000
      2        1          -0.000004446    0.000040316    0.000000000
      3        8           0.000000000   -0.000080631    0.000000000
 -------------------------------------------------------------------
 Cartesian Forces:  Max     0.000080631 RMS     0.000032984
 Z-matrix is all fixed cartesians, so copy forces.
 Force constants in Cartesian coordinates: 
                1             2             3             4             5 
      1  0.366242D+00
      2 -0.232086D+00  0.217288D+00
      3  0.000000D+00  0.000000D+00 -0.499658D-04
      4 -0.320103D-01 -0.301126D-01  0.000000D+00  0.366242D+00
      5  0.301126D-01  0.115872D-01  0.000000D+00  0.232086D+00  0.217288D+00
      6  0.000000D+00  0.000000D+00  0.405561D-04  0.000000D+00  0.000000D+00
      7 -0.334232D+00  0.262199D+00  0.000000D+00 -0.334232D+00 -0.262199D+00
      8  0.201974D+00 -0.228875D+00  0.000000D+00 -0.201974D+00 -0.228875D+00
      9  0.000000D+00  0.000000D+00  0.940967D-05  0.000000D+00  0.000000D+00
                6             7             8             9 
      6 -0.499658D-04
      7  0.000000D+00  0.668464D+00
      8  0.000000D+00  0.000000D+00  0.457750D+00
      9  0.940967D-05  0.000000D+00  0.000000D+00 -0.188193D-04
 Leave Link  716 at Fri Jul 17 18:04:43 2020, MaxMem=  8589934592 cpu:         4.2
 (Enter /usr/local/Cluster-Apps/gaussian/g09/l103.exe)

 GradGradGradGradGradGradGradGradGradGradGradGradGradGradGradGradGradGrad
 Berny optimization.
 Search for a local minimum.
 Step number   1 out of a maximum of    2
 All quantities printed in internal units (Hartrees-Bohrs-Radians)
 Second derivative matrix not updated -- analytic derivatives used.
 The second derivative matrix:
                          X1        Y1        Z1        X2        Y2
           X1           0.36624
           Y1          -0.23209   0.21729
           Z1           0.00000   0.00000  -0.00005
           X2          -0.03201  -0.03011   0.00000   0.36624
           Y2           0.03011   0.01159   0.00000   0.23209   0.21729
           Z2           0.00000   0.00000   0.00004   0.00000   0.00000
           X3          -0.33423   0.26220   0.00000  -0.33423  -0.26220
           Y3           0.20197  -0.22887   0.00000  -0.20197  -0.22887
           Z3           0.00000   0.00000   0.00001   0.00000   0.00000
                          Z2        X3        Y3        Z3
           Z2          -0.00005
           X3           0.00000   0.66846
           Y3           0.00000   0.00000   0.45775
           Z3           0.00001   0.00000   0.00000  -0.00002
 ITU=  0
     Eigenvalues ---    0.15019   0.78165   0.96651
 Angle between quadratic step and forces=  44.02 degrees.
 ClnCor:  largest displacement from symmetrization is 5.53D-14 for atom     2.
 Linear search not attempted -- first point.
 ClnCor:  largest displacement from symmetrization is 9.43D-31 for atom     3.
 TrRot=  0.000000 -0.000085  0.000000  0.000000  0.000000  0.000000
 Variable       Old X    -DE/DX   Delta X   Delta X   Delta X     New X
                                 (Linear)    (Quad)   (Total)
    X1        1.43047   0.00000   0.00000   0.00018   0.00018   1.43065
    Y1       -0.89753   0.00004   0.00000   0.00020   0.00011  -0.89741
    Z1        0.00000   0.00000   0.00000   0.00000   0.00000   0.00000
    X2       -1.43047   0.00000   0.00000  -0.00018  -0.00018  -1.43065
    Y2       -0.89753   0.00004   0.00000   0.00020   0.00011  -0.89741
    Z2        0.00000   0.00000   0.00000   0.00000   0.00000   0.00000
    X3        0.00000   0.00000   0.00000   0.00000   0.00000   0.00000
    Y3        0.22439  -0.00008   0.00000  -0.00014  -0.00022   0.22416
    Z3        0.00000   0.00000   0.00000   0.00000   0.00000   0.00000
         Item               Value     Threshold  Converged?
 Maximum Force            0.000081     0.000450     YES
 RMS     Force            0.000033     0.000300     YES
 Maximum Displacement     0.000224     0.001800     YES
 RMS     Displacement     0.000125     0.001200     YES
 Predicted change in Energy=-1.438197D-08
 Optimization completed.
    -- Stationary point found.
 GradGradGradGradGradGradGradGradGradGradGradGradGradGradGradGradGradGrad

 Leave Link  103 at Fri Jul 17 18:04:44 2020, MaxMem=  8589934592 cpu:         7.1
 (Enter /usr/local/Cluster-Apps/gaussian/g09/l9999.exe)
 1\1\GINC-CPU-G-25\Freq\RB3LYP\6-311G(d,p)\H2O1\AM2145\17-Jul-2020\0\\#
 p B3LYP/6-311G(d,p) Freq\\h2o-freq\\0,1\H,0.75697,-0.47495,0.\H,-0.756
 97,-0.47495,0.\O,0.,0.11874,0.\\Version=ES64L-G09RevD.01\State=1-A1\HF
 =-76.447448\RMSD=9.721e-09\RMSF=3.298e-05\ZeroPoint=0.0213123\Thermal=
 0.0241476\Dipole=0.,-0.8145584,0.\DipoleDeriv=0.2142663,0.0667497,0.,0
 .1166612,0.1559432,0.,0.,0.,0.3630162,0.2142663,-0.0667497,0.,-0.11666
 12,0.1559432,0.,0.,0.,0.3630162,-0.4285326,0.,0.,0.,-0.3118864,0.,0.,0
 .,-0.7260324\Polar=7.7491366,0.,5.949575,0.,0.,4.0548907\PG=C02V [C2(O
 1),SGV(H2)]\NImag=0\\0.36624235,-0.23208640,0.21728758,0.,0.,-0.000049
 97,-0.03201032,-0.03011258,0.,0.36624235,0.03011258,0.01158723,0.,0.23
 208640,0.21728758,0.,0.,0.00004056,0.,0.,-0.00004997,-0.33423203,0.262
 19898,0.,-0.33423203,-0.26219898,0.,0.66846405,0.20197382,-0.22887481,
 0.,-0.20197382,-0.22887481,0.,0.,0.45774961,0.,0.,0.00000941,0.,0.,0.0
 0000941,0.,0.,-0.00001882\\-0.00000445,-0.00004032,0.,0.00000445,-0.00
 004032,0.,0.,0.00008063,0.\\\@


 When I told the people of Northern Ireland that I was
 an atheist, a woman in the audience stood up and said,
 "Yes, but is it the God of the Catholics or the God
 of the Protestants in whom you don't believe?"
                               -- Quentin Crisp
 Job cpu time:       0 days  0 hours  4 minutes 32.7 seconds.
 File lengths (MBytes):  RWF=      5 Int=      0 D2E=      0 Chk=      1 Scr=      1
 Normal termination of Gaussian 09 at Fri Jul 17 18:04:44 2020.
