 Entering Gaussian System, Link 0=g09
 Initial command:
 /usr/local/Cluster-Apps/gaussian/g09/l1.exe "/rds/user/am2145/hpc-work/scratch/26066485/Gau-18093.inp" -scrdir="/rds/user/am2145/hpc-work/scratch/26066485/"
 Entering Link 1 = /usr/local/Cluster-Apps/gaussian/g09/l1.exe PID=     18094.
  
 Copyright (c) 1988,1990,1992,1993,1995,1998,2003,2009,2013,
            Gaussian, Inc.  All Rights Reserved.
  
 This is part of the Gaussian(R) 09 program.  It is based on
 the Gaussian(R) 03 system (copyright 2003, Gaussian, Inc.),
 the Gaussian(R) 98 system (copyright 1998, Gaussian, Inc.),
 the Gaussian(R) 94 system (copyright 1995, Gaussian, Inc.),
 the Gaussian 92(TM) system (copyright 1992, Gaussian, Inc.),
 the Gaussian 90(TM) system (copyright 1990, Gaussian, Inc.),
 the Gaussian 88(TM) system (copyright 1988, Gaussian, Inc.),
 the Gaussian 86(TM) system (copyright 1986, Carnegie Mellon
 University), and the Gaussian 82(TM) system (copyright 1983,
 Carnegie Mellon University). Gaussian is a federally registered
 trademark of Gaussian, Inc.
  
 This software contains proprietary and confidential information,
 including trade secrets, belonging to Gaussian, Inc.
  
 This software is provided under written license and may be
 used, copied, transmitted, or stored only in accord with that
 written license.
  
 The following legend is applicable only to US Government
 contracts under FAR:
  
                    RESTRICTED RIGHTS LEGEND
  
 Use, reproduction and disclosure by the US Government is
 subject to restrictions as set forth in subparagraphs (a)
 and (c) of the Commercial Computer Software - Restricted
 Rights clause in FAR 52.227-19.
  
 Gaussian, Inc.
 340 Quinnipiac St., Bldg. 40, Wallingford CT 06492
  
  
 ---------------------------------------------------------------
 Warning -- This program may not be used in any manner that
 competes with the business of Gaussian, Inc. or will provide
 assistance to any competitor of Gaussian, Inc.  The licensee
 of this program is prohibited from giving any competitor of
 Gaussian, Inc. access to this program.  By using this program,
 the user acknowledges that Gaussian, Inc. is engaged in the
 business of creating and licensing software in the field of
 computational chemistry and represents and warrants to the
 licensee that it is not a competitor of Gaussian, Inc. and that
 it will not use this program in any manner prohibited above.
 ---------------------------------------------------------------
  

 Cite this work as:
 Gaussian 09, Revision D.01,
 M. J. Frisch, G. W. Trucks, H. B. Schlegel, G. E. Scuseria, 
 M. A. Robb, J. R. Cheeseman, G. Scalmani, V. Barone, B. Mennucci, 
 G. A. Petersson, H. Nakatsuji, M. Caricato, X. Li, H. P. Hratchian, 
 A. F. Izmaylov, J. Bloino, G. Zheng, J. L. Sonnenberg, M. Hada, 
 M. Ehara, K. Toyota, R. Fukuda, J. Hasegawa, M. Ishida, T. Nakajima, 
 Y. Honda, O. Kitao, H. Nakai, T. Vreven, J. A. Montgomery, Jr., 
 J. E. Peralta, F. Ogliaro, M. Bearpark, J. J. Heyd, E. Brothers, 
 K. N. Kudin, V. N. Staroverov, T. Keith, R. Kobayashi, J. Normand, 
 K. Raghavachari, A. Rendell, J. C. Burant, S. S. Iyengar, J. Tomasi, 
 M. Cossi, N. Rega, J. M. Millam, M. Klene, J. E. Knox, J. B. Cross, 
 V. Bakken, C. Adamo, J. Jaramillo, R. Gomperts, R. E. Stratmann, 
 O. Yazyev, A. J. Austin, R. Cammi, C. Pomelli, J. W. Ochterski, 
 R. L. Martin, K. Morokuma, V. G. Zakrzewski, G. A. Voth, 
 P. Salvador, J. J. Dannenberg, S. Dapprich, A. D. Daniels, 
 O. Farkas, J. B. Foresman, J. V. Ortiz, J. Cioslowski, 
 and D. J. Fox, Gaussian, Inc., Wallingford CT, 2013.
 
 ******************************************
 Gaussian 09:  ES64L-G09RevD.01 24-Apr-2013
                17-Jul-2020 
 ******************************************
 %NProcShared=20
 Will use up to   20 processors via shared memory.
 %mem=64GB
 %Chk=h2o.chk
 ------------------------
 #p B3LYP/6-311G(d,p) Opt
 ------------------------
 1/14=-1,18=20,19=15,26=3,38=1/1,3;
 2/9=110,12=2,17=6,18=5,40=1/2;
 3/5=4,6=6,7=101,11=2,16=1,25=1,30=1,71=1,74=-5/1,2,3;
 4//1;
 5/5=2,38=5/2;
 6/7=2,8=2,9=2,10=2,28=1/1;
 7//1,2,3,16;
 1/14=-1,18=20,19=15,26=3/3(2);
 2/9=110/2;
 99//99;
 2/9=110/2;
 3/5=4,6=6,7=101,11=2,16=1,25=1,30=1,71=1,74=-5/1,2,3;
 4/5=5,16=3,69=1/1;
 5/5=2,38=5/2;
 7//1,2,3,16;
 1/14=-1,18=20,19=15,26=3/3(-5);
 2/9=110/2;
 6/7=2,8=2,9=2,10=2,19=2,28=1/1;
 99/9=1/99;
 Leave Link    1 at Fri Jul 17 17:49:54 2020, MaxMem=  8589934592 cpu:         2.5
 (Enter /usr/local/Cluster-Apps/gaussian/g09/l101.exe)
 ---
 h2o
 ---
 Symbolic Z-matrix:
 Charge =  0 Multiplicity = 1
 H                    -1.17202  -0.84173   0. 
 H                     0.35481  -0.85923   0. 
 O                    -0.40177  -0.25379   0. 
 
 NAtoms=      3 NQM=        3 NQMF=       0 NMMI=      0 NMMIF=      0
                NMic=       0 NMicF=      0.
                    Isotopes and Nuclear Properties:
 (Nuclear quadrupole moments (NQMom) in fm**2, nuclear magnetic moments (NMagM)
  in nuclear magnetons)

  Atom         1           2           3
 IAtWgt=           1           1          16
 AtmWgt=   1.0078250   1.0078250  15.9949146
 NucSpn=           1           1           0
 AtZEff=   0.0000000   0.0000000   0.0000000
 NQMom=    0.0000000   0.0000000   0.0000000
 NMagM=    2.7928460   2.7928460   0.0000000
 AtZNuc=   1.0000000   1.0000000   8.0000000
 Leave Link  101 at Fri Jul 17 17:49:54 2020, MaxMem=  8589934592 cpu:        10.0
 (Enter /usr/local/Cluster-Apps/gaussian/g09/l103.exe)

 GradGradGradGradGradGradGradGradGradGradGradGradGradGradGradGradGradGrad
 Berny optimization.
 Initialization pass.
                           ----------------------------
                           !    Initial Parameters    !
                           ! (Angstroms and Degrees)  !
 --------------------------                            --------------------------
 ! Name  Definition              Value          Derivative Info.                !
 --------------------------------------------------------------------------------
 ! R1    R(1,3)                  0.969          estimate D2E/DX2                !
 ! R2    R(2,3)                  0.969          estimate D2E/DX2                !
 ! A1    A(1,3,2)              103.9772         estimate D2E/DX2                !
 --------------------------------------------------------------------------------
 Trust Radius=3.00D-01 FncErr=1.00D-07 GrdErr=1.00D-06
 Number of steps in this run=     20 maximum allowed number of steps=    100.
 GradGradGradGradGradGradGradGradGradGradGradGradGradGradGradGradGradGrad

 Leave Link  103 at Fri Jul 17 17:49:54 2020, MaxMem=  8589934592 cpu:         0.2
 (Enter /usr/local/Cluster-Apps/gaussian/g09/l202.exe)
                          Input orientation:                          
 ---------------------------------------------------------------------
 Center     Atomic      Atomic             Coordinates (Angstroms)
 Number     Number       Type             X           Y           Z
 ---------------------------------------------------------------------
      1          1           0       -1.172020   -0.841730    0.000000
      2          1           0        0.354810   -0.859230    0.000000
      3          8           0       -0.401770   -0.253790    0.000000
 ---------------------------------------------------------------------
                    Distance matrix (angstroms):
                    1          2          3
     1  H    0.000000
     2  H    1.526930   0.000000
     3  O    0.968999   0.969005   0.000000
 Stoichiometry    H2O
 Framework group  CS[SG(H2O)]
 Deg. of freedom     3
 Full point group                 CS      NOp   2
 Largest Abelian subgroup         CS      NOp   2
 Largest concise Abelian subgroup C1      NOp   1
                         Standard orientation:                         
 ---------------------------------------------------------------------
 Center     Atomic      Atomic             Coordinates (Angstroms)
 Number     Number       Type             X           Y           Z
 ---------------------------------------------------------------------
      1          1           0        0.763465   -0.477378    0.000000
      2          1           0       -0.763465   -0.477389    0.000000
      3          8           0        0.000000    0.119346    0.000000
 ---------------------------------------------------------------------
 Rotational constants (GHZ):    792.8535224    430.1536674    278.8608711
 Leave Link  202 at Fri Jul 17 17:49:55 2020, MaxMem=  8589934592 cpu:         0.8
 (Enter /usr/local/Cluster-Apps/gaussian/g09/l301.exe)
 Standard basis: 6-311G(d,p) (5D, 7F)
 Ernie: Thresh=  0.10000D-02 Tol=  0.10000D-05 Strict=F.
 There are    24 symmetry adapted cartesian basis functions of A'  symmetry.
 There are     7 symmetry adapted cartesian basis functions of A"  symmetry.
 There are    23 symmetry adapted basis functions of A'  symmetry.
 There are     7 symmetry adapted basis functions of A"  symmetry.
    30 basis functions,    48 primitive gaussians,    31 cartesian basis functions
     5 alpha electrons        5 beta electrons
       nuclear repulsion energy         9.0842497427 Hartrees.
 IExCor=  402 DFT=T Ex+Corr=B3LYP ExCW=0 ScaHFX=  0.200000
 ScaDFX=  0.800000  0.720000  1.000000  0.810000 ScalE2=  1.000000  1.000000
 IRadAn=      0 IRanWt=     -1 IRanGd=            0 ICorTp=0 IEmpDi=  4
 NAtoms=    3 NActive=    3 NUniq=    3 SFac= 1.00D+00 NAtFMM=   60 NAOKFM=F Big=F
 Integral buffers will be    131072 words long.
 Raffenetti 2 integral format.
 Two-electron integral symmetry is turned on.
 Leave Link  301 at Fri Jul 17 17:49:55 2020, MaxMem=  8589934592 cpu:         0.9
 (Enter /usr/local/Cluster-Apps/gaussian/g09/l302.exe)
 NPDir=0 NMtPBC=     1 NCelOv=     1 NCel=       1 NClECP=     1 NCelD=      1
         NCelK=      1 NCelE2=     1 NClLst=     1 CellRange=     0.0.
 One-electron integrals computed using PRISM.
 NBasis=    30 RedAO= T EigKep=  2.64D-02  NBF=    23     7
 NBsUse=    30 1.00D-06 EigRej= -1.00D+00 NBFU=    23     7
 Precomputing XC quadrature grid using
 IXCGrd= 4 IRadAn=           0 IRanWt=          -1 IRanGd=           0 AccXCQ= 0.00D+00.
 Generated NRdTot=       0 NPtTot=           0 NUsed=           0 NTot=          32
 NSgBfM=    31    31    31    31    31 MxSgAt=     3 MxSgA2=     3.
 Leave Link  302 at Fri Jul 17 17:49:55 2020, MaxMem=  8589934592 cpu:         7.4
 (Enter /usr/local/Cluster-Apps/gaussian/g09/l303.exe)
 DipDrv:  MaxL=1.
 Leave Link  303 at Fri Jul 17 17:49:56 2020, MaxMem=  8589934592 cpu:         3.1
 (Enter /usr/local/Cluster-Apps/gaussian/g09/l401.exe)
 ExpMin= 1.03D-01 ExpMax= 8.59D+03 ExpMxC= 1.30D+03 IAcc=1 IRadAn=         1 AccDes= 0.00D+00
 Harris functional with IExCor=  402 and IRadAn=       1 diagonalized for initial guess.
 HarFok:  IExCor=  402 AccDes= 0.00D+00 IRadAn=         1 IDoV= 1 UseB2=F ITyADJ=14
 ICtDFT=  3500011 ScaDFX=  1.000000  1.000000  1.000000  1.000000
 FoFCou: FMM=F IPFlag=           0 FMFlag=      100000 FMFlg1=           0
         NFxFlg=           0 DoJE=T BraDBF=F KetDBF=T FulRan=T
         wScrn=  0.000000 ICntrl=     500 IOpCl=  0 I1Cent=   200000004 NGrid=           0
         NMat0=    1 NMatS0=      1 NMatT0=    0 NMatD0=    1 NMtDS0=    0 NMtDT0=    0
 Petite list used in FoFCou.
 Harris En= -76.4889537797949    
 JPrj=0 DoOrth=F DoCkMO=F.
 Initial guess orbital symmetries:
       Occupied  (A') (A') (A') (A') (A")
       Virtual   (A') (A') (A') (A') (A') (A") (A') (A') (A') (A")
                 (A") (A') (A') (A') (A') (A') (A") (A") (A') (A')
                 (A') (A") (A') (A') (A')
 The electronic state of the initial guess is 1-A'.
 Leave Link  401 at Fri Jul 17 17:49:57 2020, MaxMem=  8589934592 cpu:        15.0
 (Enter /usr/local/Cluster-Apps/gaussian/g09/l502.exe)
 Closed shell SCF:
 Using DIIS extrapolation, IDIIS=  1040.
 Integral symmetry usage will be decided dynamically.
 Keep R1 ints in memory in symmetry-blocked form, NReq=991954.
 IVT=       22305 IEndB=       22305 NGot=  8589934592 MDV=  8589851567
 LenX=  8589851567 LenY=  8589850165
 Requested convergence on RMS density matrix=1.00D-08 within 128 cycles.
 Requested convergence on MAX density matrix=1.00D-06.
 Requested convergence on             energy=1.00D-06.
 No special actions if energy rises.
 FoFCou: FMM=F IPFlag=           0 FMFlag=           0 FMFlg1=           0
         NFxFlg=           0 DoJE=F BraDBF=F KetDBF=F FulRan=T
         wScrn=  0.000000 ICntrl=     600 IOpCl=  0 I1Cent=           0 NGrid=           0
         NMat0=    1 NMatS0=    465 NMatT0=    0 NMatD0=    1 NMtDS0=    0 NMtDT0=    0
 Petite list used in FoFCou.
 Integral accuracy reduced to 1.0D-05 until final iterations.

 Cycle   1  Pass 0  IDiag  1:
 E= -76.3603304922516    
 DIIS: error= 8.40D-02 at cycle   1 NSaved=   1.
 NSaved= 1 IEnMin= 1 EnMin= -76.3603304922516     IErMin= 1 ErrMin= 8.40D-02
 ErrMax= 8.40D-02  0.00D+00 EMaxC= 1.00D-01 BMatC= 1.34D-01 BMatP= 1.34D-01
 IDIUse=3 WtCom= 1.60D-01 WtEn= 8.40D-01
 Coeff-Com:  0.100D+01
 Coeff-En:   0.100D+01
 Coeff:      0.100D+01
 Gap=     0.167 Goal=   None    Shift=    0.000
 GapD=    0.167 DampG=1.000 DampE=0.500 DampFc=0.5000 IDamp=-1.
 Damping current iteration by 5.00D-01
 RMSDP=1.49D-02 MaxDP=1.83D-01              OVMax= 2.13D-01

 Cycle   2  Pass 0  IDiag  1:
 E= -76.3875467339554     Delta-E=       -0.027216241704 Rises=F Damp=T
 DIIS: error= 1.82D-02 at cycle   2 NSaved=   2.
 NSaved= 2 IEnMin= 2 EnMin= -76.3875467339554     IErMin= 2 ErrMin= 1.82D-02
 ErrMax= 1.82D-02  0.00D+00 EMaxC= 1.00D-01 BMatC= 8.46D-03 BMatP= 1.34D-01
 IDIUse=3 WtCom= 8.18D-01 WtEn= 1.82D-01
 Coeff-Com:  0.189D+00 0.811D+00
 Coeff-En:   0.329D+00 0.671D+00
 Coeff:      0.215D+00 0.785D+00
 Gap=     0.313 Goal=   None    Shift=    0.000
 RMSDP=2.08D-03 MaxDP=3.41D-02 DE=-2.72D-02 OVMax= 1.23D-01

 Cycle   3  Pass 0  IDiag  1:
 E= -76.4472885877364     Delta-E=       -0.059741853781 Rises=F Damp=F
 DIIS: error= 2.42D-03 at cycle   3 NSaved=   3.
 NSaved= 3 IEnMin= 3 EnMin= -76.4472885877364     IErMin= 3 ErrMin= 2.42D-03
 ErrMax= 2.42D-03  0.00D+00 EMaxC= 1.00D-01 BMatC= 1.19D-04 BMatP= 8.46D-03
 IDIUse=3 WtCom= 9.76D-01 WtEn= 2.42D-02
 Coeff-Com:  0.304D-01 0.229D-01 0.947D+00
 Coeff-En:   0.000D+00 0.000D+00 0.100D+01
 Coeff:      0.296D-01 0.223D-01 0.948D+00
 Gap=     0.326 Goal=   None    Shift=    0.000
 RMSDP=1.92D-04 MaxDP=2.93D-03 DE=-5.97D-02 OVMax= 2.09D-03

 Cycle   4  Pass 0  IDiag  1:
 E= -76.4473536272646     Delta-E=       -0.000065039528 Rises=F Damp=F
 DIIS: error= 4.56D-04 at cycle   4 NSaved=   4.
 NSaved= 4 IEnMin= 4 EnMin= -76.4473536272646     IErMin= 4 ErrMin= 4.56D-04
 ErrMax= 4.56D-04  0.00D+00 EMaxC= 1.00D-01 BMatC= 3.30D-06 BMatP= 1.19D-04
 IDIUse=3 WtCom= 9.95D-01 WtEn= 4.56D-03
 Coeff-Com:  0.410D-02-0.141D-01 0.201D+00 0.809D+00
 Coeff-En:   0.000D+00 0.000D+00 0.000D+00 0.100D+01
 Coeff:      0.408D-02-0.140D-01 0.200D+00 0.810D+00
 Gap=     0.326 Goal=   None    Shift=    0.000
 RMSDP=2.52D-05 MaxDP=2.73D-04 DE=-6.50D-05 OVMax= 3.04D-04

 Cycle   5  Pass 0  IDiag  1:
 E= -76.4473554505327     Delta-E=       -0.000001823268 Rises=F Damp=F
 DIIS: error= 8.51D-05 at cycle   5 NSaved=   5.
 NSaved= 5 IEnMin= 5 EnMin= -76.4473554505327     IErMin= 5 ErrMin= 8.51D-05
 ErrMax= 8.51D-05  0.00D+00 EMaxC= 1.00D-01 BMatC= 1.34D-07 BMatP= 3.30D-06
 IDIUse=1 WtCom= 1.00D+00 WtEn= 0.00D+00
 Coeff-Com:  0.921D-03-0.228D-02 0.149D-01 0.634D-01 0.923D+00
 Coeff:      0.921D-03-0.228D-02 0.149D-01 0.634D-01 0.923D+00
 Gap=     0.326 Goal=   None    Shift=    0.000
 RMSDP=6.59D-06 MaxDP=7.79D-05 DE=-1.82D-06 OVMax= 8.79D-05

 Initial convergence to 1.0D-05 achieved.  Increase integral accuracy.
 Cycle   6  Pass 1  IDiag  1:
 E= -76.4473531457397     Delta-E=        0.000002304793 Rises=F Damp=F
 DIIS: error= 3.84D-06 at cycle   1 NSaved=   1.
 NSaved= 1 IEnMin= 1 EnMin= -76.4473531457397     IErMin= 1 ErrMin= 3.84D-06
 ErrMax= 3.84D-06  0.00D+00 EMaxC= 1.00D-01 BMatC= 3.81D-10 BMatP= 3.81D-10
 IDIUse=1 WtCom= 1.00D+00 WtEn= 0.00D+00
 Coeff-Com:  0.100D+01
 Coeff:      0.100D+01
 Gap=     0.326 Goal=   None    Shift=    0.000
 RMSDP=6.59D-06 MaxDP=7.79D-05 DE= 2.30D-06 OVMax= 5.41D-06

 Cycle   7  Pass 1  IDiag  1:
 E= -76.4473531458539     Delta-E=       -0.000000000114 Rises=F Damp=F
 DIIS: error= 1.63D-06 at cycle   2 NSaved=   2.
 NSaved= 2 IEnMin= 2 EnMin= -76.4473531458539     IErMin= 2 ErrMin= 1.63D-06
 ErrMax= 1.63D-06  0.00D+00 EMaxC= 1.00D-01 BMatC= 5.70D-11 BMatP= 3.81D-10
 IDIUse=1 WtCom= 1.00D+00 WtEn= 0.00D+00
 Coeff-Com:  0.196D+00 0.804D+00
 Coeff:      0.196D+00 0.804D+00
 Gap=     0.326 Goal=   None    Shift=    0.000
 RMSDP=2.17D-07 MaxDP=2.38D-06 DE=-1.14D-10 OVMax= 3.17D-06

 Cycle   8  Pass 1  IDiag  1:
 E= -76.4473531458589     Delta-E=       -0.000000000005 Rises=F Damp=F
 DIIS: error= 1.57D-06 at cycle   3 NSaved=   3.
 NSaved= 3 IEnMin= 3 EnMin= -76.4473531458589     IErMin= 3 ErrMin= 1.57D-06
 ErrMax= 1.57D-06  0.00D+00 EMaxC= 1.00D-01 BMatC= 4.87D-11 BMatP= 5.70D-11
 IDIUse=1 WtCom= 1.00D+00 WtEn= 0.00D+00
 Coeff-Com:  0.126D-01 0.479D+00 0.508D+00
 Coeff:      0.126D-01 0.479D+00 0.508D+00
 Gap=     0.326 Goal=   None    Shift=    0.000
 RMSDP=1.12D-07 MaxDP=1.27D-06 DE=-5.04D-12 OVMax= 1.68D-06

 Cycle   9  Pass 1  IDiag  1:
 E= -76.4473531458899     Delta-E=       -0.000000000031 Rises=F Damp=F
 DIIS: error= 1.16D-07 at cycle   4 NSaved=   4.
 NSaved= 4 IEnMin= 4 EnMin= -76.4473531458899     IErMin= 4 ErrMin= 1.16D-07
 ErrMax= 1.16D-07  0.00D+00 EMaxC= 1.00D-01 BMatC= 2.41D-13 BMatP= 4.87D-11
 IDIUse=1 WtCom= 1.00D+00 WtEn= 0.00D+00
 Coeff-Com: -0.325D-02 0.109D+00 0.148D+00 0.746D+00
 Coeff:     -0.325D-02 0.109D+00 0.148D+00 0.746D+00
 Gap=     0.326 Goal=   None    Shift=    0.000
 RMSDP=9.56D-09 MaxDP=1.21D-07 DE=-3.10D-11 OVMax= 1.30D-07

 SCF Done:  E(RB3LYP) =  -76.4473531459     A.U. after    9 cycles
            NFock=  9  Conv=0.96D-08     -V/T= 2.0020
 KE= 7.629520246654D+01 PE=-1.993291186294D+02 EE= 3.750231327419D+01
 Leave Link  502 at Fri Jul 17 17:50:00 2020, MaxMem=  8589934592 cpu:        44.3
 (Enter /usr/local/Cluster-Apps/gaussian/g09/l601.exe)
 Copying SCF densities to generalized density rwf, IOpCl= 0 IROHF=0.

 **********************************************************************

            Population analysis using the SCF density.

 **********************************************************************

 Orbital symmetries:
       Occupied  (A') (A') (A') (A') (A")
       Virtual   (A') (A') (A') (A') (A') (A") (A') (A') (A') (A")
                 (A") (A') (A') (A') (A') (A') (A") (A") (A') (A')
                 (A') (A") (A') (A') (A')
 The electronic state is 1-A'.
 Alpha  occ. eigenvalues --  -19.10372  -0.99949  -0.51926  -0.37565  -0.29885
 Alpha virt. eigenvalues --    0.02729   0.10242   0.37524   0.41936   0.76042
 Alpha virt. eigenvalues --    0.76437   0.86098   1.06724   1.24479   1.26649
 Alpha virt. eigenvalues --    1.45854   1.65149   1.91297   2.04261   2.28738
 Alpha virt. eigenvalues --    2.47957   3.10562   3.14828   3.31018   3.58549
 Alpha virt. eigenvalues --    3.81346   4.76352   5.17752   5.58503  49.83376
          Condensed to atoms (all electrons):
               1          2          3
     1  H    0.490892  -0.036984   0.308489
     2  H   -0.036984   0.490894   0.308488
     3  O    0.308489   0.308488   7.858227
 Mulliken charges:
               1
     1  H    0.237602
     2  H    0.237602
     3  O   -0.475204
 Sum of Mulliken charges =   0.00000
 Mulliken charges with hydrogens summed into heavy atoms:
               1
     3  O    0.000000
 Electronic spatial extent (au):  <R**2>=             19.2776
 Charge=              0.0000 electrons
 Dipole moment (field-independent basis, Debye):
    X=              0.0000    Y=             -2.0707    Z=              0.0000  Tot=              2.0707
 Quadrupole moment (field-independent basis, Debye-Ang):
   XX=             -4.3104   YY=             -6.0667   ZZ=             -7.2159
   XY=              0.0000   XZ=              0.0000   YZ=              0.0000
 Traceless Quadrupole moment (field-independent basis, Debye-Ang):
   XX=              1.5539   YY=             -0.2023   ZZ=             -1.3516
   XY=              0.0000   XZ=              0.0000   YZ=              0.0000
 Octapole moment (field-independent basis, Debye-Ang**2):
  XXX=              0.0000  YYY=             -1.1735  ZZZ=              0.0000  XYY=              0.0000
  XXY=             -1.2314  XXZ=              0.0000  XZZ=              0.0000  YZZ=             -0.3068
  YYZ=              0.0000  XYZ=              0.0000
 Hexadecapole moment (field-independent basis, Debye-Ang**3):
 XXXX=             -6.2511 YYYY=             -6.4530 ZZZZ=             -5.3308 XXXY=              0.0000
 XXXZ=              0.0000 YYYX=              0.0000 YYYZ=              0.0000 ZZZX=              0.0000
 ZZZY=              0.0000 XXYY=             -1.7770 XXZZ=             -2.2110 YYZZ=             -2.0203
 XXYZ=              0.0000 YYXZ=              0.0000 ZZXY=              0.0000
 N-N= 9.084249742746D+00 E-N=-1.993291170011D+02  KE= 7.629520246654D+01
 Symmetry A'   KE= 7.162573841020D+01
 Symmetry A"   KE= 4.669464056338D+00
 No NMR shielding tensors so no spin-rotation constants.
 Leave Link  601 at Fri Jul 17 17:50:01 2020, MaxMem=  8589934592 cpu:        14.1
 (Enter /usr/local/Cluster-Apps/gaussian/g09/l701.exe)
 Compute integral first derivatives.
 ... and contract with generalized density number  0.
 Leave Link  701 at Fri Jul 17 17:50:02 2020, MaxMem=  8589934592 cpu:        12.1
 (Enter /usr/local/Cluster-Apps/gaussian/g09/l702.exe)
 L702 exits ... SP integral derivatives will be done elsewhere.
 Leave Link  702 at Fri Jul 17 17:50:02 2020, MaxMem=  8589934592 cpu:         0.2
 (Enter /usr/local/Cluster-Apps/gaussian/g09/l703.exe)
 Compute integral first derivatives, UseDBF=F ICtDFT=           0.
 Integral derivatives from FoFJK, PRISM(SPDF).
 Calling FoFJK, ICntrl=      2127 FMM=F ISym2X=1 I1Cent= 0 IOpClX= 0 NMat=1 NMatS=1 NMatT=0.
 FoFJK:  IHMeth= 1 ICntrl=    2127 DoSepK=F KAlg= 0 I1Cent=   0 FoldK=F
 IRaf=         0 NMat=   1 IRICut=       1 DoRegI=T DoRafI=F ISym2E= 1.
 FoFCou: FMM=F IPFlag=           0 FMFlag=      100000 FMFlg1=         800
         NFxFlg=           0 DoJE=F BraDBF=F KetDBF=F FulRan=T
         wScrn=  0.000000 ICntrl=    2127 IOpCl=  0 I1Cent=           0 NGrid=           0
         NMat0=    1 NMatS0=      1 NMatT0=    0 NMatD0=    1 NMtDS0=    0 NMtDT0=    0
 Petite list used in FoFCou.
 Leave Link  703 at Fri Jul 17 17:50:02 2020, MaxMem=  8589934592 cpu:         8.4
 (Enter /usr/local/Cluster-Apps/gaussian/g09/l716.exe)
 Dipole        = 2.28804528D-06-8.14685752D-01 5.52046903D-33
 ***** Axes restored to original set *****
 -------------------------------------------------------------------
 Center     Atomic                   Forces (Hartrees/Bohr)
 Number     Number              X              Y              Z
 -------------------------------------------------------------------
      1        1           0.005946147    0.003659581    0.000000000
      2        1          -0.005865577    0.003798766    0.000000000
      3        8          -0.000080570   -0.007458348    0.000000000
 -------------------------------------------------------------------
 Cartesian Forces:  Max     0.007458348 RMS     0.004126045
 Leave Link  716 at Fri Jul 17 17:50:03 2020, MaxMem=  8589934592 cpu:         0.4
 (Enter /usr/local/Cluster-Apps/gaussian/g09/l103.exe)

 GradGradGradGradGradGradGradGradGradGradGradGradGradGradGradGradGradGrad
 Berny optimization.
 FormGI is forming the generalized inverse of G from B-inverse, IUseBI=4.
 Internal  Forces:  Max     0.006953217 RMS     0.005722635
 Search for a local minimum.
 Step number   1 out of a maximum of   20
 All quantities printed in internal units (Hartrees-Bohrs-Radians)
 RMS Force = .57226D-02 SwitMx=.10000D-02 MixMth= 1
 Mixed Optimization -- RFO/linear search
 Second derivative matrix not updated -- first step.
 The second derivative matrix:
                          R1        R2        A1
           R1           0.53582
           R2           0.00000   0.53581
           A1           0.00000   0.00000   0.16000
 ITU=  0
     Eigenvalues ---    0.16000   0.53581   0.53582
 RFO step:  Lambda=-1.90460304D-04 EMin= 1.60000000D-01
 Linear search not attempted -- first point.
 Iteration  1 RMS(Cart)=  0.01206236 RMS(Int)=  0.00003492
 Iteration  2 RMS(Cart)=  0.00002770 RMS(Int)=  0.00000000
 Iteration  3 RMS(Cart)=  0.00000000 RMS(Int)=  0.00000000
 ITry= 1 IFail=0 DXMaxC= 1.47D-02 DCOld= 1.00D+10 DXMaxT= 3.00D-01 DXLimC= 3.00D+00 Rises=F
 ClnCor:  largest displacement from symmetrization is 1.49D-15 for atom     1.
 Variable       Old X    -DE/DX   Delta X   Delta X   Delta X     New X
                                 (Linear)    (Quad)   (Total)
    R1        1.83114  -0.00695   0.00000  -0.01296  -0.01296   1.81818
    R2        1.83115  -0.00695   0.00000  -0.01297  -0.01297   1.81818
    A1        1.81474  -0.00128   0.00000  -0.00799  -0.00799   1.80676
         Item               Value     Threshold  Converged?
 Maximum Force            0.006953     0.000450     NO 
 RMS     Force            0.005723     0.000300     NO 
 Maximum Displacement     0.014705     0.001800     NO 
 RMS     Displacement     0.012050     0.001200     NO 
 Predicted change in Energy=-9.526827D-05
 Lowest energy point so far.  Saving SCF results.
 GradGradGradGradGradGradGradGradGradGradGradGradGradGradGradGradGradGrad

 Leave Link  103 at Fri Jul 17 17:50:03 2020, MaxMem=  8589934592 cpu:         6.3
 (Enter /usr/local/Cluster-Apps/gaussian/g09/l202.exe)
                          Input orientation:                          
 ---------------------------------------------------------------------
 Center     Atomic      Atomic             Coordinates (Angstroms)
 Number     Number       Type             X           Y           Z
 ---------------------------------------------------------------------
      1          1           0       -1.164238   -0.841419    0.000000
      2          1           0        0.347035   -0.858739    0.000000
      3          8           0       -0.401777   -0.254592    0.000000
 ---------------------------------------------------------------------
                    Distance matrix (angstroms):
                    1          2          3
     1  H    0.000000
     2  H    1.511373   0.000000
     3  O    0.962140   0.962140   0.000000
 Stoichiometry    H2O
 Framework group  CS[SG(H2O)]
 Deg. of freedom     3
 Full point group                 CS      NOp   2
 RotChk:  IX=0 Diff= 7.87D-06
 Largest Abelian subgroup         CS      NOp   2
 Largest concise Abelian subgroup C1      NOp   1
                         Standard orientation:                         
 ---------------------------------------------------------------------
 Center     Atomic      Atomic             Coordinates (Angstroms)
 Number     Number       Type             X           Y           Z
 ---------------------------------------------------------------------
      1          1           0        0.755686   -0.476421    0.000000
      2          1           0       -0.755686   -0.476422    0.000000
      3          8           0        0.000000    0.119105    0.000000
 ---------------------------------------------------------------------
 Rotational constants (GHZ):    796.0581632    439.0550190    282.9808126
 Leave Link  202 at Fri Jul 17 17:50:03 2020, MaxMem=  8589934592 cpu:         0.9
 (Enter /usr/local/Cluster-Apps/gaussian/g09/l301.exe)
 Standard basis: 6-311G(d,p) (5D, 7F)
 Ernie: Thresh=  0.10000D-02 Tol=  0.10000D-05 Strict=F.
 There are    24 symmetry adapted cartesian basis functions of A'  symmetry.
 There are     7 symmetry adapted cartesian basis functions of A"  symmetry.
 There are    23 symmetry adapted basis functions of A'  symmetry.
 There are     7 symmetry adapted basis functions of A"  symmetry.
    30 basis functions,    48 primitive gaussians,    31 cartesian basis functions
     5 alpha electrons        5 beta electrons
       nuclear repulsion energy         9.1501307103 Hartrees.
 IExCor=  402 DFT=T Ex+Corr=B3LYP ExCW=0 ScaHFX=  0.200000
 ScaDFX=  0.800000  0.720000  1.000000  0.810000 ScalE2=  1.000000  1.000000
 IRadAn=      0 IRanWt=     -1 IRanGd=            0 ICorTp=0 IEmpDi=  4
 NAtoms=    3 NActive=    3 NUniq=    3 SFac= 1.00D+00 NAtFMM=   60 NAOKFM=F Big=F
 Integral buffers will be    131072 words long.
 Raffenetti 2 integral format.
 Two-electron integral symmetry is turned on.
 Leave Link  301 at Fri Jul 17 17:50:03 2020, MaxMem=  8589934592 cpu:         1.0
 (Enter /usr/local/Cluster-Apps/gaussian/g09/l302.exe)
 NPDir=0 NMtPBC=     1 NCelOv=     1 NCel=       1 NClECP=     1 NCelD=      1
         NCelK=      1 NCelE2=     1 NClLst=     1 CellRange=     0.0.
 One-electron integrals computed using PRISM.
 NBasis=    30 RedAO= T EigKep=  2.57D-02  NBF=    23     7
 NBsUse=    30 1.00D-06 EigRej= -1.00D+00 NBFU=    23     7
 Precomputing XC quadrature grid using
 IXCGrd= 4 IRadAn=           0 IRanWt=          -1 IRanGd=           0 AccXCQ= 0.00D+00.
 Generated NRdTot=       0 NPtTot=           0 NUsed=           0 NTot=          32
 NSgBfM=    31    31    31    31    31 MxSgAt=     3 MxSgA2=     3.
 Leave Link  302 at Fri Jul 17 17:50:04 2020, MaxMem=  8589934592 cpu:         8.6
 (Enter /usr/local/Cluster-Apps/gaussian/g09/l303.exe)
 DipDrv:  MaxL=1.
 Leave Link  303 at Fri Jul 17 17:50:04 2020, MaxMem=  8589934592 cpu:         2.6
 (Enter /usr/local/Cluster-Apps/gaussian/g09/l401.exe)
 Initial guess from the checkpoint file:  "h2o.chk"
 B after Tr=     0.000000    0.000000    0.000000
         Rot=    1.000000    0.000000    0.000000    0.000002 Ang=   0.00 deg.
 Guess basis will be translated and rotated to current coordinates.
 JPrj=2 DoOrth=T DoCkMO=T.
 Initial guess orbital symmetries:
       Occupied  (A') (A') (A') (A') (A")
       Virtual   (A') (A') (A') (A') (A') (A') (A') (A') (A') (A')
                 (A') (A') (A') (A') (A') (A') (A') (A') (A') (A")
                 (A") (A") (A") (A") (A")
 The electronic state of the initial guess is 1-A'.
 Leave Link  401 at Fri Jul 17 17:50:05 2020, MaxMem=  8589934592 cpu:         9.9
 (Enter /usr/local/Cluster-Apps/gaussian/g09/l502.exe)
 Closed shell SCF:
 Using DIIS extrapolation, IDIIS=  1040.
 Integral symmetry usage will be decided dynamically.
 Keep R1 ints in memory in symmetry-blocked form, NReq=991954.
 IVT=       22305 IEndB=       22305 NGot=  8589934592 MDV=  8589851567
 LenX=  8589851567 LenY=  8589850165
 Requested convergence on RMS density matrix=1.00D-08 within 128 cycles.
 Requested convergence on MAX density matrix=1.00D-06.
 Requested convergence on             energy=1.00D-06.
 No special actions if energy rises.
 FoFCou: FMM=F IPFlag=           0 FMFlag=           0 FMFlg1=           0
         NFxFlg=           0 DoJE=F BraDBF=F KetDBF=F FulRan=T
         wScrn=  0.000000 ICntrl=     600 IOpCl=  0 I1Cent=           0 NGrid=           0
         NMat0=    1 NMatS0=    465 NMatT0=    0 NMatD0=    1 NMtDS0=    0 NMtDT0=    0
 Petite list used in FoFCou.

 Cycle   1  Pass 1  IDiag  1:
 E= -76.4474196140719    
 DIIS: error= 9.95D-04 at cycle   1 NSaved=   1.
 NSaved= 1 IEnMin= 1 EnMin= -76.4474196140719     IErMin= 1 ErrMin= 9.95D-04
 ErrMax= 9.95D-04  0.00D+00 EMaxC= 1.00D-01 BMatC= 3.43D-05 BMatP= 3.43D-05
 IDIUse=3 WtCom= 9.90D-01 WtEn= 9.95D-03
 Coeff-Com:  0.100D+01
 Coeff-En:   0.100D+01
 Coeff:      0.100D+01
 Gap=     0.671 Goal=   None    Shift=    0.000
 RMSDP=1.60D-04 MaxDP=1.32D-03              OVMax= 2.63D-03

 Cycle   2  Pass 1  IDiag  1:
 E= -76.4474398532712     Delta-E=       -0.000020239199 Rises=F Damp=F
 DIIS: error= 6.91D-04 at cycle   2 NSaved=   2.
 NSaved= 2 IEnMin= 2 EnMin= -76.4474398532712     IErMin= 2 ErrMin= 6.91D-04
 ErrMax= 6.91D-04  0.00D+00 EMaxC= 1.00D-01 BMatC= 9.64D-06 BMatP= 3.43D-05
 IDIUse=3 WtCom= 9.93D-01 WtEn= 6.91D-03
 Coeff-Com:  0.283D+00 0.717D+00
 Coeff-En:   0.000D+00 0.100D+01
 Coeff:      0.281D+00 0.719D+00
 Gap=     0.327 Goal=   None    Shift=    0.000
 RMSDP=8.19D-05 MaxDP=9.60D-04 DE=-2.02D-05 OVMax= 1.14D-03

 Cycle   3  Pass 1  IDiag  1:
 E= -76.4474426381132     Delta-E=       -0.000002784842 Rises=F Damp=F
 DIIS: error= 5.11D-04 at cycle   3 NSaved=   3.
 NSaved= 3 IEnMin= 3 EnMin= -76.4474426381132     IErMin= 3 ErrMin= 5.11D-04
 ErrMax= 5.11D-04  0.00D+00 EMaxC= 1.00D-01 BMatC= 5.26D-06 BMatP= 9.64D-06
 IDIUse=3 WtCom= 9.95D-01 WtEn= 5.11D-03
 Coeff-Com:  0.162D-01 0.422D+00 0.562D+00
 Coeff-En:   0.000D+00 0.368D+00 0.632D+00
 Coeff:      0.161D-01 0.422D+00 0.562D+00
 Gap=     0.328 Goal=   None    Shift=    0.000
 RMSDP=3.67D-05 MaxDP=4.24D-04 DE=-2.78D-06 OVMax= 5.47D-04

 Cycle   4  Pass 1  IDiag  1:
 E= -76.4474459742651     Delta-E=       -0.000003336152 Rises=F Damp=F
 DIIS: error= 3.67D-05 at cycle   4 NSaved=   4.
 NSaved= 4 IEnMin= 4 EnMin= -76.4474459742651     IErMin= 4 ErrMin= 3.67D-05
 ErrMax= 3.67D-05  0.00D+00 EMaxC= 1.00D-01 BMatC= 2.19D-08 BMatP= 5.26D-06
 IDIUse=1 WtCom= 1.00D+00 WtEn= 0.00D+00
 Coeff-Com: -0.369D-02 0.848D-01 0.144D+00 0.775D+00
 Coeff:     -0.369D-02 0.848D-01 0.144D+00 0.775D+00
 Gap=     0.328 Goal=   None    Shift=    0.000
 RMSDP=3.05D-06 MaxDP=3.27D-05 DE=-3.34D-06 OVMax= 4.20D-05

 Cycle   5  Pass 1  IDiag  1:
 E= -76.4474459886753     Delta-E=       -0.000000014410 Rises=F Damp=F
 DIIS: error= 1.43D-06 at cycle   5 NSaved=   5.
 NSaved= 5 IEnMin= 5 EnMin= -76.4474459886753     IErMin= 5 ErrMin= 1.43D-06
 ErrMax= 1.43D-06  0.00D+00 EMaxC= 1.00D-01 BMatC= 5.83D-11 BMatP= 2.19D-08
 IDIUse=1 WtCom= 1.00D+00 WtEn= 0.00D+00
 Coeff-Com: -0.344D-03-0.423D-02-0.583D-02 0.200D-01 0.990D+00
 Coeff:     -0.344D-03-0.423D-02-0.583D-02 0.200D-01 0.990D+00
 Gap=     0.328 Goal=   None    Shift=    0.000
 RMSDP=2.78D-07 MaxDP=2.83D-06 DE=-1.44D-08 OVMax= 6.03D-06

 Cycle   6  Pass 1  IDiag  1:
 E= -76.4474459887362     Delta-E=       -0.000000000061 Rises=F Damp=F
 DIIS: error= 1.34D-07 at cycle   6 NSaved=   6.
 NSaved= 6 IEnMin= 6 EnMin= -76.4474459887362     IErMin= 6 ErrMin= 1.34D-07
 ErrMax= 1.34D-07  0.00D+00 EMaxC= 1.00D-01 BMatC= 3.59D-13 BMatP= 5.83D-11
 IDIUse=1 WtCom= 1.00D+00 WtEn= 0.00D+00
 Coeff-Com:  0.355D-04-0.388D-03-0.441D-03-0.348D-02-0.261D-01 0.103D+01
 Coeff:      0.355D-04-0.388D-03-0.441D-03-0.348D-02-0.261D-01 0.103D+01
 Gap=     0.328 Goal=   None    Shift=    0.000
 RMSDP=2.71D-08 MaxDP=2.12D-07 DE=-6.09D-11 OVMax= 5.52D-07

 Cycle   7  Pass 1  IDiag  1:
 E= -76.4474459887368     Delta-E=       -0.000000000001 Rises=F Damp=F
 DIIS: error= 2.05D-08 at cycle   7 NSaved=   7.
 NSaved= 7 IEnMin= 7 EnMin= -76.4474459887368     IErMin= 7 ErrMin= 2.05D-08
 ErrMax= 2.05D-08  0.00D+00 EMaxC= 1.00D-01 BMatC= 4.28D-15 BMatP= 3.59D-13
 IDIUse=1 WtCom= 1.00D+00 WtEn= 0.00D+00
 Coeff-Com:  0.192D-05 0.954D-05 0.211D-04-0.487D-03-0.653D-02 0.707D-03
 Coeff-Com:  0.101D+01
 Coeff:      0.192D-05 0.954D-05 0.211D-04-0.487D-03-0.653D-02 0.707D-03
 Coeff:      0.101D+01
 Gap=     0.328 Goal=   None    Shift=    0.000
 RMSDP=2.30D-09 MaxDP=1.38D-08 DE=-5.40D-13 OVMax= 3.87D-08

 SCF Done:  E(RB3LYP) =  -76.4474459887     A.U. after    7 cycles
            NFock=  7  Conv=0.23D-08     -V/T= 2.0017
 KE= 7.631958896441D+01 PE=-1.994693109626D+02 EE= 3.755214529918D+01
 Leave Link  502 at Fri Jul 17 17:50:08 2020, MaxMem=  8589934592 cpu:        41.6
 (Enter /usr/local/Cluster-Apps/gaussian/g09/l701.exe)
 Compute integral first derivatives.
 ... and contract with generalized density number  0.
 Leave Link  701 at Fri Jul 17 17:50:09 2020, MaxMem=  8589934592 cpu:        11.7
 (Enter /usr/local/Cluster-Apps/gaussian/g09/l702.exe)
 L702 exits ... SP integral derivatives will be done elsewhere.
 Leave Link  702 at Fri Jul 17 17:50:09 2020, MaxMem=  8589934592 cpu:         0.3
 (Enter /usr/local/Cluster-Apps/gaussian/g09/l703.exe)
 Compute integral first derivatives, UseDBF=F ICtDFT=           0.
 Integral derivatives from FoFJK, PRISM(SPDF).
 Calling FoFJK, ICntrl=      2127 FMM=F ISym2X=1 I1Cent= 0 IOpClX= 0 NMat=1 NMatS=1 NMatT=0.
 FoFJK:  IHMeth= 1 ICntrl=    2127 DoSepK=F KAlg= 0 I1Cent=   0 FoldK=F
 IRaf=         0 NMat=   1 IRICut=       1 DoRegI=T DoRafI=F ISym2E= 1.
 FoFCou: FMM=F IPFlag=           0 FMFlag=      100000 FMFlg1=         800
         NFxFlg=           0 DoJE=F BraDBF=F KetDBF=F FulRan=T
         wScrn=  0.000000 ICntrl=    2127 IOpCl=  0 I1Cent=           0 NGrid=           0
         NMat0=    1 NMatS0=      1 NMatT0=    0 NMatD0=    1 NMtDS0=    0 NMtDT0=    0
 Petite list used in FoFCou.
 Leave Link  703 at Fri Jul 17 17:50:09 2020, MaxMem=  8589934592 cpu:         7.5
 (Enter /usr/local/Cluster-Apps/gaussian/g09/l716.exe)
 Dipole        = 2.75866812D-08-8.15961063D-01 5.63617690D-33
 ***** Axes restored to original set *****
 -------------------------------------------------------------------
 Center     Atomic                   Forces (Hartrees/Bohr)
 Number     Number              X              Y              Z
 -------------------------------------------------------------------
      1        1          -0.000264909    0.000349183    0.000000000
      2        1           0.000272774    0.000343075    0.000000000
      3        8          -0.000007866   -0.000692257    0.000000000
 -------------------------------------------------------------------
 Cartesian Forces:  Max     0.000692257 RMS     0.000309748
 Leave Link  716 at Fri Jul 17 17:50:09 2020, MaxMem=  8589934592 cpu:         0.4
 (Enter /usr/local/Cluster-Apps/gaussian/g09/l103.exe)

 GradGradGradGradGradGradGradGradGradGradGradGradGradGradGradGradGradGrad
 Berny optimization.
 Using GEDIIS/GDIIS optimizer.
 FormGI is forming the generalized inverse of G from B-inverse, IUseBI=4.
 Internal  Forces:  Max     0.000796887 RMS     0.000460090
 Search for a local minimum.
 Step number   2 out of a maximum of   20
 All quantities printed in internal units (Hartrees-Bohrs-Radians)
 RMS Force = .46009D-03 SwitMx=.10000D-02 MixMth= 2
 Mixed Optimization -- En-DIIS/RFO-DIIS
 Update second derivatives using D2CorX and points    1    2
 DE= -9.28D-05 DEPred=-9.53D-05 R= 9.75D-01
 TightC=F SS=  1.41D+00  RLast= 2.00D-02 DXNew= 5.0454D-01 6.0006D-02
 Trust test= 9.75D-01 RLast= 2.00D-02 DXMaxT set to 3.00D-01
 The second derivative matrix:
                          R1        R2        A1
           R1           0.52759
           R2          -0.00824   0.52755
           A1           0.02667   0.02669   0.17334
 ITU=  1  0
 Use linear search instead of GDIIS.
     Eigenvalues ---    0.16927   0.52340   0.53581
 RFO step:  Lambda=-3.51209447D-06 EMin= 1.69269705D-01
 Quartic linear search produced a step of -0.03125.
 Iteration  1 RMS(Cart)=  0.00257090 RMS(Int)=  0.00000405
 Iteration  2 RMS(Cart)=  0.00000364 RMS(Int)=  0.00000000
 Iteration  3 RMS(Cart)=  0.00000000 RMS(Int)=  0.00000000
 ITry= 1 IFail=0 DXMaxC= 2.43D-03 DCOld= 1.00D+10 DXMaxT= 3.00D-01 DXLimC= 3.00D+00 Rises=F
 ClnCor:  largest displacement from symmetrization is 3.33D-16 for atom     2.
 Variable       Old X    -DE/DX   Delta X   Delta X   Delta X     New X
                                 (Linear)    (Quad)   (Total)
    R1        1.81818   0.00000   0.00041  -0.00066  -0.00025   1.81793
    R2        1.81818   0.00000   0.00041  -0.00066  -0.00025   1.81793
    A1        1.80676   0.00080   0.00025   0.00441   0.00466   1.81142
         Item               Value     Threshold  Converged?
 Maximum Force            0.000797     0.000450     NO 
 RMS     Force            0.000460     0.000300     NO 
 Maximum Displacement     0.002431     0.001800     NO 
 RMS     Displacement     0.002569     0.001200     NO 
 Predicted change in Energy=-1.862660D-06
 Lowest energy point so far.  Saving SCF results.
 GradGradGradGradGradGradGradGradGradGradGradGradGradGradGradGradGradGrad

 Leave Link  103 at Fri Jul 17 17:50:10 2020, MaxMem=  8589934592 cpu:         6.8
 (Enter /usr/local/Cluster-Apps/gaussian/g09/l202.exe)
                          Input orientation:                          
 ---------------------------------------------------------------------
 Center     Atomic      Atomic             Coordinates (Angstroms)
 Number     Number       Type             X           Y           Z
 ---------------------------------------------------------------------
      1          1           0       -1.165511   -0.840790    0.000000
      2          1           0        0.348322   -0.858139    0.000000
      3          8           0       -0.401791   -0.255822    0.000000
 ---------------------------------------------------------------------
                    Distance matrix (angstroms):
                    1          2          3
     1  H    0.000000
     2  H    1.513932   0.000000
     3  O    0.962006   0.962006   0.000000
 Stoichiometry    H2O
 Framework group  CS[SG(H2O)]
 Deg. of freedom     3
 Full point group                 CS      NOp   2
 RotChk:  IX=0 Diff= 2.56D-07
 Largest Abelian subgroup         CS      NOp   2
 Largest concise Abelian subgroup C1      NOp   1
                         Standard orientation:                         
 ---------------------------------------------------------------------
 Center     Atomic      Atomic             Coordinates (Angstroms)
 Number     Number       Type             X           Y           Z
 ---------------------------------------------------------------------
      1          1           0        0.756966   -0.474945    0.000000
      2          1           0       -0.756966   -0.474945    0.000000
      3          8           0        0.000000    0.118736    0.000000
 ---------------------------------------------------------------------
 Rotational constants (GHZ):    801.0140104    437.5718106    282.9849534
 Leave Link  202 at Fri Jul 17 17:50:10 2020, MaxMem=  8589934592 cpu:         0.8
 (Enter /usr/local/Cluster-Apps/gaussian/g09/l301.exe)
 Standard basis: 6-311G(d,p) (5D, 7F)
 Ernie: Thresh=  0.10000D-02 Tol=  0.10000D-05 Strict=F.
 There are    24 symmetry adapted cartesian basis functions of A'  symmetry.
 There are     7 symmetry adapted cartesian basis functions of A"  symmetry.
 There are    23 symmetry adapted basis functions of A'  symmetry.
 There are     7 symmetry adapted basis functions of A"  symmetry.
    30 basis functions,    48 primitive gaussians,    31 cartesian basis functions
     5 alpha electrons        5 beta electrons
       nuclear repulsion energy         9.1507678849 Hartrees.
 IExCor=  402 DFT=T Ex+Corr=B3LYP ExCW=0 ScaHFX=  0.200000
 ScaDFX=  0.800000  0.720000  1.000000  0.810000 ScalE2=  1.000000  1.000000
 IRadAn=      0 IRanWt=     -1 IRanGd=            0 ICorTp=0 IEmpDi=  4
 NAtoms=    3 NActive=    3 NUniq=    3 SFac= 1.00D+00 NAtFMM=   60 NAOKFM=F Big=F
 Integral buffers will be    131072 words long.
 Raffenetti 2 integral format.
 Two-electron integral symmetry is turned on.
 Leave Link  301 at Fri Jul 17 17:50:10 2020, MaxMem=  8589934592 cpu:         1.2
 (Enter /usr/local/Cluster-Apps/gaussian/g09/l302.exe)
 NPDir=0 NMtPBC=     1 NCelOv=     1 NCel=       1 NClECP=     1 NCelD=      1
         NCelK=      1 NCelE2=     1 NClLst=     1 CellRange=     0.0.
 One-electron integrals computed using PRISM.
 NBasis=    30 RedAO= T EigKep=  2.57D-02  NBF=    23     7
 NBsUse=    30 1.00D-06 EigRej= -1.00D+00 NBFU=    23     7
 Precomputing XC quadrature grid using
 IXCGrd= 4 IRadAn=           0 IRanWt=          -1 IRanGd=           0 AccXCQ= 0.00D+00.
 Generated NRdTot=       0 NPtTot=           0 NUsed=           0 NTot=          32
 NSgBfM=    31    31    31    31    31 MxSgAt=     3 MxSgA2=     3.
 Leave Link  302 at Fri Jul 17 17:50:11 2020, MaxMem=  8589934592 cpu:         8.7
 (Enter /usr/local/Cluster-Apps/gaussian/g09/l303.exe)
 DipDrv:  MaxL=1.
 Leave Link  303 at Fri Jul 17 17:50:11 2020, MaxMem=  8589934592 cpu:         2.6
 (Enter /usr/local/Cluster-Apps/gaussian/g09/l401.exe)
 Initial guess from the checkpoint file:  "h2o.chk"
 B after Tr=     0.000000    0.000000    0.000000
         Rot=    1.000000    0.000000    0.000000    0.000000 Ang=   0.00 deg.
 Guess basis will be translated and rotated to current coordinates.
 JPrj=2 DoOrth=T DoCkMO=T.
 Initial guess orbital symmetries:
       Occupied  (A') (A') (A') (A') (A")
       Virtual   (A') (A') (A') (A') (A') (A') (A') (A') (A') (A')
                 (A') (A') (A') (A') (A') (A') (A') (A') (A') (A")
                 (A") (A") (A") (A") (A")
 The electronic state of the initial guess is 1-A'.
 Leave Link  401 at Fri Jul 17 17:50:12 2020, MaxMem=  8589934592 cpu:         9.6
 (Enter /usr/local/Cluster-Apps/gaussian/g09/l502.exe)
 Closed shell SCF:
 Using DIIS extrapolation, IDIIS=  1040.
 Integral symmetry usage will be decided dynamically.
 Keep R1 ints in memory in symmetry-blocked form, NReq=991954.
 IVT=       22305 IEndB=       22305 NGot=  8589934592 MDV=  8589851567
 LenX=  8589851567 LenY=  8589850165
 Requested convergence on RMS density matrix=1.00D-08 within 128 cycles.
 Requested convergence on MAX density matrix=1.00D-06.
 Requested convergence on             energy=1.00D-06.
 No special actions if energy rises.
 FoFCou: FMM=F IPFlag=           0 FMFlag=           0 FMFlg1=           0
         NFxFlg=           0 DoJE=F BraDBF=F KetDBF=F FulRan=T
         wScrn=  0.000000 ICntrl=     600 IOpCl=  0 I1Cent=           0 NGrid=           0
         NMat0=    1 NMatS0=    465 NMatT0=    0 NMatD0=    1 NMtDS0=    0 NMtDT0=    0
 Petite list used in FoFCou.

 Cycle   1  Pass 1  IDiag  1:
 E= -76.4474469555022    
 DIIS: error= 1.49D-04 at cycle   1 NSaved=   1.
 NSaved= 1 IEnMin= 1 EnMin= -76.4474469555022     IErMin= 1 ErrMin= 1.49D-04
 ErrMax= 1.49D-04  0.00D+00 EMaxC= 1.00D-01 BMatC= 8.88D-07 BMatP= 8.88D-07
 IDIUse=3 WtCom= 9.99D-01 WtEn= 1.49D-03
 Coeff-Com:  0.100D+01
 Coeff-En:   0.100D+01
 Coeff:      0.100D+01
 Gap=     0.671 Goal=   None    Shift=    0.000
 RMSDP=5.70D-05 MaxDP=6.36D-04              OVMax= 5.06D-04

 Cycle   2  Pass 1  IDiag  1:
 E= -76.4474479753171     Delta-E=       -0.000001019815 Rises=F Damp=F
 DIIS: error= 3.03D-05 at cycle   2 NSaved=   2.
 NSaved= 2 IEnMin= 2 EnMin= -76.4474479753171     IErMin= 2 ErrMin= 3.03D-05
 ErrMax= 3.03D-05  0.00D+00 EMaxC= 1.00D-01 BMatC= 2.40D-08 BMatP= 8.88D-07
 IDIUse=1 WtCom= 1.00D+00 WtEn= 0.00D+00
 Coeff-Com: -0.679D-02 0.101D+01
 Coeff:     -0.679D-02 0.101D+01
 Gap=     0.328 Goal=   None    Shift=    0.000
 RMSDP=6.04D-06 MaxDP=6.84D-05 DE=-1.02D-06 OVMax= 7.16D-05

 Cycle   3  Pass 1  IDiag  1:
 E= -76.4474479648770     Delta-E=        0.000000010440 Rises=F Damp=F
 DIIS: error= 4.67D-05 at cycle   3 NSaved=   3.
 NSaved= 3 IEnMin= 2 EnMin= -76.4474479753171     IErMin= 2 ErrMin= 3.03D-05
 ErrMax= 4.67D-05  0.00D+00 EMaxC= 1.00D-01 BMatC= 4.43D-08 BMatP= 2.40D-08
 IDIUse=1 WtCom= 1.00D+00 WtEn= 0.00D+00
 Coeff-Com: -0.250D-01 0.598D+00 0.428D+00
 Coeff:     -0.250D-01 0.598D+00 0.428D+00
 Gap=     0.328 Goal=   None    Shift=    0.000
 RMSDP=3.37D-06 MaxDP=4.03D-05 DE= 1.04D-08 OVMax= 4.77D-05

 Cycle   4  Pass 1  IDiag  1:
 E= -76.4474479931640     Delta-E=       -0.000000028287 Rises=F Damp=F
 DIIS: error= 1.09D-06 at cycle   4 NSaved=   4.
 NSaved= 4 IEnMin= 4 EnMin= -76.4474479931640     IErMin= 4 ErrMin= 1.09D-06
 ErrMax= 1.09D-06  0.00D+00 EMaxC= 1.00D-01 BMatC= 2.24D-11 BMatP= 2.40D-08
 IDIUse=1 WtCom= 1.00D+00 WtEn= 0.00D+00
 Coeff-Com: -0.104D-02 0.974D-02 0.236D-01 0.968D+00
 Coeff:     -0.104D-02 0.974D-02 0.236D-01 0.968D+00
 Gap=     0.328 Goal=   None    Shift=    0.000
 RMSDP=1.38D-07 MaxDP=1.05D-06 DE=-2.83D-08 OVMax= 1.58D-06

 Cycle   5  Pass 1  IDiag  1:
 E= -76.4474479931807     Delta-E=       -0.000000000017 Rises=F Damp=F
 DIIS: error= 2.07D-07 at cycle   5 NSaved=   5.
 NSaved= 5 IEnMin= 5 EnMin= -76.4474479931807     IErMin= 5 ErrMin= 2.07D-07
 ErrMax= 2.07D-07  0.00D+00 EMaxC= 1.00D-01 BMatC= 9.13D-13 BMatP= 2.24D-11
 IDIUse=1 WtCom= 1.00D+00 WtEn= 0.00D+00
 Coeff-Com:  0.389D-04-0.573D-02 0.342D-03 0.206D+00 0.799D+00
 Coeff:      0.389D-04-0.573D-02 0.342D-03 0.206D+00 0.799D+00
 Gap=     0.328 Goal=   None    Shift=    0.000
 RMSDP=2.45D-08 MaxDP=2.73D-07 DE=-1.67D-11 OVMax= 2.59D-07

 Cycle   6  Pass 1  IDiag  1:
 E= -76.4474479931813     Delta-E=       -0.000000000001 Rises=F Damp=F
 DIIS: error= 2.84D-08 at cycle   6 NSaved=   6.
 NSaved= 6 IEnMin= 6 EnMin= -76.4474479931813     IErMin= 6 ErrMin= 2.84D-08
 ErrMax= 2.84D-08  0.00D+00 EMaxC= 1.00D-01 BMatC= 1.22D-14 BMatP= 9.13D-13
 IDIUse=1 WtCom= 1.00D+00 WtEn= 0.00D+00
 Coeff-Com:  0.319D-04-0.611D-03-0.154D-03-0.108D-01 0.226D-01 0.989D+00
 Coeff:      0.319D-04-0.611D-03-0.154D-03-0.108D-01 0.226D-01 0.989D+00
 Gap=     0.328 Goal=   None    Shift=    0.000
 RMSDP=2.70D-09 MaxDP=2.75D-08 DE=-6.11D-13 OVMax= 4.09D-08

 SCF Done:  E(RB3LYP) =  -76.4474479932     A.U. after    6 cycles
            NFock=  6  Conv=0.27D-08     -V/T= 2.0017
 KE= 7.631962811151D+01 PE=-1.994713686258D+02 EE= 3.755352463625D+01
 Leave Link  502 at Fri Jul 17 17:50:14 2020, MaxMem=  8589934592 cpu:        29.8
 (Enter /usr/local/Cluster-Apps/gaussian/g09/l701.exe)
 Compute integral first derivatives.
 ... and contract with generalized density number  0.
 Leave Link  701 at Fri Jul 17 17:50:15 2020, MaxMem=  8589934592 cpu:        10.2
 (Enter /usr/local/Cluster-Apps/gaussian/g09/l702.exe)
 L702 exits ... SP integral derivatives will be done elsewhere.
 Leave Link  702 at Fri Jul 17 17:50:15 2020, MaxMem=  8589934592 cpu:         0.3
 (Enter /usr/local/Cluster-Apps/gaussian/g09/l703.exe)
 Compute integral first derivatives, UseDBF=F ICtDFT=           0.
 Integral derivatives from FoFJK, PRISM(SPDF).
 Calling FoFJK, ICntrl=      2127 FMM=F ISym2X=1 I1Cent= 0 IOpClX= 0 NMat=1 NMatS=1 NMatT=0.
 FoFJK:  IHMeth= 1 ICntrl=    2127 DoSepK=F KAlg= 0 I1Cent=   0 FoldK=F
 IRaf=         0 NMat=   1 IRICut=       1 DoRegI=T DoRafI=F ISym2E= 1.
 FoFCou: FMM=F IPFlag=           0 FMFlag=      100000 FMFlg1=         800
         NFxFlg=           0 DoJE=F BraDBF=F KetDBF=F FulRan=T
         wScrn=  0.000000 ICntrl=    2127 IOpCl=  0 I1Cent=           0 NGrid=           0
         NMat0=    1 NMatS0=      1 NMatT0=    0 NMatD0=    1 NMtDS0=    0 NMtDT0=    0
 Petite list used in FoFCou.
 Leave Link  703 at Fri Jul 17 17:50:15 2020, MaxMem=  8589934592 cpu:         9.7
 (Enter /usr/local/Cluster-Apps/gaussian/g09/l716.exe)
 Dipole        =-4.24806348D-08-8.14554562D-01 1.78649759D-34
 ***** Axes restored to original set *****
 -------------------------------------------------------------------
 Center     Atomic                   Forces (Hartrees/Bohr)
 Number     Number              X              Y              Z
 -------------------------------------------------------------------
      1        1          -0.000010184    0.000035351    0.000000000
      2        1           0.000011087    0.000035032    0.000000000
      3        8          -0.000000903   -0.000070384    0.000000000
 -------------------------------------------------------------------
 Cartesian Forces:  Max     0.000070384 RMS     0.000029171
 Leave Link  716 at Fri Jul 17 17:50:16 2020, MaxMem=  8589934592 cpu:         0.3
 (Enter /usr/local/Cluster-Apps/gaussian/g09/l103.exe)

 GradGradGradGradGradGradGradGradGradGradGradGradGradGradGradGradGradGrad
 Berny optimization.
 Using GEDIIS/GDIIS optimizer.
 FormGI is forming the generalized inverse of G from B-inverse, IUseBI=4.
 Internal  Forces:  Max     0.000062277 RMS     0.000037572
 Search for a local minimum.
 Step number   3 out of a maximum of   20
 All quantities printed in internal units (Hartrees-Bohrs-Radians)
 RMS Force = .37572D-04 SwitMx=.10000D-02 MixMth= 2
 Mixed Optimization -- En-DIIS/RFO-DIIS
 Swapping is turned off.
 Update second derivatives using D2CorX and points    1    2    3
 DE= -2.00D-06 DEPred=-1.86D-06 R= 1.08D+00
 TightC=F SS=  1.41D+00  RLast= 4.67D-03 DXNew= 5.0454D-01 1.4020D-02
 Trust test= 1.08D+00 RLast= 4.67D-03 DXMaxT set to 3.00D-01
 The second derivative matrix:
                          R1        R2        A1
           R1           0.52667
           R2          -0.00916   0.52664
           A1           0.03040   0.03040   0.16097
 ITU=  1  1  0
     Eigenvalues ---    0.15586   0.52261   0.53581
 En-DIIS/RFO-DIIS IScMMF=        0 using points:     3    2
 RFO step:  Lambda=-1.05777933D-08.
 NNeg= 0 NP= 2 Switch=  2.50D-03 Rises=F DC=  2.00D-06 SmlDif=  1.00D-05
 RMS Error=  0.9413992584D-04 NUsed= 2 EDIIS=F
 DidBck=F Rises=F RFO-DIIS coefs:    1.08689   -0.08689
 Iteration  1 RMS(Cart)=  0.00021575 RMS(Int)=  0.00000003
 Iteration  2 RMS(Cart)=  0.00000003 RMS(Int)=  0.00000000
 ITry= 1 IFail=0 DXMaxC= 2.14D-04 DCOld= 1.00D+10 DXMaxT= 3.00D-01 DXLimC= 3.00D+00 Rises=F
 ClnCor:  largest displacement from symmetrization is 1.11D-15 for atom     1.
 Variable       Old X    -DE/DX   Delta X   Delta X   Delta X     New X
                                 (Linear)    (Quad)   (Total)
    R1        1.81793  -0.00001  -0.00002  -0.00003  -0.00005   1.81788
    R2        1.81793  -0.00001  -0.00002  -0.00003  -0.00005   1.81788
    A1        1.81142   0.00006   0.00040   0.00000   0.00041   1.81182
         Item               Value     Threshold  Converged?
 Maximum Force            0.000062     0.000450     YES
 RMS     Force            0.000038     0.000300     YES
 Maximum Displacement     0.000214     0.001800     YES
 RMS     Displacement     0.000216     0.001200     YES
 Predicted change in Energy=-1.329349D-08
 Optimization completed.
    -- Stationary point found.
                           ----------------------------
                           !   Optimized Parameters   !
                           ! (Angstroms and Degrees)  !
 --------------------------                            --------------------------
 ! Name  Definition              Value          Derivative Info.                !
 --------------------------------------------------------------------------------
 ! R1    R(1,3)                  0.962          -DE/DX =    0.0                 !
 ! R2    R(2,3)                  0.962          -DE/DX =    0.0                 !
 ! A1    A(1,3,2)              103.7864         -DE/DX =    0.0001              !
 --------------------------------------------------------------------------------
 Lowest energy point so far.  Saving SCF results.
 GradGradGradGradGradGradGradGradGradGradGradGradGradGradGradGradGradGrad

 Largest change from initial coordinates is atom    2       0.001 Angstoms.
 Leave Link  103 at Fri Jul 17 17:50:16 2020, MaxMem=  8589934592 cpu:         5.1
 (Enter /usr/local/Cluster-Apps/gaussian/g09/l202.exe)
                          Input orientation:                          
 ---------------------------------------------------------------------
 Center     Atomic      Atomic             Coordinates (Angstroms)
 Number     Number       Type             X           Y           Z
 ---------------------------------------------------------------------
      1          1           0       -1.165511   -0.840790    0.000000
      2          1           0        0.348322   -0.858139    0.000000
      3          8           0       -0.401791   -0.255822    0.000000
 ---------------------------------------------------------------------
                    Distance matrix (angstroms):
                    1          2          3
     1  H    0.000000
     2  H    1.513932   0.000000
     3  O    0.962006   0.962006   0.000000
 Stoichiometry    H2O
 Framework group  CS[SG(H2O)]
 Deg. of freedom     3
 Full point group                 CS      NOp   2
 RotChk:  IX=0 Diff= 3.14D-16
 Largest Abelian subgroup         CS      NOp   2
 Largest concise Abelian subgroup C1      NOp   1
                         Standard orientation:                         
 ---------------------------------------------------------------------
 Center     Atomic      Atomic             Coordinates (Angstroms)
 Number     Number       Type             X           Y           Z
 ---------------------------------------------------------------------
      1          1           0        0.756966   -0.474945    0.000000
      2          1           0       -0.756966   -0.474945    0.000000
      3          8           0        0.000000    0.118736    0.000000
 ---------------------------------------------------------------------
 Rotational constants (GHZ):    801.0140104    437.5718106    282.9849534
 Leave Link  202 at Fri Jul 17 17:50:16 2020, MaxMem=  8589934592 cpu:         1.4
 (Enter /usr/local/Cluster-Apps/gaussian/g09/l601.exe)
 Copying SCF densities to generalized density rwf, IOpCl= 0 IROHF=0.

 **********************************************************************

            Population analysis using the SCF density.

 **********************************************************************

 Orbital symmetries:
       Occupied  (A') (A') (A') (A') (A")
       Virtual   (A') (A') (A') (A') (A') (A") (A') (A') (A') (A")
                 (A") (A') (A') (A') (A') (A') (A") (A") (A') (A')
                 (A') (A") (A') (A') (A')
 The electronic state is 1-A'.
 Alpha  occ. eigenvalues --  -19.10270  -1.00265  -0.52152  -0.37654  -0.29943
 Alpha virt. eigenvalues --    0.02861   0.10392   0.37817   0.42400   0.75997
 Alpha virt. eigenvalues --    0.76423   0.86215   1.06658   1.23938   1.26846
 Alpha virt. eigenvalues --    1.45880   1.65893   1.92073   2.05072   2.28819
 Alpha virt. eigenvalues --    2.47967   3.11254   3.15447   3.31973   3.58925
 Alpha virt. eigenvalues --    3.82257   4.76464   5.18716   5.60535  49.84212
          Condensed to atoms (all electrons):
               1          2          3
     1  H    0.490301  -0.037315   0.310301
     2  H   -0.037315   0.490301   0.310301
     3  O    0.310301   0.310301   7.852823
 Mulliken charges:
               1
     1  H    0.236713
     2  H    0.236713
     3  O   -0.473426
 Sum of Mulliken charges =   0.00000
 Mulliken charges with hydrogens summed into heavy atoms:
               1
     3  O    0.000000
 Electronic spatial extent (au):  <R**2>=             19.1826
 Charge=              0.0000 electrons
 Dipole moment (field-independent basis, Debye):
    X=              0.0000    Y=             -2.0704    Z=              0.0000  Tot=              2.0704
 Quadrupole moment (field-independent basis, Debye-Ang):
   XX=             -4.3297   YY=             -6.0583   ZZ=             -7.2002
   XY=              0.0000   XZ=              0.0000   YZ=              0.0000
 Traceless Quadrupole moment (field-independent basis, Debye-Ang):
   XX=              1.5330   YY=             -0.1956   ZZ=             -1.3374
   XY=              0.0000   XZ=              0.0000   YZ=              0.0000
 Octapole moment (field-independent basis, Debye-Ang**2):
  XXX=              0.0000  YYY=             -1.1858  ZZZ=              0.0000  XYY=              0.0000
  XXY=             -1.2140  XXZ=              0.0000  XZZ=              0.0000  YZZ=             -0.3129
  YYZ=              0.0000  XYZ=              0.0000
 Hexadecapole moment (field-independent basis, Debye-Ang**3):
 XXXX=             -6.1936 YYYY=             -6.4056 ZZZZ=             -5.3102 XXXY=              0.0000
 XXXZ=              0.0000 YYYX=              0.0000 YYYZ=              0.0000 ZZZX=              0.0000
 ZZZY=              0.0000 XXYY=             -1.7665 XXZZ=             -2.1890 YYZZ=             -2.0081
 XXYZ=              0.0000 YYXZ=              0.0000 ZZXY=              0.0000
 N-N= 9.150767884890D+00 E-N=-1.994713681315D+02  KE= 7.631962811151D+01
 Symmetry A'   KE= 7.165150106210D+01
 Symmetry A"   KE= 4.668127049413D+00
 No NMR shielding tensors so no spin-rotation constants.
 Leave Link  601 at Fri Jul 17 17:50:17 2020, MaxMem=  8589934592 cpu:        12.4
 (Enter /usr/local/Cluster-Apps/gaussian/g09/l9999.exe)
 1\1\GINC-CPU-G-4\FOpt\RB3LYP\6-311G(d,p)\H2O1\AM2145\17-Jul-2020\0\\#p
  B3LYP/6-311G(d,p) Opt\\h2o\\0,1\H,-1.1655107737,-0.840789623,0.\H,0.3
 483217708,-0.8581388647,0.\O,-0.4017909971,-0.2558215123,0.\\Version=E
 S64L-G09RevD.01\State=1-A'\HF=-76.447448\RMSD=2.701e-09\RMSF=2.917e-05
 \Dipole=-0.0093346,-0.8145011,0.\Quadrupole=1.1395966,-0.1452502,-0.99
 43464,-0.0147268,0.,0.\PG=CS [SG(H2O1)]\\@


 Some scientists claim that hydrogen, because it is so
 plentiful, is the basic building block of the universe. 
 I dispute that. I say that stupidity is far more
 abundant than hydrogen, and THAT is the basic building 
 block of the universe.
                   --Frank Zappa
 Job cpu time:       0 days  0 hours  5 minutes 39.9 seconds.
 File lengths (MBytes):  RWF=      5 Int=      0 D2E=      0 Chk=      1 Scr=      1
 Normal termination of Gaussian 09 at Fri Jul 17 17:50:18 2020.
