 Entering Gaussian System, Link 0=g03
 Input=./(CH3)3SiOH.gau
 Output=./(CH3)3SiOH.log
 Initial command:
 /opt//g03/l1.exe /scratch/Gau-20775.inp -scrdir=/scratch/
 Entering Link 1 = /opt//g03/l1.exe PID=     20794.
  
 Copyright (c) 1988,1990,1992,1993,1995,1998,2003,2004,2007, Gaussian, Inc.
                  All Rights Reserved.
  
 This is the Gaussian(R) 03 program.  It is based on the
 the Gaussian(R) 98 system (copyright 1998, Gaussian, Inc.),
 the Gaussian(R) 94 system (copyright 1995, Gaussian, Inc.),
 the Gaussian 92(TM) system (copyright 1992, Gaussian, Inc.),
 the Gaussian 90(TM) system (copyright 1990, Gaussian, Inc.),
 the Gaussian 88(TM) system (copyright 1988, Gaussian, Inc.),
 the Gaussian 86(TM) system (copyright 1986, Carnegie Mellon
 University), and the Gaussian 82(TM) system (copyright 1983,
 Carnegie Mellon University). Gaussian is a federally registered
 trademark of Gaussian, Inc.
  
 This software contains proprietary and confidential information,
 including trade secrets, belonging to Gaussian, Inc.
  
 This software is provided under written license and may be
 used, copied, transmitted, or stored only in accord with that
 written license.
  
 The following legend is applicable only to US Government
 contracts under FAR:
  
                    RESTRICTED RIGHTS LEGEND
  
 Use, reproduction and disclosure by the US Government is
 subject to restrictions as set forth in subparagraphs (a)
 and (c) of the Commercial Computer Software - Restricted
 Rights clause in FAR 52.227-19.
  
 Gaussian, Inc.
 340 Quinnipiac St., Bldg. 40, Wallingford CT 06492
  
  
 ---------------------------------------------------------------
 Warning -- This program may not be used in any manner that
 competes with the business of Gaussian, Inc. or will provide
 assistance to any competitor of Gaussian, Inc.  The licensee
 of this program is prohibited from giving any competitor of
 Gaussian, Inc. access to this program.  By using this program,
 the user acknowledges that Gaussian, Inc. is engaged in the
 business of creating and licensing software in the field of
 computational chemistry and represents and warrants to the
 licensee that it is not a competitor of Gaussian, Inc. and that
 it will not use this program in any manner prohibited above.
 ---------------------------------------------------------------
  

 Cite this work as:
 Gaussian 03, Revision E.01,
 M. J. Frisch, G. W. Trucks, H. B. Schlegel, G. E. Scuseria, 
 M. A. Robb, J. R. Cheeseman, J. A. Montgomery, Jr., T. Vreven, 
 K. N. Kudin, J. C. Burant, J. M. Millam, S. S. Iyengar, J. Tomasi, 
 V. Barone, B. Mennucci, M. Cossi, G. Scalmani, N. Rega, 
 G. A. Petersson, H. Nakatsuji, M. Hada, M. Ehara, K. Toyota, 
 R. Fukuda, J. Hasegawa, M. Ishida, T. Nakajima, Y. Honda, O. Kitao, 
 H. Nakai, M. Klene, X. Li, J. E. Knox, H. P. Hratchian, J. B. Cross, 
 V. Bakken, C. Adamo, J. Jaramillo, R. Gomperts, R. E. Stratmann, 
 O. Yazyev, A. J. Austin, R. Cammi, C. Pomelli, J. W. Ochterski, 
 P. Y. Ayala, K. Morokuma, G. A. Voth, P. Salvador, J. J. Dannenberg, 
 V. G. Zakrzewski, S. Dapprich, A. D. Daniels, M. C. Strain, 
 O. Farkas, D. K. Malick, A. D. Rabuck, K. Raghavachari, 
 J. B. Foresman, J. V. Ortiz, Q. Cui, A. G. Baboul, S. Clifford, 
 J. Cioslowski, B. B. Stefanov, G. Liu, A. Liashenko, P. Piskorz, 
 I. Komaromi, R. L. Martin, D. J. Fox, T. Keith, M. A. Al-Laham, 
 C. Y. Peng, A. Nanayakkara, M. Challacombe, P. M. W. Gill, 
 B. Johnson, W. Chen, M. W. Wong, C. Gonzalez, and J. A. Pople, 
 Gaussian, Inc., Wallingford CT, 2004.
 
 ******************************************
 Gaussian 03:  AM64L-G03RevE.01 11-Sep-2007
                16-Apr-2009 
 ******************************************
 %NProcShared=8
 Will use up to    8 processors via shared memory.
 ----------------------------------------------------------------------
 #p uB971/6-311+G(d,p) opt=(Tight, NewEstmFC, MaxCyc = 200) freq #GFInp
 ut Population=Regular #Integral(Grid=UltraFine) Guess=Mix NoSymmetry
 ----------------------------------------------------------------------
 1/6=200,7=10,10=7,14=-1,18=20,26=3,38=1/1,3;
 2/9=110,15=1,17=6,18=5,40=1/2;
 3/5=4,6=6,7=111,11=2,16=1,24=10,25=1,30=1,74=-20,75=5/1,2,3;
 4/7=2,9=2,13=1/1;
 5/5=2,38=5/2;
 6/28=1/1;
 7/29=1,30=1/1,2,3,16;
 1/6=200,10=7,14=-1,18=20/3(3);
 2/9=110,15=1/2;
 6/19=2,28=1/1;
 99//99;
 2/9=110,15=1/2;
 3/5=4,6=6,7=111,11=2,16=1,25=1,30=1,74=-20,75=5/1,2,3;
 4/5=5,7=2,9=2,16=3/1;
 5/5=2,38=5/2;
 7/30=1/1,2,3,16;
 1/6=200,14=-1,18=20/3(-5);
 2/9=110,15=1/2;
 6/19=2,28=1/1;
 99/9=1/99;
 Leave Link    1 at Thu Apr 16 13:51:17 2009, MaxMem=          0 cpu:       2.0
 (Enter /opt//g03/l101.exe)
 ---------------------------
 #NewComb uB971/6-311+G(d,p)
 ---------------------------
 Symbolic Z-matrix:
 Charge =  0 Multiplicity = 1
 Si                    0.        0.        0. 
 O                     0.        0.        1.66095 
 C                     1.8092    0.       -0.50081 
 C                    -0.87842  -1.53806  -0.65089 
 C                    -0.87841   1.53814  -0.65065 
 H                     1.92536  -0.00004  -1.582 
 H                     2.32111   0.8763   -0.11287 
 H                     2.32116  -0.87623  -0.11279 
 H                    -0.86041  -1.57158  -1.738 
 H                    -0.40472  -2.4459   -0.28662 
 H                    -1.92263  -1.56915  -0.34667 
 H                    -0.86028   1.572    -1.73775 
 H                    -1.92259   1.56935  -0.34634 
 H                    -0.40465   2.44586  -0.28612 
 H                    -0.83038  -0.00013   2.11438 
 
                    Isotopes and Nuclear Properties:
 (Nuclear quadrupole moments (NQMom) in fm**2, nuclear magnetic moments (NMagM)
  in nuclear magnetons)

  Atom         1           2           3           4           5           6           7           8           9          10
 IAtWgt=          28          16          12          12          12           1           1           1           1           1
 AtmWgt=  27.9769284  15.9949146  12.0000000  12.0000000  12.0000000   1.0078250   1.0078250   1.0078250   1.0078250   1.0078250
 NucSpn=           0           0           0           0           0           1           1           1           1           1
 AtZEff=   0.0000000   0.0000000   0.0000000   0.0000000   0.0000000   0.0000000   0.0000000   0.0000000   0.0000000   0.0000000
 NQMom=    0.0000000   0.0000000   0.0000000   0.0000000   0.0000000   0.0000000   0.0000000   0.0000000   0.0000000   0.0000000
 NMagM=    0.0000000   0.0000000   0.0000000   0.0000000   0.0000000   2.7928460   2.7928460   2.7928460   2.7928460   2.7928460

  Atom        11          12          13          14          15
 IAtWgt=           1           1           1           1           1
 AtmWgt=   1.0078250   1.0078250   1.0078250   1.0078250   1.0078250
 NucSpn=           1           1           1           1           1
 AtZEff=   0.0000000   0.0000000   0.0000000   0.0000000   0.0000000
 NQMom=    0.0000000   0.0000000   0.0000000   0.0000000   0.0000000
 NMagM=    2.7928460   2.7928460   2.7928460   2.7928460   2.7928460
 Leave Link  101 at Thu Apr 16 13:51:18 2009, MaxMem=    6291456 cpu:       1.5
 (Enter /opt//g03/l103.exe)

 GradGradGradGradGradGradGradGradGradGradGradGradGradGradGradGradGradGrad
 Berny optimization.
 Initialization pass.
                           ----------------------------
                           !    Initial Parameters    !
                           ! (Angstroms and Degrees)  !
 --------------------------                            --------------------------
 ! Name  Definition              Value          Derivative Info.                !
 --------------------------------------------------------------------------------
 ! R1    R(1,2)                  1.661          estimate D2E/DX2                !
 ! R2    R(1,3)                  1.8772         estimate D2E/DX2                !
 ! R3    R(1,4)                  1.887          estimate D2E/DX2                !
 ! R4    R(1,5)                  1.887          estimate D2E/DX2                !
 ! R5    R(2,15)                 0.9461         estimate D2E/DX2                !
 ! R6    R(3,6)                  1.0874         estimate D2E/DX2                !
 ! R7    R(3,7)                  1.0865         estimate D2E/DX2                !
 ! R8    R(3,8)                  1.0865         estimate D2E/DX2                !
 ! R9    R(4,9)                  1.0878         estimate D2E/DX2                !
 ! R10   R(4,10)                 1.0869         estimate D2E/DX2                !
 ! R11   R(4,11)                 1.0881         estimate D2E/DX2                !
 ! R12   R(5,12)                 1.0878         estimate D2E/DX2                !
 ! R13   R(5,13)                 1.0881         estimate D2E/DX2                !
 ! R14   R(5,14)                 1.0869         estimate D2E/DX2                !
 ! A1    A(2,1,3)              105.4728         estimate D2E/DX2                !
 ! A2    A(2,1,4)              110.1772         estimate D2E/DX2                !
 ! A3    A(2,1,5)              110.1697         estimate D2E/DX2                !
 ! A4    A(3,1,4)              110.8923         estimate D2E/DX2                !
 ! A5    A(3,1,5)              110.8943         estimate D2E/DX2                !
 ! A6    A(4,1,5)              109.193          estimate D2E/DX2                !
 ! A7    A(1,2,15)             118.6368         estimate D2E/DX2                !
 ! A8    A(1,3,6)              111.6046         estimate D2E/DX2                !
 ! A9    A(1,3,7)              111.0282         estimate D2E/DX2                !
 ! A10   A(1,3,8)              111.0297         estimate D2E/DX2                !
 ! A11   A(6,3,7)              107.7411         estimate D2E/DX2                !
 ! A12   A(6,3,8)              107.742          estimate D2E/DX2                !
 ! A13   A(7,3,8)              107.5139         estimate D2E/DX2                !
 ! A14   A(1,4,9)              111.2307         estimate D2E/DX2                !
 ! A15   A(1,4,10)             111.2431         estimate D2E/DX2                !
 ! A16   A(1,4,11)             111.9373         estimate D2E/DX2                !
 ! A17   A(9,4,10)             107.5774         estimate D2E/DX2                !
 ! A18   A(9,4,11)             107.1233         estimate D2E/DX2                !
 ! A19   A(10,4,11)            107.5            estimate D2E/DX2                !
 ! A20   A(1,5,12)             111.2355         estimate D2E/DX2                !
 ! A21   A(1,5,13)             111.9424         estimate D2E/DX2                !
 ! A22   A(1,5,14)             111.2358         estimate D2E/DX2                !
 ! A23   A(12,5,13)            107.1336         estimate D2E/DX2                !
 ! A24   A(12,5,14)            107.5727         estimate D2E/DX2                !
 ! A25   A(13,5,14)            107.4914         estimate D2E/DX2                !
 ! D1    D(3,1,2,15)          -179.9909         estimate D2E/DX2                !
 ! D2    D(4,1,2,15)           -60.2592         estimate D2E/DX2                !
 ! D3    D(5,1,2,15)            60.279          estimate D2E/DX2                !
 ! D4    D(2,1,3,6)            179.9977         estimate D2E/DX2                !
 ! D5    D(2,1,3,7)            -59.7793         estimate D2E/DX2                !
 ! D6    D(2,1,3,8)             59.7726         estimate D2E/DX2                !
 ! D7    D(4,1,3,6)             60.7396         estimate D2E/DX2                !
 ! D8    D(4,1,3,7)           -179.0374         estimate D2E/DX2                !
 ! D9    D(4,1,3,8)            -59.4855         estimate D2E/DX2                !
 ! D10   D(5,1,3,6)            -60.752          estimate D2E/DX2                !
 ! D11   D(5,1,3,7)             59.4709         estimate D2E/DX2                !
 ! D12   D(5,1,3,8)            179.0228         estimate D2E/DX2                !
 ! D13   D(2,1,4,9)           -178.1765         estimate D2E/DX2                !
 ! D14   D(2,1,4,10)           -58.2676         estimate D2E/DX2                !
 ! D15   D(2,1,4,11)            62.0225         estimate D2E/DX2                !
 ! D16   D(3,1,4,9)            -61.7855         estimate D2E/DX2                !
 ! D17   D(3,1,4,10)            58.1234         estimate D2E/DX2                !
 ! D18   D(3,1,4,11)           178.4135         estimate D2E/DX2                !
 ! D19   D(5,1,4,9)             60.6999         estimate D2E/DX2                !
 ! D20   D(5,1,4,10)          -179.3911         estimate D2E/DX2                !
 ! D21   D(5,1,4,11)           -59.1011         estimate D2E/DX2                !
 ! D22   D(2,1,5,12)           178.1611         estimate D2E/DX2                !
 ! D23   D(2,1,5,13)           -62.018          estimate D2E/DX2                !
 ! D24   D(2,1,5,14)            58.2596         estimate D2E/DX2                !
 ! D25   D(3,1,5,12)            61.7735         estimate D2E/DX2                !
 ! D26   D(3,1,5,13)          -178.4056         estimate D2E/DX2                !
 ! D27   D(3,1,5,14)           -58.128          estimate D2E/DX2                !
 ! D28   D(4,1,5,12)           -60.7108         estimate D2E/DX2                !
 ! D29   D(4,1,5,13)            59.1102         estimate D2E/DX2                !
 ! D30   D(4,1,5,14)           179.3878         estimate D2E/DX2                !
 --------------------------------------------------------------------------------
 Trust Radius=3.00D-01 FncErr=1.00D-07 GrdErr=1.00D-06
 Number of steps in this run= 100 maximum allowed number of steps= 100.
 GradGradGradGradGradGradGradGradGradGradGradGradGradGradGradGradGradGrad

 Leave Link  103 at Thu Apr 16 13:51:18 2009, MaxMem=    6291456 cpu:       0.1
 (Enter /opt//g03/l202.exe)
                          Input orientation:                          
 ---------------------------------------------------------------------
 Center     Atomic     Atomic              Coordinates (Angstroms)
 Number     Number      Type              X           Y           Z
 ---------------------------------------------------------------------
    1         14             0        0.000000    0.000000    0.000000
    2          8             0        0.000000    0.000000    1.660953
    3          6             0        1.809202    0.000000   -0.500810
    4          6             0       -0.878421   -1.538061   -0.650887
    5          6             0       -0.878410    1.538139   -0.650646
    6          1             0        1.925355   -0.000040   -1.581998
    7          1             0        2.321108    0.876300   -0.112874
    8          1             0        2.321158   -0.876229   -0.112788
    9          1             0       -0.860410   -1.571583   -1.737996
   10          1             0       -0.404717   -2.445904   -0.286619
   11          1             0       -1.922633   -1.569150   -0.346674
   12          1             0       -0.860280    1.572001   -1.737752
   13          1             0       -1.922594    1.569347   -0.346342
   14          1             0       -0.404646    2.445859   -0.286122
   15          1             0       -0.830379   -0.000132    2.114383
 ---------------------------------------------------------------------
                    Distance matrix (angstroms):
                    1          2          3          4          5
     1  Si   0.000000
     2  O    1.660953   0.000000
     3  C    1.877238   2.818941   0.000000
     4  C    1.887037   2.912363   3.100237   0.000000
     5  C    1.887012   2.912210   3.100255   3.076200   0.000000
     6  H    2.491929   3.771435   1.087409   3.330711   3.330842
     7  H    2.483583   3.049903   1.086482   4.044204   3.311215
     8  H    2.483601   3.049870   1.086479   3.311326   4.044218
     9  H    2.496159   3.842269   3.335765   1.087775   3.294393
    10  H    2.495675   3.152662   3.306019   1.086860   4.028585
    11  H    2.505780   3.192071   4.051245   1.088067   3.292119
    12  H    2.496207   3.842195   3.335768   3.294555   1.087784
    13  H    2.505827   3.191935   4.051298   3.292268   1.088069
    14  H    2.495562   3.152311   3.305970   4.028540   1.086870
    15  H    2.271595   0.946112   3.715726   3.164530   3.164486
                    6          7          8          9         10
     6  H    0.000000
     7  H    1.755824   0.000000
     8  H    1.755832   1.752529   0.000000
     9  H    3.202276   4.330729   3.639669   0.000000
    10  H    3.617940   4.300854   3.150316   1.754591   0.000000
    11  H    4.335337   4.903491   4.306345   1.750457   1.753959
    12  H    3.202395   3.639431   4.330807   3.143584   4.296148
    13  H    4.335497   4.306255   4.903552   3.595883   4.292989
    14  H    3.618096   3.150121   4.300735   4.295986   4.891763
    15  H    4.610564   3.957357   3.957275   4.160671   3.453665
                   11         12         13         14         15
    11  H    0.000000
    12  H    3.595903   0.000000
    13  H    3.138497   1.750583   0.000000
    14  H    4.292814   1.754554   1.753872   0.000000
    15  H    3.116350   4.160702   3.116306   3.453483   0.000000
 Symmetry turned off by external request.
 Stoichiometry    C3H10OSi
 Framework group  C1[X(C3H10OSi)]
 Deg. of freedom    39
 Full point group                 C1
 Rotational constants (GHZ):      3.3510395      3.2986764      3.0995576
 Leave Link  202 at Thu Apr 16 13:51:18 2009, MaxMem=    6291456 cpu:       0.4
 (Enter /opt//g03/l301.exe)
 Standard basis: 6-311+G(d,p) (5D, 7F)
 AO basis set in the form of general basis input:
      1 0
 S   6 1.00       0.000000000000
      0.6937923000D+05  0.7570004081D-03
      0.1035494000D+05  0.5932003198D-02
      0.2333879600D+04  0.3108801676D-01
      0.6571429500D+03  0.1249670674D+00
      0.2143011300D+03  0.3868972086D+00
      0.7762916800D+02  0.5548882991D+00
 S   3 1.00       0.000000000000
      0.7762916800D+02  0.1778809451D+00
      0.3063080700D+02  0.6277648062D+00
      0.1280129500D+02  0.2476229236D+00
 S   1 1.00       0.000000000000
      0.3926866000D+01  0.1000000000D+01
 S   1 1.00       0.000000000000
      0.1452343000D+01  0.1000000000D+01
 S   1 1.00       0.000000000000
      0.2562340000D+00  0.1000000000D+01
 S   1 1.00       0.000000000000
      0.9427900000D-01  0.1000000000D+01
 P   4 1.00       0.000000000000
      0.3354831900D+03  0.8865998148D-02
      0.7890036600D+02  0.6829898573D-01
      0.2498815000D+02  0.2909579392D+00
      0.9219711000D+01  0.7321168470D+00
 P   2 1.00       0.000000000000
      0.3621140000D+01  0.6198794404D+00
      0.1451310000D+01  0.4391483120D+00
 P   1 1.00       0.000000000000
      0.5049770000D+00  0.1000000000D+01
 P   1 1.00       0.000000000000
      0.1863170000D+00  0.1000000000D+01
 P   1 1.00       0.000000000000
      0.6543200000D-01  0.1000000000D+01
 SP   1 1.00       0.000000000000
      0.3310000000D-01  0.1000000000D+01  0.1000000000D+01
 D   1 1.00       0.000000000000
      0.4500000000D+00  0.1000000000D+01
 ****
      2 0
 S   6 1.00       0.000000000000
      0.8588500000D+04  0.1895150083D-02
      0.1297230000D+04  0.1438590063D-01
      0.2992960000D+03  0.7073200310D-01
      0.8737710000D+02  0.2400010105D+00
      0.2567890000D+02  0.5947970261D+00
      0.3740040000D+01  0.2808020123D+00
 SP   3 1.00       0.000000000000
      0.4211750000D+02  0.1138890124D+00  0.3651139738D-01
      0.9628370000D+01  0.9208111006D+00  0.2371529830D+00
      0.2853320000D+01 -0.3274470358D-02  0.8197019412D+00
 SP   1 1.00       0.000000000000
      0.9056610000D+00  0.1000000000D+01  0.1000000000D+01
 SP   1 1.00       0.000000000000
      0.2556110000D+00  0.1000000000D+01  0.1000000000D+01
 SP   1 1.00       0.000000000000
      0.8450000000D-01  0.1000000000D+01  0.1000000000D+01
 D   1 1.00       0.000000000000
      0.1292000000D+01  0.1000000000D+01
 ****
      3 0
 S   6 1.00       0.000000000000
      0.4563240000D+04  0.1966650249D-02
      0.6820240000D+03  0.1523060193D-01
      0.1549730000D+03  0.7612690966D-01
      0.4445530000D+02  0.2608010331D+00
      0.1302900000D+02  0.6164620782D+00
      0.1827730000D+01  0.2210060280D+00
 SP   3 1.00       0.000000000000
      0.2096420000D+02  0.1146600807D+00  0.4024869267D-01
      0.4803310000D+01  0.9199996477D+00  0.2375939567D+00
      0.1459330000D+01 -0.3030682134D-02  0.8158538515D+00
 SP   1 1.00       0.000000000000
      0.4834560000D+00  0.1000000000D+01  0.1000000000D+01
 SP   1 1.00       0.000000000000
      0.1455850000D+00  0.1000000000D+01  0.1000000000D+01
 SP   1 1.00       0.000000000000
      0.4380000000D-01  0.1000000000D+01  0.1000000000D+01
 D   1 1.00       0.000000000000
      0.6260000000D+00  0.1000000000D+01
 ****
      4 0
 S   6 1.00       0.000000000000
      0.4563240000D+04  0.1966650249D-02
      0.6820240000D+03  0.1523060193D-01
      0.1549730000D+03  0.7612690966D-01
      0.4445530000D+02  0.2608010331D+00
      0.1302900000D+02  0.6164620782D+00
      0.1827730000D+01  0.2210060280D+00
 SP   3 1.00       0.000000000000
      0.2096420000D+02  0.1146600807D+00  0.4024869267D-01
      0.4803310000D+01  0.9199996477D+00  0.2375939567D+00
      0.1459330000D+01 -0.3030682134D-02  0.8158538515D+00
 SP   1 1.00       0.000000000000
      0.4834560000D+00  0.1000000000D+01  0.1000000000D+01
 SP   1 1.00       0.000000000000
      0.1455850000D+00  0.1000000000D+01  0.1000000000D+01
 SP   1 1.00       0.000000000000
      0.4380000000D-01  0.1000000000D+01  0.1000000000D+01
 D   1 1.00       0.000000000000
      0.6260000000D+00  0.1000000000D+01
 ****
      5 0
 S   6 1.00       0.000000000000
      0.4563240000D+04  0.1966650249D-02
      0.6820240000D+03  0.1523060193D-01
      0.1549730000D+03  0.7612690966D-01
      0.4445530000D+02  0.2608010331D+00
      0.1302900000D+02  0.6164620782D+00
      0.1827730000D+01  0.2210060280D+00
 SP   3 1.00       0.000000000000
      0.2096420000D+02  0.1146600807D+00  0.4024869267D-01
      0.4803310000D+01  0.9199996477D+00  0.2375939567D+00
      0.1459330000D+01 -0.3030682134D-02  0.8158538515D+00
 SP   1 1.00       0.000000000000
      0.4834560000D+00  0.1000000000D+01  0.1000000000D+01
 SP   1 1.00       0.000000000000
      0.1455850000D+00  0.1000000000D+01  0.1000000000D+01
 SP   1 1.00       0.000000000000
      0.4380000000D-01  0.1000000000D+01  0.1000000000D+01
 D   1 1.00       0.000000000000
      0.6260000000D+00  0.1000000000D+01
 ****
      6 0
 S   3 1.00       0.000000000000
      0.3386500000D+02  0.2549381454D-01
      0.5094790000D+01  0.1903731086D+00
      0.1158790000D+01  0.8521614860D+00
 S   1 1.00       0.000000000000
      0.3258400000D+00  0.1000000000D+01
 S   1 1.00       0.000000000000
      0.1027410000D+00  0.1000000000D+01
 P   1 1.00       0.000000000000
      0.7500000000D+00  0.1000000000D+01
 ****
      7 0
 S   3 1.00       0.000000000000
      0.3386500000D+02  0.2549381454D-01
      0.5094790000D+01  0.1903731086D+00
      0.1158790000D+01  0.8521614860D+00
 S   1 1.00       0.000000000000
      0.3258400000D+00  0.1000000000D+01
 S   1 1.00       0.000000000000
      0.1027410000D+00  0.1000000000D+01
 P   1 1.00       0.000000000000
      0.7500000000D+00  0.1000000000D+01
 ****
      8 0
 S   3 1.00       0.000000000000
      0.3386500000D+02  0.2549381454D-01
      0.5094790000D+01  0.1903731086D+00
      0.1158790000D+01  0.8521614860D+00
 S   1 1.00       0.000000000000
      0.3258400000D+00  0.1000000000D+01
 S   1 1.00       0.000000000000
      0.1027410000D+00  0.1000000000D+01
 P   1 1.00       0.000000000000
      0.7500000000D+00  0.1000000000D+01
 ****
      9 0
 S   3 1.00       0.000000000000
      0.3386500000D+02  0.2549381454D-01
      0.5094790000D+01  0.1903731086D+00
      0.1158790000D+01  0.8521614860D+00
 S   1 1.00       0.000000000000
      0.3258400000D+00  0.1000000000D+01
 S   1 1.00       0.000000000000
      0.1027410000D+00  0.1000000000D+01
 P   1 1.00       0.000000000000
      0.7500000000D+00  0.1000000000D+01
 ****
     10 0
 S   3 1.00       0.000000000000
      0.3386500000D+02  0.2549381454D-01
      0.5094790000D+01  0.1903731086D+00
      0.1158790000D+01  0.8521614860D+00
 S   1 1.00       0.000000000000
      0.3258400000D+00  0.1000000000D+01
 S   1 1.00       0.000000000000
      0.1027410000D+00  0.1000000000D+01
 P   1 1.00       0.000000000000
      0.7500000000D+00  0.1000000000D+01
 ****
     11 0
 S   3 1.00       0.000000000000
      0.3386500000D+02  0.2549381454D-01
      0.5094790000D+01  0.1903731086D+00
      0.1158790000D+01  0.8521614860D+00
 S   1 1.00       0.000000000000
      0.3258400000D+00  0.1000000000D+01
 S   1 1.00       0.000000000000
      0.1027410000D+00  0.1000000000D+01
 P   1 1.00       0.000000000000
      0.7500000000D+00  0.1000000000D+01
 ****
     12 0
 S   3 1.00       0.000000000000
      0.3386500000D+02  0.2549381454D-01
      0.5094790000D+01  0.1903731086D+00
      0.1158790000D+01  0.8521614860D+00
 S   1 1.00       0.000000000000
      0.3258400000D+00  0.1000000000D+01
 S   1 1.00       0.000000000000
      0.1027410000D+00  0.1000000000D+01
 P   1 1.00       0.000000000000
      0.7500000000D+00  0.1000000000D+01
 ****
     13 0
 S   3 1.00       0.000000000000
      0.3386500000D+02  0.2549381454D-01
      0.5094790000D+01  0.1903731086D+00
      0.1158790000D+01  0.8521614860D+00
 S   1 1.00       0.000000000000
      0.3258400000D+00  0.1000000000D+01
 S   1 1.00       0.000000000000
      0.1027410000D+00  0.1000000000D+01
 P   1 1.00       0.000000000000
      0.7500000000D+00  0.1000000000D+01
 ****
     14 0
 S   3 1.00       0.000000000000
      0.3386500000D+02  0.2549381454D-01
      0.5094790000D+01  0.1903731086D+00
      0.1158790000D+01  0.8521614860D+00
 S   1 1.00       0.000000000000
      0.3258400000D+00  0.1000000000D+01
 S   1 1.00       0.000000000000
      0.1027410000D+00  0.1000000000D+01
 P   1 1.00       0.000000000000
      0.7500000000D+00  0.1000000000D+01
 ****
     15 0
 S   3 1.00       0.000000000000
      0.3386500000D+02  0.2549381454D-01
      0.5094790000D+01  0.1903731086D+00
      0.1158790000D+01  0.8521614860D+00
 S   1 1.00       0.000000000000
      0.3258400000D+00  0.1000000000D+01
 S   1 1.00       0.000000000000
      0.1027410000D+00  0.1000000000D+01
 P   1 1.00       0.000000000000
      0.7500000000D+00  0.1000000000D+01
 ****

 Integral buffers will be    131072 words long.
 Raffenetti 2 integral format.
 Two-electron integral symmetry is turned off.
   178 basis functions,   274 primitive gaussians,   183 cartesian basis functions
    25 alpha electrons       25 beta electrons
       nuclear repulsion energy       250.3501788747 Hartrees.
 IExCor=1614 DFT=T Ex=B97-1+HF Corr=B97-1 ExCW=0 ScaHFX=  0.210000
 ScaDFX=  1.000000  1.000000  1.000000  1.000000
 IRadAn=      5 IRanWt=     -1 IRanGd=            0 ICorTp=0
 NAtoms=   15 NActive=   15 NUniq=   15 SFac= 7.50D-01 NAtFMM=   80 NAOKFM=F Big=F
 Leave Link  301 at Thu Apr 16 13:51:19 2009, MaxMem=    6291456 cpu:       0.2
 (Enter /opt//g03/l302.exe)
 NPDir=0 NMtPBC=     1 NCelOv=     1 NCel=       1 NClECP=     1 NCelD=      1
         NCelK=      1 NCelE2=     1 NClLst=     1 CellRange=     0.0.
 One-electron integrals computed using PRISM.
 PrsmSu:  requested number of processors reduced to:   6 ShMem   1 Linda.
 NBasis=   178 RedAO= T  NBF=   178
 NBsUse=   178 1.00D-06 NBFU=   178
 Precomputing XC quadrature grid using
 IXCGrd= 2 IRadAn=           5 IRanWt=          -1 IRanGd=           0.
 NRdTot=    1267 NPtTot=      340156 NUsed=      349086 NTot=      349118
 NSgBfM=   183   183   183   183.
 Leave Link  302 at Thu Apr 16 13:51:20 2009, MaxMem=    6291456 cpu:       4.2
 (Enter /opt//g03/l303.exe)
 DipDrv:  MaxL=1.
 Leave Link  303 at Thu Apr 16 13:51:20 2009, MaxMem=    6291456 cpu:       0.4
 (Enter /opt//g03/l401.exe)
 SCF N**3 symmetry information disabled.
 Harris functional with IExCor= 1614 diagonalized for initial guess.
 ExpMin= 3.31D-02 ExpMax= 6.94D+04 ExpMxC= 2.33D+03 IAcc=3 IRadAn=         5 AccDes= 0.00D+00
 HarFok:  IExCor=1614 AccDes= 0.00D+00 IRadAn=         5 IDoV=1
 ScaDFX=  1.000000  1.000000  1.000000  1.000000
 CalDSu:  requested number of processors reduced to:   4 ShMem   1 Linda.
 Harris En= -475.339945622168    
 <S**2> of initial guess= 1.0000
 Leave Link  401 at Thu Apr 16 13:51:24 2009, MaxMem=    6291456 cpu:      14.0
 (Enter /opt//g03/l502.exe)
 UHF open shell SCF:
 Requested convergence on RMS density matrix=1.00D-08 within 128 cycles.
 Requested convergence on MAX density matrix=1.00D-06.
 Requested convergence on             energy=1.00D-06.
 No special actions if energy rises.
 Using DIIS extrapolation, IDIIS=  1040.
 Two-electron integral symmetry not used.
       349085 words used for storage of precomputed grid.
 IEnd=    485905 IEndB=    485905 NGot=   6291456 MDV=   5855864
 LenX=   5855864
 Fock matrices will be formed incrementally for  20 cycles.

 Cycle   1  Pass 1  IDiag  1:
 Symmetry not used in FoFDir.
 MinBra= 0 MaxBra= 2 Meth= 1.
 IRaf=       0 NMat=   1 IRICut=       1 DoRegI=T DoRafI=F ISym2E= 0 JSym2E=0.
 PrsmSu:  requested number of processors reduced to:   6 ShMem   1 Linda.
 CalDSu:  requested number of processors reduced to:   4 ShMem   1 Linda.
 E= -484.578526905564    
 DIIS: error= 7.26D-02 at cycle   1 NSaved=   1.
 NSaved= 1 IEnMin= 1 EnMin= -484.578526905564     IErMin= 1 ErrMin= 7.26D-02
 ErrMax= 7.26D-02 EMaxC= 1.00D-01 BMatC= 4.23D+00 BMatP= 4.23D+00
 IDIUse=3 WtCom= 2.74D-01 WtEn= 7.26D-01
 Coeff-Com:  0.100D+01
 Coeff-En:   0.100D+01
 Coeff:      0.100D+01
 Gap=     0.036 Goal=   None    Shift=    0.000
 Gap=     0.036 Goal=   None    Shift=    0.000
 GapD=    0.036 DampG=0.250 DampE=0.500 DampFc=0.2500 IDamp=-1.
 Damping current iteration by 2.50D-01
 RMSDP=1.55D-01 MaxDP=1.92D+01              OVMax= 4.00D-01

 Cycle   2  Pass 1  IDiag  1:
 RMSU=  3.81D-03    CP:  7.53D-01
 PrsmSu:  requested number of processors reduced to:   6 ShMem   1 Linda.
 CalDSu:  requested number of processors reduced to:   4 ShMem   1 Linda.
 E= -484.747846044387     Delta-E=       -0.169319138823 Rises=F Damp=T
 DIIS: error= 5.04D-02 at cycle   2 NSaved=   2.
 NSaved= 2 IEnMin= 2 EnMin= -484.747846044387     IErMin= 2 ErrMin= 5.04D-02
 ErrMax= 5.04D-02 EMaxC= 1.00D-01 BMatC= 1.77D+00 BMatP= 4.23D+00
 IDIUse=3 WtCom= 4.96D-01 WtEn= 5.04D-01
 Coeff-Com: -0.126D+01 0.226D+01
 Coeff-En:   0.000D+00 0.100D+01
 Coeff:     -0.622D+00 0.162D+01
 Gap=     0.295 Goal=   None    Shift=    0.000
 Gap=     0.295 Goal=   None    Shift=    0.000
 RMSDP=1.16D-01 MaxDP=1.44D+01 DE=-1.69D-01 OVMax= 1.64D-01

 Cycle   3  Pass 1  IDiag  1:
 RMSU=  4.37D-03    CP:  1.41D-02  3.00D+00
 PrsmSu:  requested number of processors reduced to:   6 ShMem   1 Linda.
 CalDSu:  requested number of processors reduced to:   4 ShMem   1 Linda.
 E= -485.107823009982     Delta-E=       -0.359976965595 Rises=F Damp=F
 DIIS: error= 9.15D-03 at cycle   3 NSaved=   3.
 NSaved= 3 IEnMin= 3 EnMin= -485.107823009982     IErMin= 3 ErrMin= 9.15D-03
 ErrMax= 9.15D-03 EMaxC= 1.00D-01 BMatC= 5.21D-02 BMatP= 1.77D+00
 IDIUse=3 WtCom= 9.08D-01 WtEn= 9.15D-02
 Coeff-Com: -0.470D-01 0.170D+00 0.877D+00
 Coeff-En:   0.000D+00 0.000D+00 0.100D+01
 Coeff:     -0.427D-01 0.154D+00 0.888D+00
 Gap=     0.277 Goal=   None    Shift=    0.000
 Gap=     0.277 Goal=   None    Shift=    0.000
 RMSDP=1.31D-03 MaxDP=5.09D-02 DE=-3.60D-01 OVMax= 3.47D-02

 Cycle   4  Pass 1  IDiag  1:
 RMSU=  1.22D-03    CP:  1.11D-02  3.00D+00  1.01D+00
 PrsmSu:  requested number of processors reduced to:   6 ShMem   1 Linda.
 CalDSu:  requested number of processors reduced to:   4 ShMem   1 Linda.
 E= -485.112267025867     Delta-E=       -0.004444015885 Rises=F Damp=F
 DIIS: error= 3.57D-03 at cycle   4 NSaved=   4.
 NSaved= 4 IEnMin= 4 EnMin= -485.112267025867     IErMin= 4 ErrMin= 3.57D-03
 ErrMax= 3.57D-03 EMaxC= 1.00D-01 BMatC= 1.00D-02 BMatP= 5.21D-02
 IDIUse=3 WtCom= 9.64D-01 WtEn= 3.57D-02
 Coeff-Com:  0.219D-01-0.205D-01 0.311D+00 0.688D+00
 Coeff-En:   0.000D+00 0.000D+00 0.000D+00 0.100D+01
 Coeff:      0.212D-01-0.198D-01 0.299D+00 0.699D+00
 Gap=     0.278 Goal=   None    Shift=    0.000
 Gap=     0.278 Goal=   None    Shift=    0.000
 RMSDP=3.42D-04 MaxDP=1.33D-02 DE=-4.44D-03 OVMax= 1.17D-02

 Cycle   5  Pass 1  IDiag  1:
 RMSU=  3.31D-04    CP:  1.09D-02  3.00D+00  1.01D+00  1.07D+00
 PrsmSu:  requested number of processors reduced to:   6 ShMem   1 Linda.
 CalDSu:  requested number of processors reduced to:   4 ShMem   1 Linda.
 E= -485.113443337475     Delta-E=       -0.001176311608 Rises=F Damp=F
 DIIS: error= 2.35D-03 at cycle   5 NSaved=   5.
 NSaved= 5 IEnMin= 5 EnMin= -485.113443337475     IErMin= 5 ErrMin= 2.35D-03
 ErrMax= 2.35D-03 EMaxC= 1.00D-01 BMatC= 1.81D-03 BMatP= 1.00D-02
 IDIUse=3 WtCom= 9.76D-01 WtEn= 2.35D-02
 Coeff-Com: -0.786D-02 0.108D-01 0.731D-01 0.339D+00 0.585D+00
 Coeff-En:   0.000D+00 0.000D+00 0.000D+00 0.152D+00 0.848D+00
 Coeff:     -0.767D-02 0.106D-01 0.713D-01 0.334D+00 0.591D+00
 Gap=     0.280 Goal=   None    Shift=    0.000
 Gap=     0.280 Goal=   None    Shift=    0.000
 RMSDP=1.13D-04 MaxDP=3.02D-03 DE=-1.18D-03 OVMax= 4.17D-03

 Cycle   6  Pass 1  IDiag  1:
 RMSU=  7.40D-05    CP:  1.08D-02  3.00D+00  1.01D+00  1.12D+00  8.41D-01
 PrsmSu:  requested number of processors reduced to:   6 ShMem   1 Linda.
 CalDSu:  requested number of processors reduced to:   4 ShMem   1 Linda.
 E= -485.113803769538     Delta-E=       -0.000360432063 Rises=F Damp=F
 DIIS: error= 2.59D-04 at cycle   6 NSaved=   6.
 NSaved= 6 IEnMin= 6 EnMin= -485.113803769538     IErMin= 6 ErrMin= 2.59D-04
 ErrMax= 2.59D-04 EMaxC= 1.00D-01 BMatC= 4.43D-05 BMatP= 1.81D-03
 IDIUse=3 WtCom= 9.97D-01 WtEn= 2.59D-03
 Coeff-Com: -0.698D-02 0.941D-02-0.590D-02 0.304D-01 0.153D+00 0.820D+00
 Coeff-En:   0.000D+00 0.000D+00 0.000D+00 0.000D+00 0.000D+00 0.100D+01
 Coeff:     -0.696D-02 0.939D-02-0.589D-02 0.303D-01 0.152D+00 0.821D+00
 Gap=     0.279 Goal=   None    Shift=    0.000
 Gap=     0.279 Goal=   None    Shift=    0.000
 RMSDP=3.62D-05 MaxDP=1.34D-03 DE=-3.60D-04 OVMax= 1.68D-03

 Cycle   7  Pass 1  IDiag  1:
 RMSU=  2.27D-05    CP:  1.07D-02  3.00D+00  1.01D+00  1.14D+00  8.77D-01
                    CP:  1.12D+00
 PrsmSu:  requested number of processors reduced to:   6 ShMem   1 Linda.
 CalDSu:  requested number of processors reduced to:   4 ShMem   1 Linda.
 E= -485.113816487633     Delta-E=       -0.000012718094 Rises=F Damp=F
 DIIS: error= 1.29D-04 at cycle   7 NSaved=   7.
 NSaved= 7 IEnMin= 7 EnMin= -485.113816487633     IErMin= 7 ErrMin= 1.29D-04
 ErrMax= 1.29D-04 EMaxC= 1.00D-01 BMatC= 8.62D-06 BMatP= 4.43D-05
 IDIUse=3 WtCom= 9.99D-01 WtEn= 1.29D-03
 Coeff-Com:  0.323D-04-0.164D-03-0.906D-02-0.279D-01-0.889D-02 0.285D+00
 Coeff-Com:  0.760D+00
 Coeff-En:   0.000D+00 0.000D+00 0.000D+00 0.000D+00 0.000D+00 0.000D+00
 Coeff-En:   0.100D+01
 Coeff:      0.323D-04-0.164D-03-0.904D-02-0.278D-01-0.887D-02 0.285D+00
 Coeff:      0.761D+00
 Gap=     0.279 Goal=   None    Shift=    0.000
 Gap=     0.279 Goal=   None    Shift=    0.000
 RMSDP=1.40D-05 MaxDP=4.16D-04 DE=-1.27D-05 OVMax= 6.79D-04

 Cycle   8  Pass 1  IDiag  1:
 RMSU=  8.65D-06    CP:  1.07D-02  3.00D+00  1.01D+00  1.14D+00  8.98D-01
                    CP:  1.19D+00  8.44D-01
 PrsmSu:  requested number of processors reduced to:   6 ShMem   1 Linda.
 CalDSu:  requested number of processors reduced to:   4 ShMem   1 Linda.
 E= -485.113819027771     Delta-E=       -0.000002540138 Rises=F Damp=F
 DIIS: error= 4.16D-05 at cycle   8 NSaved=   8.
 NSaved= 8 IEnMin= 8 EnMin= -485.113819027771     IErMin= 8 ErrMin= 4.16D-05
 ErrMax= 4.16D-05 EMaxC= 1.00D-01 BMatC= 1.00D-06 BMatP= 8.62D-06
 IDIUse=1 WtCom= 1.00D+00 WtEn= 0.00D+00
 Coeff-Com:  0.139D-02-0.198D-02-0.226D-02-0.126D-01-0.184D-01-0.172D-01
 Coeff-Com:  0.257D+00 0.794D+00
 Coeff:      0.139D-02-0.198D-02-0.226D-02-0.126D-01-0.184D-01-0.172D-01
 Coeff:      0.257D+00 0.794D+00
 Gap=     0.279 Goal=   None    Shift=    0.000
 Gap=     0.279 Goal=   None    Shift=    0.000
 RMSDP=4.18D-06 MaxDP=1.23D-04 DE=-2.54D-06 OVMax= 2.32D-04

 Cycle   9  Pass 1  IDiag  1:
 RMSU=  3.14D-06    CP:  1.07D-02  3.00D+00  1.01D+00  1.14D+00  9.00D-01
                    CP:  1.19D+00  9.15D-01  8.87D-01
 PrsmSu:  requested number of processors reduced to:   6 ShMem   1 Linda.
 CalDSu:  requested number of processors reduced to:   4 ShMem   1 Linda.
 E= -485.113819323423     Delta-E=       -0.000000295652 Rises=F Damp=F
 DIIS: error= 8.89D-06 at cycle   9 NSaved=   9.
 NSaved= 9 IEnMin= 9 EnMin= -485.113819323423     IErMin= 9 ErrMin= 8.89D-06
 ErrMax= 8.89D-06 EMaxC= 1.00D-01 BMatC= 5.87D-08 BMatP= 1.00D-06
 IDIUse=1 WtCom= 1.00D+00 WtEn= 0.00D+00
 Coeff-Com:  0.174D-03-0.246D-03 0.748D-04-0.119D-02-0.415D-02-0.240D-01
 Coeff-Com:  0.127D-01 0.200D+00 0.816D+00
 Coeff:      0.174D-03-0.246D-03 0.748D-04-0.119D-02-0.415D-02-0.240D-01
 Coeff:      0.127D-01 0.200D+00 0.816D+00
 Gap=     0.279 Goal=   None    Shift=    0.000
 Gap=     0.279 Goal=   None    Shift=    0.000
 RMSDP=9.85D-07 MaxDP=2.48D-05 DE=-2.96D-07 OVMax= 4.75D-05

 Cycle  10  Pass 1  IDiag  1:
 RMSU=  7.38D-07    CP:  1.07D-02  3.00D+00  1.01D+00  1.14D+00  8.99D-01
                    CP:  1.19D+00  9.21D-01  9.35D-01  9.87D-01
 PrsmSu:  requested number of processors reduced to:   6 ShMem   1 Linda.
 CalDSu:  requested number of processors reduced to:   4 ShMem   1 Linda.
 E= -485.113819335786     Delta-E=       -0.000000012363 Rises=F Damp=F
 DIIS: error= 5.90D-06 at cycle  10 NSaved=  10.
 NSaved=10 IEnMin=10 EnMin= -485.113819335786     IErMin=10 ErrMin= 5.90D-06
 ErrMax= 5.90D-06 EMaxC= 1.00D-01 BMatC= 1.61D-08 BMatP= 5.87D-08
 IDIUse=1 WtCom= 1.00D+00 WtEn= 0.00D+00
 Coeff-Com: -0.526D-04 0.778D-04 0.150D-03 0.156D-03-0.994D-03-0.962D-02
 Coeff-Com: -0.100D-01 0.404D-01 0.418D+00 0.562D+00
 Coeff:     -0.526D-04 0.778D-04 0.150D-03 0.156D-03-0.994D-03-0.962D-02
 Coeff:     -0.100D-01 0.404D-01 0.418D+00 0.562D+00
 Gap=     0.279 Goal=   None    Shift=    0.000
 Gap=     0.279 Goal=   None    Shift=    0.000
 RMSDP=3.59D-07 MaxDP=8.02D-06 DE=-1.24D-08 OVMax= 1.52D-05

 Cycle  11  Pass 1  IDiag  1:
 RMSU=  1.73D-07    CP:  1.07D-02  3.00D+00  1.01D+00  1.14D+00  8.99D-01
                    CP:  1.19D+00  9.22D-01  9.46D-01  1.00D+00  7.04D-01
 PrsmSu:  requested number of processors reduced to:   6 ShMem   1 Linda.
 CalDSu:  requested number of processors reduced to:   4 ShMem   1 Linda.
 E= -485.113819339833     Delta-E=       -0.000000004047 Rises=F Damp=F
 DIIS: error= 4.38D-07 at cycle  11 NSaved=  11.
 NSaved=11 IEnMin=11 EnMin= -485.113819339833     IErMin=11 ErrMin= 4.38D-07
 ErrMax= 4.38D-07 EMaxC= 1.00D-01 BMatC= 1.49D-10 BMatP= 1.61D-08
 IDIUse=1 WtCom= 1.00D+00 WtEn= 0.00D+00
 Coeff-Com: -0.101D-04 0.155D-04 0.276D-04 0.884D-04-0.752D-04-0.575D-03
 Coeff-Com: -0.135D-02-0.132D-02 0.249D-01 0.841D-01 0.894D+00
 Coeff:     -0.101D-04 0.155D-04 0.276D-04 0.884D-04-0.752D-04-0.575D-03
 Coeff:     -0.135D-02-0.132D-02 0.249D-01 0.841D-01 0.894D+00
 Gap=     0.279 Goal=   None    Shift=    0.000
 Gap=     0.279 Goal=   None    Shift=    0.000
 RMSDP=8.02D-08 MaxDP=2.74D-06 DE=-4.05D-09 OVMax= 2.56D-06

 Cycle  12  Pass 1  IDiag  1:
 RMSU=  5.19D-08    CP:  1.07D-02  3.00D+00  1.01D+00  1.14D+00  8.99D-01
                    CP:  1.19D+00  9.22D-01  9.44D-01  1.01D+00  7.25D-01
                    CP:  1.04D+00
 PrsmSu:  requested number of processors reduced to:   6 ShMem   1 Linda.
 CalDSu:  requested number of processors reduced to:   4 ShMem   1 Linda.
 E= -485.113819339873     Delta-E=       -0.000000000041 Rises=F Damp=F
 DIIS: error= 1.70D-07 at cycle  12 NSaved=  12.
 NSaved=12 IEnMin=12 EnMin= -485.113819339873     IErMin=12 ErrMin= 1.70D-07
 ErrMax= 1.70D-07 EMaxC= 1.00D-01 BMatC= 1.70D-11 BMatP= 1.49D-10
 IDIUse=1 WtCom= 1.00D+00 WtEn= 0.00D+00
 Coeff-Com:  0.191D-05-0.255D-05 0.136D-05 0.233D-04 0.277D-04 0.352D-03
 Coeff-Com:  0.183D-03-0.255D-02-0.163D-01-0.671D-02 0.261D+00 0.764D+00
 Coeff:      0.191D-05-0.255D-05 0.136D-05 0.233D-04 0.277D-04 0.352D-03
 Coeff:      0.183D-03-0.255D-02-0.163D-01-0.671D-02 0.261D+00 0.764D+00
 Gap=     0.279 Goal=   None    Shift=    0.000
 Gap=     0.279 Goal=   None    Shift=    0.000
 RMSDP=2.17D-08 MaxDP=3.83D-07 DE=-4.06D-11 OVMax= 5.84D-07

 Cycle  13  Pass 1  IDiag  1:
 RMSU=  1.26D-08    CP:  1.07D-02  3.00D+00  1.01D+00  1.14D+00  8.99D-01
                    CP:  1.19D+00  9.22D-01  9.45D-01  1.01D+00  7.32D-01
                    CP:  1.07D+00  8.23D-01
 PrsmSu:  requested number of processors reduced to:   6 ShMem   1 Linda.
 CalDSu:  requested number of processors reduced to:   4 ShMem   1 Linda.
 E= -485.113819339878     Delta-E=       -0.000000000005 Rises=F Damp=F
 DIIS: error= 2.18D-08 at cycle  13 NSaved=  13.
 NSaved=13 IEnMin=13 EnMin= -485.113819339878     IErMin=13 ErrMin= 2.18D-08
 ErrMax= 2.18D-08 EMaxC= 1.00D-01 BMatC= 4.19D-13 BMatP= 1.70D-11
 IDIUse=1 WtCom= 1.00D+00 WtEn= 0.00D+00
 Coeff-Com: -0.467D-07-0.131D-07-0.183D-05-0.318D-05 0.133D-04 0.697D-04
 Coeff-Com:  0.199D-04-0.224D-03-0.186D-02-0.434D-02-0.469D-01 0.190D-01
 Coeff-Com:  0.103D+01
 Coeff:     -0.467D-07-0.131D-07-0.183D-05-0.318D-05 0.133D-04 0.697D-04
 Coeff:      0.199D-04-0.224D-03-0.186D-02-0.434D-02-0.469D-01 0.190D-01
 Coeff:      0.103D+01
 Gap=     0.279 Goal=   None    Shift=    0.000
 Gap=     0.279 Goal=   None    Shift=    0.000
 RMSDP=3.85D-09 MaxDP=7.27D-08 DE=-5.12D-12 OVMax= 1.42D-07

 SCF Done:  E(UB97-1+HF-B97-1) =  -485.113819340     A.U. after   13 cycles
             Convg  =    0.3854D-08             -V/T =  2.0023
             S**2   =   0.0000
 KE= 4.840053469813D+02 PE=-1.647259504668D+03 EE= 4.277901594725D+02
 Annihilation of the first spin contaminant:
 S**2 before annihilation     0.0000,   after     0.0000
 Leave Link  502 at Thu Apr 16 13:53:41 2009, MaxMem=    6291456 cpu:     629.7
 (Enter /opt//g03/l601.exe)
 Copying SCF densities to generalized density rwf, ISCF=1 IROHF=0.

 **********************************************************************

            Population analysis using the SCF density.

 **********************************************************************

 Alpha  occ. eigenvalues --  -66.11703 -19.12847 -10.15414 -10.15413 -10.15186
 Alpha  occ. eigenvalues --   -5.28568  -3.63362  -3.63096  -3.63089  -1.00556
 Alpha  occ. eigenvalues --   -0.71885  -0.68670  -0.68598  -0.54122  -0.43751
 Alpha  occ. eigenvalues --   -0.41690  -0.41267  -0.40687  -0.39756  -0.39064
 Alpha  occ. eigenvalues --   -0.38410  -0.35020  -0.34292  -0.29857  -0.28486
 Alpha virt. eigenvalues --   -0.00545   0.02121   0.03259   0.03516   0.05922
 Alpha virt. eigenvalues --    0.06431   0.06790   0.07692   0.07753   0.09078
 Alpha virt. eigenvalues --    0.10784   0.10865   0.11278   0.11396   0.11721
 Alpha virt. eigenvalues --    0.11822   0.12823   0.14072   0.14075   0.16443
 Alpha virt. eigenvalues --    0.16895   0.18344   0.18761   0.19943   0.20355
 Alpha virt. eigenvalues --    0.21895   0.22623   0.26687   0.27066   0.28534
 Alpha virt. eigenvalues --    0.29690   0.30451   0.31496   0.33472   0.33827
 Alpha virt. eigenvalues --    0.34098   0.36965   0.37597   0.42145   0.50107
 Alpha virt. eigenvalues --    0.50792   0.51692   0.52356   0.52700   0.53044
 Alpha virt. eigenvalues --    0.53638   0.55811   0.62267   0.63761   0.64363
 Alpha virt. eigenvalues --    0.65774   0.65806   0.67779   0.68771   0.70202
 Alpha virt. eigenvalues --    0.72175   0.74309   0.75418   0.75524   0.85994
 Alpha virt. eigenvalues --    0.86013   0.87915   0.91842   0.92896   0.94216
 Alpha virt. eigenvalues --    1.04782   1.06912   1.07346   1.08657   1.14943
 Alpha virt. eigenvalues --    1.18718   1.19768   1.20237   1.22084   1.39706
 Alpha virt. eigenvalues --    1.40130   1.45264   1.46783   1.46896   1.47056
 Alpha virt. eigenvalues --    1.49525   1.54226   1.56756   1.57315   1.58001
 Alpha virt. eigenvalues --    1.61690   1.62572   1.62626   1.62707   1.71676
 Alpha virt. eigenvalues --    1.71927   1.72480   1.75969   1.77527   1.77840
 Alpha virt. eigenvalues --    1.81012   1.81400   1.84956   2.04379   2.07600
 Alpha virt. eigenvalues --    2.08487   2.10214   2.18854   2.19075   2.20418
 Alpha virt. eigenvalues --    2.24984   2.25080   2.27029   2.45515   2.45949
 Alpha virt. eigenvalues --    2.46283   2.46930   2.47379   2.52970   2.54027
 Alpha virt. eigenvalues --    2.54220   2.54508   2.56923   2.58001   2.59304
 Alpha virt. eigenvalues --    2.61130   2.63962   2.66551   2.67149   2.78366
 Alpha virt. eigenvalues --    2.90791   2.91441   2.93707   3.07343   3.11532
 Alpha virt. eigenvalues --    3.13205   3.31176   3.33379   3.38310   3.76032
 Alpha virt. eigenvalues --    3.76921   3.77310   3.79815   3.80128   3.81199
 Alpha virt. eigenvalues --    3.88716   5.05147   5.08430   5.56671   5.82847
 Alpha virt. eigenvalues --   11.52790  11.53514  11.54825  24.00529  24.00932
 Alpha virt. eigenvalues --   24.02746  49.98408 141.30265
  Beta  occ. eigenvalues --  -66.11703 -19.12847 -10.15414 -10.15413 -10.15186
  Beta  occ. eigenvalues --   -5.28568  -3.63362  -3.63096  -3.63089  -1.00556
  Beta  occ. eigenvalues --   -0.71885  -0.68670  -0.68598  -0.54122  -0.43751
  Beta  occ. eigenvalues --   -0.41690  -0.41267  -0.40687  -0.39756  -0.39064
  Beta  occ. eigenvalues --   -0.38410  -0.35020  -0.34292  -0.29857  -0.28486
  Beta virt. eigenvalues --   -0.00545   0.02121   0.03259   0.03516   0.05922
  Beta virt. eigenvalues --    0.06431   0.06790   0.07692   0.07753   0.09078
  Beta virt. eigenvalues --    0.10784   0.10865   0.11278   0.11396   0.11721
  Beta virt. eigenvalues --    0.11822   0.12823   0.14072   0.14075   0.16443
  Beta virt. eigenvalues --    0.16895   0.18344   0.18761   0.19943   0.20355
  Beta virt. eigenvalues --    0.21895   0.22623   0.26687   0.27066   0.28534
  Beta virt. eigenvalues --    0.29690   0.30451   0.31496   0.33472   0.33827
  Beta virt. eigenvalues --    0.34098   0.36965   0.37597   0.42145   0.50107
  Beta virt. eigenvalues --    0.50792   0.51692   0.52356   0.52700   0.53044
  Beta virt. eigenvalues --    0.53638   0.55811   0.62267   0.63761   0.64363
  Beta virt. eigenvalues --    0.65774   0.65806   0.67779   0.68771   0.70202
  Beta virt. eigenvalues --    0.72175   0.74309   0.75418   0.75524   0.85994
  Beta virt. eigenvalues --    0.86013   0.87915   0.91842   0.92896   0.94216
  Beta virt. eigenvalues --    1.04782   1.06912   1.07346   1.08657   1.14943
  Beta virt. eigenvalues --    1.18718   1.19768   1.20237   1.22084   1.39706
  Beta virt. eigenvalues --    1.40130   1.45264   1.46783   1.46896   1.47056
  Beta virt. eigenvalues --    1.49525   1.54226   1.56756   1.57315   1.58001
  Beta virt. eigenvalues --    1.61690   1.62572   1.62626   1.62707   1.71676
  Beta virt. eigenvalues --    1.71927   1.72480   1.75969   1.77527   1.77840
  Beta virt. eigenvalues --    1.81012   1.81400   1.84956   2.04379   2.07600
  Beta virt. eigenvalues --    2.08487   2.10214   2.18854   2.19075   2.20418
  Beta virt. eigenvalues --    2.24984   2.25080   2.27029   2.45515   2.45949
  Beta virt. eigenvalues --    2.46283   2.46930   2.47379   2.52970   2.54027
  Beta virt. eigenvalues --    2.54220   2.54508   2.56923   2.58001   2.59304
  Beta virt. eigenvalues --    2.61130   2.63962   2.66551   2.67149   2.78366
  Beta virt. eigenvalues --    2.90791   2.91441   2.93707   3.07343   3.11532
  Beta virt. eigenvalues --    3.13205   3.31176   3.33379   3.38310   3.76032
  Beta virt. eigenvalues --    3.76921   3.77310   3.79815   3.80128   3.81199
  Beta virt. eigenvalues --    3.88716   5.05147   5.08430   5.56671   5.82847
  Beta virt. eigenvalues --   11.52790  11.53514  11.54825  24.00529  24.00932
  Beta virt. eigenvalues --   24.02746  49.98408 141.30265
     Alpha Molecular Orbital Coefficients
                          21        22        23        24        25
                           O         O         O         O         O
     EIGENVALUES --    -0.38410  -0.35020  -0.34292  -0.29857  -0.28486
   1 1   Si 1S          0.00000   0.00300   0.00000  -0.00067   0.00000
   2        2S          0.00000   0.00826   0.00000  -0.00184   0.00000
   3        3S         -0.00001  -0.01910   0.00000   0.00416   0.00000
   4        4S         -0.00001  -0.03018   0.00000   0.00769   0.00000
   5        5S          0.00002   0.04295   0.00000  -0.02082   0.00000
   6        6S          0.00004   0.13879   0.00003   0.03136  -0.00001
   7        7PX         0.00000  -0.02404   0.00001   0.05715   0.00000
   8        7PY        -0.00076   0.00001  -0.04057   0.00001   0.04495
   9        7PZ         0.00001   0.03757   0.00001   0.01184   0.00000
  10        8PX         0.00000  -0.04214   0.00001   0.10113   0.00000
  11        8PY        -0.00131   0.00001  -0.07147   0.00001   0.07975
  12        8PZ         0.00001   0.06749   0.00001   0.02123   0.00000
  13        9PX         0.00000   0.04978  -0.00002  -0.13637   0.00001
  14        9PY         0.00146  -0.00001   0.08863  -0.00002  -0.11094
  15        9PZ        -0.00001  -0.09185  -0.00002  -0.02939   0.00000
  16       10PX        -0.00001   0.10727  -0.00003  -0.19893   0.00000
  17       10PY         0.00276  -0.00002   0.16065  -0.00003  -0.14503
  18       10PZ        -0.00002  -0.10884  -0.00002  -0.03605  -0.00001
  19       11PX         0.00000   0.09146   0.00001   0.05417  -0.00001
  20       11PY         0.00107   0.00002   0.01029   0.00000   0.03298
  21       11PZ         0.00000   0.03146   0.00000   0.01091   0.00000
  22       12S          0.00001  -0.02055   0.00002  -0.01426   0.00000
  23       12PX        -0.00001  -0.00880  -0.00002   0.04008  -0.00001
  24       12PY        -0.00076   0.00001  -0.02634   0.00000   0.01766
  25       12PZ         0.00000   0.01039  -0.00001   0.00504   0.00000
  26       13D 0        0.00000  -0.06264  -0.00001  -0.00938   0.00001
  27       13D+1        0.00001   0.02096   0.00000   0.05032   0.00000
  28       13D-1       -0.00061   0.00000   0.02325   0.00000   0.07293
  29       13D+2        0.00001   0.01602   0.00000  -0.06057   0.00000
  30       13D-2        0.00337   0.00001  -0.03024   0.00000   0.05451
  31 2   O  1S          0.00000  -0.01489   0.00000  -0.01157   0.00000
  32        2S          0.00000  -0.02434  -0.00001  -0.01898   0.00000
  33        2PX         0.00001   0.13944   0.00000   0.08467  -0.00003
  34        2PY         0.00153  -0.00001   0.21473  -0.00002   0.17168
  35        2PZ         0.00001   0.17471   0.00004   0.05412   0.00000
  36        3S          0.00000   0.07551   0.00002   0.05827   0.00000
  37        3PX         0.00001   0.20639   0.00000   0.12246  -0.00004
  38        3PY         0.00227  -0.00002   0.31835  -0.00003   0.25269
  39        3PZ         0.00002   0.25989   0.00005   0.08095  -0.00001
  40        4S          0.00001   0.08361   0.00003   0.08537   0.00001
  41        4PX         0.00001   0.20473   0.00000   0.12184  -0.00004
  42        4PY         0.00198  -0.00002   0.30352  -0.00003   0.25812
  43        4PZ         0.00002   0.21973   0.00004   0.07303  -0.00001
  44        5S          0.00000  -0.00475   0.00000   0.01856   0.00000
  45        5PX        -0.00001  -0.02585  -0.00002   0.00421  -0.00001
  46        5PY         0.00011  -0.00001   0.04792  -0.00001   0.05078
  47        5PZ         0.00001   0.09057   0.00002   0.03502   0.00000
  48        6D 0        0.00000  -0.00215   0.00000   0.00042   0.00000
  49        6D+1        0.00000  -0.01277   0.00000  -0.00025   0.00000
  50        6D-1       -0.00010   0.00000  -0.00950   0.00000  -0.00296
  51        6D+2        0.00000  -0.00681   0.00000  -0.00543   0.00000
  52        6D-2        0.00006   0.00000  -0.00967   0.00000  -0.00682
  53 3   C  1S          0.00000  -0.00330   0.00000   0.01687   0.00000
  54        2S          0.00000  -0.00556   0.00000   0.02741   0.00000
  55        2PX         0.00001  -0.09014   0.00001   0.15652   0.00000
  56        2PY         0.12566   0.00000  -0.05233   0.00001   0.01918
  57        2PZ         0.00006   0.01535   0.00000  -0.03389   0.00001
  58        3S          0.00000   0.01698   0.00000  -0.07238   0.00000
  59        3PX         0.00001  -0.13809   0.00002   0.24177  -0.00001
  60        3PY         0.18694   0.00001  -0.07662   0.00001   0.02674
  61        3PZ         0.00009   0.01975   0.00000  -0.05474   0.00001
  62        4S          0.00000   0.00091   0.00000  -0.16490   0.00001
  63        4PX         0.00001  -0.08734   0.00002   0.22831  -0.00001
  64        4PY         0.14775   0.00001  -0.08265   0.00001   0.00594
  65        4PZ         0.00007   0.02735   0.00001  -0.03758   0.00001
  66        5S          0.00002   0.04231   0.00004  -0.12509   0.00003
  67        5PX         0.00000  -0.01635  -0.00001   0.05842  -0.00001
  68        5PY         0.01222   0.00000  -0.01704   0.00000  -0.00885
  69        5PZ         0.00001   0.00991   0.00001  -0.01432   0.00000
  70        6D 0       -0.00001  -0.00149   0.00000   0.00277   0.00000
  71        6D+1        0.00000  -0.00160   0.00000   0.00705   0.00000
  72        6D-1        0.01114   0.00000  -0.00405   0.00000   0.00203
  73        6D+2        0.00000   0.00648   0.00000  -0.00973   0.00000
  74        6D-2        0.01135   0.00000  -0.00897   0.00000   0.00623
  75 4   C  1S         -0.00043  -0.00130   0.00344  -0.00991  -0.01650
  76        2S         -0.00070  -0.00217   0.00561  -0.01611  -0.02684
  77        2PX         0.09611  -0.02083  -0.01924   0.06395   0.05092
  78        2PY        -0.05900   0.02130  -0.08224   0.06065   0.11248
  79        2PZ         0.00955   0.05295   0.01713   0.03418   0.04931
  80        3S          0.00206   0.00639  -0.01228   0.04306   0.07272
  81        3PX         0.14276  -0.03001  -0.03019   0.09596   0.07984
  82        3PY        -0.08768   0.03131  -0.12397   0.09444   0.17328
  83        3PZ         0.01426   0.07735   0.02648   0.05239   0.07804
  84        4S          0.00408   0.01788  -0.03458   0.09003   0.15490
  85        4PX         0.11256  -0.03981  -0.01127   0.07781   0.08904
  86        4PY        -0.07040   0.04161  -0.10110   0.09509   0.16843
  87        4PZ         0.01079   0.05924   0.00860   0.04414   0.06036
  88        5S         -0.00297   0.00239  -0.14446   0.07405   0.01253
  89        5PX         0.00873  -0.00333  -0.01768   0.01570   0.01624
  90        5PY        -0.00699   0.00740  -0.04762   0.02933   0.01805
  91        5PZ         0.00051  -0.00185  -0.01914   0.01093   0.00467
  92        6D 0       -0.00012  -0.00942  -0.00597  -0.00216  -0.00342
  93        6D+1        0.00746  -0.00253  -0.00070   0.00266   0.00162
  94        6D-1       -0.00512  -0.00108  -0.00563   0.00176   0.00490
  95        6D+2       -0.01029   0.00421  -0.00092  -0.00913  -0.00012
  96        6D-2       -0.00594   0.00216  -0.00763   0.00008   0.00677
  97 5   C  1S          0.00043  -0.00130  -0.00344  -0.00991   0.01651
  98        2S          0.00069  -0.00217  -0.00561  -0.01611   0.02684
  99        2PX        -0.09615  -0.02084   0.01924   0.06393  -0.05092
 100        2PY        -0.05907  -0.02128  -0.08227  -0.06063   0.11250
 101        2PZ        -0.00963   0.05293  -0.01714   0.03417  -0.04929
 102        3S         -0.00205   0.00639   0.01230   0.04305  -0.07273
 103        3PX        -0.14283  -0.03001   0.03018   0.09593  -0.07983
 104        3PY        -0.08778  -0.03129  -0.12402  -0.09441   0.17331
 105        3PZ        -0.01438   0.07732  -0.02649   0.05237  -0.07802
 106        4S         -0.00409   0.01786   0.03459   0.09000  -0.15491
 107        4PX        -0.11262  -0.03982   0.01126   0.07778  -0.08903
 108        4PY        -0.07047  -0.04158  -0.10115  -0.09506   0.16847
 109        4PZ        -0.01089   0.05922  -0.00860   0.04411  -0.06032
 110        5S          0.00294   0.00234   0.14440   0.07403  -0.01256
 111        5PX        -0.00874  -0.00334   0.01767   0.01569  -0.01624
 112        5PY        -0.00699  -0.00739  -0.04762  -0.02932   0.01807
 113        5PZ        -0.00051  -0.00186   0.01914   0.01092  -0.00466
 114        6D 0        0.00013  -0.00942   0.00597  -0.00216   0.00342
 115        6D+1       -0.00747  -0.00253   0.00069   0.00266  -0.00162
 116        6D-1       -0.00512   0.00109  -0.00564  -0.00175   0.00490
 117        6D+2        0.01029   0.00421   0.00092  -0.00913   0.00012
 118        6D-2       -0.00595  -0.00216  -0.00764  -0.00007   0.00677
 119 6   H  1S         -0.00006  -0.01833   0.00000   0.02802  -0.00001
 120        2S         -0.00008  -0.02343   0.00000   0.04931  -0.00001
 121        3S         -0.00004  -0.01297   0.00000   0.03622  -0.00001
 122        4PX         0.00000  -0.00559   0.00000   0.01064   0.00000
 123        4PY         0.00736   0.00000  -0.00231   0.00000   0.00131
 124        4PZ         0.00000  -0.00228   0.00000   0.00218   0.00000
 125 7   H  1S          0.09345  -0.02948  -0.04138   0.04050   0.01811
 126        2S          0.12546  -0.04068  -0.05141   0.06199   0.03505
 127        3S          0.04993  -0.04133  -0.01931   0.03446   0.02490
 128        4PX        -0.00525  -0.00511   0.00122   0.00808  -0.00148
 129        4PY        -0.00233   0.00365   0.00056  -0.00443  -0.00092
 130        4PZ        -0.00447   0.00276   0.00194  -0.00510  -0.00073
 131 8   H  1S         -0.09340  -0.02949   0.04139   0.04049  -0.01811
 132        2S         -0.12538  -0.04070   0.05142   0.06198  -0.03505
 133        3S         -0.04991  -0.04133   0.01930   0.03445  -0.02490
 134        4PX         0.00525  -0.00511  -0.00122   0.00808   0.00148
 135        4PY        -0.00232  -0.00365   0.00056   0.00443  -0.00092
 136        4PZ         0.00448   0.00276  -0.00194  -0.00510   0.00073
 137 9   H  1S         -0.00510  -0.05152  -0.02162  -0.02227  -0.03212
 138        2S         -0.00726  -0.07641  -0.03220  -0.03642  -0.05659
 139        3S         -0.00274  -0.03583  -0.00911  -0.02445  -0.03335
 140        4PX         0.00555  -0.00028  -0.00154   0.00443   0.00395
 141        4PY        -0.00338   0.00078  -0.00471   0.00441   0.00810
 142        4PZ        -0.00016  -0.00353  -0.00047  -0.00110  -0.00117
 143 10  H  1S          0.08783  -0.00632   0.05930   0.00391  -0.03639
 144        2S          0.11754  -0.00254   0.08237   0.00874  -0.06047
 145        3S          0.04884   0.00562   0.06098   0.00447  -0.02552
 146        4PX         0.00036  -0.00043  -0.00542   0.00413   0.00565
 147        4PY         0.00543   0.00099   0.00013   0.00402   0.00332
 148        4PZ        -0.00322   0.00328  -0.00194   0.00251   0.00552
 149 11  H  1S         -0.08169   0.03665   0.01930  -0.04331  -0.01651
 150        2S         -0.11076   0.04524   0.03452  -0.07036  -0.02349
 151        3S         -0.04834   0.03454   0.04049  -0.04176   0.00065
 152        4PX        -0.00413   0.00206   0.00194  -0.00120   0.00122
 153        4PY        -0.00344   0.00136  -0.00549   0.00452   0.00757
 154        4PZ         0.00338   0.00240  -0.00007   0.00429   0.00475
 155 12  H  1S          0.00516  -0.05151   0.02160  -0.02227   0.03213
 156        2S          0.00734  -0.07639   0.03218  -0.03642   0.05661
 157        3S          0.00278  -0.03583   0.00911  -0.02445   0.03337
 158        4PX        -0.00555  -0.00028   0.00154   0.00443  -0.00394
 159        4PY        -0.00339  -0.00078  -0.00472  -0.00441   0.00810
 160        4PZ         0.00016  -0.00352   0.00047  -0.00110   0.00117
 161 13  H  1S          0.08171   0.03664  -0.01930  -0.04330   0.01651
 162        2S          0.11078   0.04524  -0.03452  -0.07035   0.02348
 163        3S          0.04836   0.03453  -0.04048  -0.04176  -0.00066
 164        4PX         0.00413   0.00206  -0.00194  -0.00120  -0.00122
 165        4PY        -0.00344  -0.00136  -0.00549  -0.00452   0.00757
 166        4PZ        -0.00338   0.00240   0.00007   0.00429  -0.00475
 167 14  H  1S         -0.08792  -0.00630  -0.05932   0.00393   0.03638
 168        2S         -0.11767  -0.00252  -0.08240   0.00877   0.06046
 169        3S         -0.04889   0.00563  -0.06099   0.00449   0.02551
 170        4PX        -0.00036  -0.00043   0.00542   0.00413  -0.00565
 171        4PY         0.00544  -0.00099   0.00013  -0.00402   0.00333
 172        4PZ         0.00322   0.00328   0.00195   0.00250  -0.00552
 173 15  H  1S          0.00000  -0.01372  -0.00001  -0.03510   0.00000
 174        2S          0.00001   0.00630   0.00000  -0.04679   0.00000
 175        3S         -0.00001  -0.07713  -0.00002  -0.04861   0.00000
 176        4PX         0.00000   0.01401   0.00000   0.00271   0.00000
 177        4PY         0.00029   0.00000   0.02319   0.00000   0.01834
 178        4PZ         0.00000   0.02108   0.00000   0.01057   0.00000
                          26        27        28        29        30
                           V         V         V         V         V
     EIGENVALUES --    -0.00545   0.02121   0.03259   0.03516   0.05922
   1 1   Si 1S          0.00166  -0.00019   0.00000  -0.00076  -0.00179
   2        2S          0.00467  -0.00064   0.00000  -0.00206  -0.00484
   3        3S         -0.01166   0.00255   0.00000   0.00451   0.01042
   4        4S         -0.01467  -0.00233   0.00000   0.00971   0.02393
   5        5S         -0.03149   0.03429   0.00001  -0.01822  -0.07454
   6        6S          0.27122  -0.21443  -0.00006  -0.00789   0.21971
   7        7PX         0.00055   0.00293   0.00000   0.01041  -0.00309
   8        7PY         0.00000   0.00000  -0.01140   0.00000   0.00000
   9        7PZ        -0.00801  -0.01383   0.00000   0.01309  -0.03056
  10        8PX         0.00086   0.00496   0.00000   0.01831  -0.00553
  11        8PY         0.00000   0.00000  -0.01981   0.00001   0.00001
  12        8PZ        -0.01299  -0.02316   0.00001   0.02161  -0.05443
  13        9PX        -0.00073  -0.00654  -0.00001  -0.02780   0.00878
  14        9PY         0.00000   0.00000   0.02890  -0.00001  -0.00001
  15        9PZ         0.00762   0.02298  -0.00001  -0.01912   0.08250
  16       10PX        -0.00068  -0.00554   0.00000  -0.03016   0.01615
  17       10PY         0.00000  -0.00001   0.03435   0.00000  -0.00002
  18       10PZ         0.11345   0.11808  -0.00004  -0.13843   0.14271
  19       11PX        -0.09477  -0.18635  -0.00003  -0.27924  -0.07772
  20       11PY         0.00001   0.00005   0.25748  -0.00009  -0.00009
  21       11PZ        -0.25537  -0.08989  -0.00002   0.18729   1.61861
  22       12S          7.37515  -3.89325   0.00016   0.42724   3.12862
  23       12PX        -1.00840  -2.36674  -0.00060  -1.86243  -0.81085
  24       12PY         0.00008  -0.00009   2.35057  -0.00039   0.00026
  25       12PZ        -0.77333   2.05808  -0.00013  -1.52174  -0.67894
  26       13D 0        0.00131  -0.01595   0.00001   0.01076  -0.05948
  27       13D+1        0.00284   0.00566   0.00000  -0.00751   0.00694
  28       13D-1        0.00000   0.00000  -0.00274   0.00000   0.00000
  29       13D+2        0.00162   0.00566   0.00000   0.00664   0.00011
  30       13D-2        0.00000   0.00000   0.00960   0.00000   0.00000
  31 2   O  1S          0.01870   0.01427   0.00000  -0.01758   0.01279
  32        2S          0.03108   0.02377  -0.00001  -0.02944   0.02119
  33        2PX         0.04047   0.05207   0.00000  -0.00275   0.02534
  34        2PY         0.00001   0.00001  -0.03520   0.00000   0.00001
  35        2PZ        -0.00535  -0.01342   0.00000   0.01483   0.01912
  36        3S         -0.10093  -0.07922   0.00002   0.10127  -0.06845
  37        3PX         0.06127   0.07951   0.00000  -0.00028   0.04015
  38        3PY         0.00001   0.00001  -0.06048   0.00000   0.00001
  39        3PZ        -0.00860  -0.01988   0.00000   0.02367   0.02935
  40        4S         -0.21364  -0.15662   0.00003   0.15242  -0.16053
  41        4PX         0.09230   0.10604   0.00001  -0.03238   0.05389
  42        4PY         0.00002   0.00001  -0.02499  -0.00001   0.00001
  43        4PZ         0.02694  -0.01492  -0.00001  -0.00620   0.03152
  44        5S         -0.35810  -0.32362   0.00033   0.73040  -1.22016
  45        5PX         0.05302   0.06017  -0.00015  -0.16717   0.10018
  46        5PY         0.00002   0.00001  -0.18815   0.00002   0.00007
  47        5PZ        -0.14255  -0.06132   0.00004   0.20816   0.25791
  48        6D 0       -0.00121   0.00122   0.00000   0.00062   0.00177
  49        6D+1       -0.00136  -0.00157   0.00000   0.00252  -0.00300
  50        6D-1        0.00000   0.00000  -0.00025   0.00000   0.00000
  51        6D+2       -0.00127  -0.00091   0.00000  -0.00064   0.00020
  52        6D-2        0.00000   0.00000   0.00201   0.00000   0.00000
  53 3   C  1S          0.01796  -0.02127   0.00000  -0.01912  -0.00393
  54        2S          0.02954  -0.03512  -0.00001  -0.03143  -0.00630
  55        2PX        -0.00038   0.02344   0.00001   0.02907  -0.00010
  56        2PY         0.00000   0.00000  -0.02987   0.00001  -0.00001
  57        2PZ         0.00449  -0.02313   0.00000   0.01210   0.04391
  58        3S         -0.08907   0.11259   0.00002   0.09521   0.01239
  59        3PX         0.00812   0.02542   0.00001   0.03997   0.01219
  60        3PY         0.00000   0.00000  -0.05660   0.00001  -0.00002
  61        3PZ         0.00878  -0.03588   0.00000   0.02254   0.07409
  62        4S         -0.23945   0.27527   0.00007   0.29063   0.09805
  63        4PX        -0.03187   0.12623   0.00004   0.11062  -0.05832
  64        4PY        -0.00001   0.00000   0.00796   0.00000   0.00000
  65        4PZ         0.00037  -0.01960  -0.00001  -0.04329   0.14040
  66        5S         -1.25827   4.54581   0.00098   2.55400  -0.41237
  67        5PX         0.39325  -1.13735  -0.00033  -1.04960  -0.21266
  68        5PY        -0.00004   0.00002  -0.09883  -0.00002   0.00015
  69        5PZ        -0.03829   0.10658   0.00016   0.68978  -0.40623
  70        6D 0        0.00353   0.00480   0.00000  -0.00172   0.01085
  71        6D+1       -0.00056  -0.00527   0.00000   0.00668  -0.01128
  72        6D-1        0.00000   0.00000  -0.00161   0.00000   0.00000
  73        6D+2       -0.00141   0.00016   0.00000  -0.00174  -0.00627
  74        6D-2        0.00000   0.00000  -0.00774   0.00000   0.00000
  75 4   C  1S          0.02328  -0.00679  -0.02146   0.01178  -0.00978
  76        2S          0.03816  -0.01136  -0.03555   0.01954  -0.01611
  77        2PX         0.01391   0.02093  -0.00552   0.02854   0.00020
  78        2PY         0.00506  -0.00575  -0.03747   0.00098  -0.01270
  79        2PZ         0.00162  -0.02727  -0.00300   0.02159   0.03761
  80        3S         -0.11411   0.03774   0.11429  -0.06323   0.04379
  81        3PX         0.01785   0.03901  -0.00164   0.04965  -0.00714
  82        3PY        -0.00146  -0.00721  -0.05644  -0.00560  -0.03229
  83        3PZ         0.00168  -0.04599   0.00091   0.03565   0.06191
  84        4S         -0.33250   0.06778   0.26599  -0.13799   0.15132
  85        4PX         0.04668   0.00213  -0.06797   0.03800   0.04416
  86        4PY         0.05848  -0.00944  -0.10064   0.05964   0.02422
  87        4PZ         0.00951  -0.00382  -0.05519   0.01334   0.14464
  88        5S         -3.25526   0.04223   2.17945  -1.63315  -2.25156
  89        5PX        -0.29897   0.22612   0.50658  -0.40124   0.24430
  90        5PY        -0.71521   0.00526   0.77581  -0.51531   0.21174
  91        5PZ        -0.25847  -0.29699   0.36676  -0.07941  -0.44734
  92        6D 0        0.00424   0.00581   0.00096  -0.00525   0.01292
  93        6D+1       -0.00110   0.00086  -0.00083   0.00051   0.00190
  94        6D-1        0.00013   0.00469  -0.00216  -0.00236   0.00625
  95        6D+2        0.00036  -0.00147  -0.00235  -0.00595   0.00610
  96        6D-2       -0.00181  -0.00155  -0.00363  -0.00140  -0.00845
  97 5   C  1S          0.02328  -0.00679   0.02147   0.01177  -0.00978
  98        2S          0.03816  -0.01136   0.03556   0.01952  -0.01612
  99        2PX         0.01391   0.02093   0.00554   0.02854   0.00020
 100        2PY        -0.00506   0.00576  -0.03747  -0.00096   0.01269
 101        2PZ         0.00162  -0.02726   0.00301   0.02158   0.03761
 102        3S         -0.11411   0.03775  -0.11432  -0.06317   0.04380
 103        3PX         0.01785   0.03901   0.00166   0.04965  -0.00715
 104        3PY         0.00145   0.00722  -0.05644   0.00563   0.03227
 105        3PZ         0.00168  -0.04598  -0.00090   0.03565   0.06192
 106        4S         -0.33248   0.06778  -0.26605  -0.13785   0.15131
 107        4PX         0.04666   0.00213   0.06797   0.03796   0.04416
 108        4PY        -0.05850   0.00944  -0.10072  -0.05959  -0.02433
 109        4PZ         0.00947  -0.00382   0.05517   0.01329   0.14466
 110        5S         -3.25529   0.04202  -2.18064  -1.63237  -2.25295
 111        5PX        -0.29897   0.22610  -0.50682  -0.40098   0.24426
 112        5PY         0.71521  -0.00520   0.77618   0.51498  -0.21138
 113        5PZ        -0.25838  -0.29705  -0.36672  -0.07916  -0.44750
 114        6D 0        0.00424   0.00581  -0.00097  -0.00525   0.01292
 115        6D+1       -0.00110   0.00086   0.00083   0.00052   0.00190
 116        6D-1       -0.00013  -0.00469  -0.00216   0.00236  -0.00625
 117        6D+2        0.00036  -0.00147   0.00235  -0.00595   0.00610
 118        6D-2        0.00181   0.00155  -0.00363   0.00140   0.00845
 119 6   H  1S          0.00229   0.01898   0.00000  -0.01225   0.01466
 120        2S          0.02902   0.03203  -0.00001  -0.06696   0.04833
 121        3S          0.02559  -0.20190  -0.00010  -0.16343   0.22831
 122        4PX         0.00110   0.00247   0.00000  -0.00463   0.00257
 123        4PY         0.00000   0.00000  -0.00078   0.00000   0.00000
 124        4PZ        -0.00757   0.01137   0.00000   0.00263  -0.00989
 125 7   H  1S         -0.00251  -0.00575  -0.01840   0.01244  -0.00505
 126        2S          0.01284  -0.02781  -0.02585   0.00919  -0.03808
 127        3S          0.07612  -0.28436  -0.14786  -0.15848   0.02507
 128        4PX         0.00131  -0.00392   0.00044  -0.00328  -0.00481
 129        4PY         0.00388  -0.00623   0.00330  -0.00756  -0.00261
 130        4PZ         0.00288  -0.00338   0.00242  -0.00204   0.00121
 131 8   H  1S         -0.00251  -0.00576   0.01841   0.01244  -0.00505
 132        2S          0.01285  -0.02782   0.02584   0.00919  -0.03811
 133        3S          0.07608  -0.28437   0.14771  -0.15859   0.02515
 134        4PX         0.00131  -0.00392  -0.00044  -0.00328  -0.00481
 135        4PY        -0.00388   0.00623   0.00330   0.00756   0.00261
 136        4PZ         0.00288  -0.00338  -0.00242  -0.00204   0.00121
 137 9   H  1S          0.00597   0.02294   0.00139  -0.01778   0.01975
 138        2S          0.03144   0.03610  -0.03267  -0.02363   0.03557
 139        3S          0.17795   0.11416  -0.09949   0.00799   0.41134
 140        4PX         0.00119  -0.00002   0.00062   0.00112   0.00114
 141        4PY        -0.00053  -0.00353   0.00072   0.00143  -0.00079
 142        4PZ        -0.00874   0.00697   0.00657  -0.00665  -0.00731
 143 10  H  1S         -0.00130  -0.00173   0.01695   0.01784  -0.00161
 144        2S          0.01307  -0.01912  -0.00285   0.04495  -0.06405
 145        3S          0.20873   0.04002   0.04214   0.20769   0.19758
 146        4PX         0.00349  -0.00066  -0.00547  -0.00102   0.00059
 147        4PY        -0.00415   0.00335   0.00959  -0.00203   0.00836
 148        4PZ         0.00309  -0.00281  -0.00368  -0.00072   0.00062
 149 11  H  1S         -0.00771  -0.01717  -0.00130  -0.01095   0.00002
 150        2S          0.00318  -0.04781  -0.03015   0.01532  -0.05229
 151        3S          0.19974  -0.02653  -0.11395  -0.08040   0.26506
 152        4PX        -0.00795  -0.00217   0.00813  -0.00699   0.00486
 153        4PY         0.00153   0.00186   0.00108  -0.00065   0.00478
 154        4PZ         0.00544   0.00250  -0.00091   0.00150   0.00334
 155 12  H  1S          0.00597   0.02294  -0.00140  -0.01777   0.01975
 156        2S          0.03143   0.03610   0.03265  -0.02364   0.03555
 157        3S          0.17791   0.11413   0.09950   0.00796   0.41150
 158        4PX         0.00119  -0.00002  -0.00061   0.00112   0.00114
 159        4PY         0.00053   0.00353   0.00072  -0.00143   0.00079
 160        4PZ        -0.00874   0.00697  -0.00657  -0.00664  -0.00731
 161 13  H  1S         -0.00771  -0.01717   0.00130  -0.01096   0.00003
 162        2S          0.00318  -0.04782   0.03015   0.01530  -0.05231
 163        3S          0.19973  -0.02649   0.11396  -0.08044   0.26529
 164        4PX        -0.00795  -0.00217  -0.00813  -0.00698   0.00486
 165        4PY        -0.00153  -0.00186   0.00108   0.00065  -0.00478
 166        4PZ         0.00545   0.00250   0.00091   0.00150   0.00334
 167 14  H  1S         -0.00130  -0.00173  -0.01694   0.01785  -0.00161
 168        2S          0.01308  -0.01913   0.00288   0.04495  -0.06404
 169        3S          0.20876   0.04006  -0.04198   0.20778   0.19772
 170        4PX         0.00349  -0.00066   0.00547  -0.00102   0.00059
 171        4PY         0.00415  -0.00335   0.00959   0.00202  -0.00836
 172        4PZ         0.00309  -0.00281   0.00368  -0.00073   0.00062
 173 15  H  1S          0.00969   0.00765   0.00000  -0.02244   0.01707
 174        2S          0.07976   0.08447   0.00001  -0.03416   0.05052
 175        3S          0.21336   0.18593  -0.00031  -0.66925   0.27251
 176        4PX        -0.01546  -0.01657   0.00000   0.00969  -0.00478
 177        4PY         0.00000   0.00000  -0.00234   0.00000   0.00000
 178        4PZ         0.00447   0.00804   0.00000  -0.00481   0.00652
     Beta Molecular Orbital Coefficients.
                          21        22        23        24        25
                           O         O         O         O         O
     EIGENVALUES --    -0.38410  -0.35020  -0.34292  -0.29857  -0.28486
   1 1   Si 1S          0.00000   0.00300   0.00000  -0.00067   0.00000
   2        2S          0.00000   0.00826   0.00000  -0.00184   0.00000
   3        3S         -0.00001  -0.01910   0.00000   0.00416   0.00000
   4        4S         -0.00001  -0.03018   0.00000   0.00769   0.00000
   5        5S          0.00002   0.04295   0.00000  -0.02082   0.00000
   6        6S          0.00004   0.13879   0.00003   0.03136  -0.00001
   7        7PX         0.00000  -0.02404   0.00001   0.05715   0.00000
   8        7PY        -0.00076   0.00001  -0.04057   0.00001   0.04495
   9        7PZ         0.00001   0.03757   0.00001   0.01184   0.00000
  10        8PX         0.00000  -0.04214   0.00001   0.10113   0.00000
  11        8PY        -0.00131   0.00001  -0.07147   0.00001   0.07975
  12        8PZ         0.00001   0.06749   0.00001   0.02123   0.00000
  13        9PX         0.00000   0.04978  -0.00002  -0.13637   0.00000
  14        9PY         0.00146  -0.00001   0.08863  -0.00001  -0.11094
  15        9PZ        -0.00001  -0.09185  -0.00002  -0.02939   0.00000
  16       10PX        -0.00001   0.10727  -0.00003  -0.19893   0.00000
  17       10PY         0.00276  -0.00002   0.16065  -0.00003  -0.14503
  18       10PZ        -0.00002  -0.10884  -0.00003  -0.03605  -0.00001
  19       11PX         0.00000   0.09146   0.00001   0.05417  -0.00001
  20       11PY         0.00107   0.00002   0.01029   0.00000   0.03298
  21       11PZ         0.00000   0.03146   0.00000   0.01091   0.00000
  22       12S          0.00001  -0.02055   0.00002  -0.01426   0.00000
  23       12PX        -0.00001  -0.00880  -0.00002   0.04008  -0.00001
  24       12PY        -0.00076   0.00001  -0.02634   0.00000   0.01766
  25       12PZ         0.00000   0.01039  -0.00001   0.00504   0.00000
  26       13D 0        0.00000  -0.06264  -0.00001  -0.00938   0.00001
  27       13D+1        0.00001   0.02096   0.00000   0.05032   0.00000
  28       13D-1       -0.00061   0.00000   0.02325   0.00000   0.07293
  29       13D+2        0.00001   0.01602   0.00000  -0.06057   0.00000
  30       13D-2        0.00337   0.00001  -0.03024   0.00000   0.05451
  31 2   O  1S          0.00000  -0.01489   0.00000  -0.01157   0.00000
  32        2S          0.00000  -0.02434  -0.00001  -0.01898   0.00000
  33        2PX         0.00001   0.13944   0.00000   0.08467  -0.00003
  34        2PY         0.00153  -0.00001   0.21473  -0.00002   0.17168
  35        2PZ         0.00001   0.17471   0.00004   0.05412   0.00000
  36        3S          0.00000   0.07551   0.00002   0.05827   0.00000
  37        3PX         0.00001   0.20639   0.00000   0.12246  -0.00004
  38        3PY         0.00227  -0.00002   0.31835  -0.00003   0.25269
  39        3PZ         0.00002   0.25989   0.00005   0.08095  -0.00001
  40        4S          0.00001   0.08361   0.00003   0.08537   0.00001
  41        4PX         0.00001   0.20473   0.00000   0.12184  -0.00004
  42        4PY         0.00198  -0.00002   0.30352  -0.00003   0.25812
  43        4PZ         0.00002   0.21973   0.00004   0.07303  -0.00001
  44        5S          0.00000  -0.00475   0.00000   0.01856   0.00000
  45        5PX        -0.00001  -0.02585  -0.00002   0.00421  -0.00001
  46        5PY         0.00011  -0.00001   0.04792  -0.00001   0.05078
  47        5PZ         0.00001   0.09057   0.00002   0.03502   0.00000
  48        6D 0        0.00000  -0.00215   0.00000   0.00042   0.00000
  49        6D+1        0.00000  -0.01277   0.00000  -0.00025   0.00000
  50        6D-1       -0.00010   0.00000  -0.00950   0.00000  -0.00296
  51        6D+2        0.00000  -0.00681   0.00000  -0.00543   0.00000
  52        6D-2        0.00006   0.00000  -0.00967   0.00000  -0.00682
  53 3   C  1S          0.00000  -0.00330   0.00000   0.01687   0.00000
  54        2S          0.00000  -0.00556   0.00000   0.02741   0.00000
  55        2PX         0.00001  -0.09014   0.00001   0.15652   0.00000
  56        2PY         0.12566   0.00000  -0.05233   0.00001   0.01918
  57        2PZ         0.00006   0.01535   0.00000  -0.03389   0.00001
  58        3S          0.00000   0.01698   0.00000  -0.07238   0.00000
  59        3PX         0.00001  -0.13809   0.00002   0.24177  -0.00001
  60        3PY         0.18694   0.00001  -0.07662   0.00001   0.02674
  61        3PZ         0.00009   0.01975   0.00000  -0.05474   0.00001
  62        4S          0.00000   0.00091   0.00000  -0.16490   0.00001
  63        4PX         0.00001  -0.08734   0.00002   0.22831  -0.00001
  64        4PY         0.14775   0.00001  -0.08265   0.00001   0.00594
  65        4PZ         0.00007   0.02735   0.00001  -0.03758   0.00001
  66        5S          0.00002   0.04231   0.00004  -0.12509   0.00003
  67        5PX         0.00000  -0.01635  -0.00001   0.05842  -0.00001
  68        5PY         0.01222   0.00000  -0.01704   0.00000  -0.00885
  69        5PZ         0.00001   0.00991   0.00001  -0.01432   0.00000
  70        6D 0       -0.00001  -0.00149   0.00000   0.00277   0.00000
  71        6D+1        0.00000  -0.00160   0.00000   0.00705   0.00000
  72        6D-1        0.01114   0.00000  -0.00405   0.00000   0.00203
  73        6D+2        0.00000   0.00648   0.00000  -0.00973   0.00000
  74        6D-2        0.01135   0.00000  -0.00897   0.00000   0.00623
  75 4   C  1S         -0.00043  -0.00130   0.00344  -0.00991  -0.01650
  76        2S         -0.00070  -0.00217   0.00561  -0.01611  -0.02684
  77        2PX         0.09611  -0.02083  -0.01924   0.06395   0.05092
  78        2PY        -0.05900   0.02130  -0.08224   0.06065   0.11248
  79        2PZ         0.00955   0.05295   0.01713   0.03418   0.04931
[...]
    A4        1.94222   0.00000   0.00000  -0.00001  -0.00001   1.94221
    A5        1.94222   0.00000   0.00000  -0.00001  -0.00001   1.94221
    A6        1.91054   0.00000   0.00000   0.00000   0.00000   1.91054
    A7        2.06815   0.00000   0.00000  -0.00002  -0.00002   2.06814
    A8        1.94218   0.00000   0.00000   0.00000   0.00000   1.94218
    A9        1.93477   0.00000   0.00000   0.00000   0.00000   1.93477
   A10        1.93477   0.00000   0.00000   0.00000   0.00000   1.93477
   A11        1.88435   0.00000   0.00000   0.00000   0.00000   1.88435
   A12        1.88435   0.00000   0.00000   0.00000   0.00000   1.88435
   A13        1.88115   0.00000   0.00000  -0.00001  -0.00001   1.88115
   A14        1.93916   0.00000   0.00000   0.00000   0.00000   1.93916
   A15        1.93883   0.00000   0.00000   0.00000   0.00000   1.93882
   A16        1.94842   0.00000   0.00000   0.00001   0.00001   1.94843
   A17        1.88118   0.00000   0.00000   0.00000   0.00000   1.88118
   A18        1.87243   0.00000   0.00000   0.00000   0.00000   1.87244
   A19        1.88070   0.00000   0.00000   0.00000   0.00000   1.88070
   A20        1.93916   0.00000   0.00000  -0.00001  -0.00001   1.93916
   A21        1.94842   0.00000   0.00000   0.00001   0.00001   1.94843
   A22        1.93883   0.00000   0.00000   0.00000   0.00000   1.93882
   A23        1.87244   0.00000   0.00000   0.00000   0.00000   1.87244
   A24        1.88118   0.00000   0.00000   0.00000   0.00000   1.88118
   A25        1.88070   0.00000   0.00000   0.00000   0.00000   1.88070
    D1       -3.14151   0.00000   0.00000  -0.00008  -0.00008  -3.14159
    D2       -1.05429   0.00000   0.00000  -0.00009  -0.00009  -1.05438
    D3        1.05447   0.00000   0.00000  -0.00008  -0.00008   1.05438
    D4       -3.14159   0.00000   0.00000   0.00000   0.00000  -3.14159
    D5       -1.04422   0.00000   0.00000   0.00000   0.00000  -1.04422
    D6        1.04422   0.00000   0.00000   0.00000   0.00000   1.04422
    D7        1.06795   0.00000   0.00000   0.00000   0.00000   1.06795
    D8       -3.11786   0.00000   0.00000   0.00000   0.00000  -3.11786
    D9       -1.02942   0.00000   0.00000  -0.00001  -0.00001  -1.02942
   D10       -1.06795   0.00000   0.00000   0.00000   0.00000  -1.06795
   D11        1.02941   0.00000   0.00000   0.00001   0.00001   1.02942
   D12        3.11786   0.00000   0.00000   0.00000   0.00000   3.11786
   D13       -3.09901   0.00000   0.00000   0.00003   0.00003  -3.09899
   D14       -1.00495   0.00000   0.00000   0.00002   0.00002  -1.00493
   D15        1.09475   0.00000   0.00000   0.00002   0.00002   1.09477
   D16       -1.08563   0.00000   0.00000   0.00004   0.00004  -1.08560
   D17        1.00843   0.00000   0.00000   0.00003   0.00003   1.00846
   D18        3.10813   0.00000   0.00000   0.00003   0.00003   3.10816
   D19        1.06846   0.00000   0.00000   0.00002   0.00002   1.06849
   D20       -3.12066   0.00000   0.00000   0.00002   0.00002  -3.12064
   D21       -1.02096   0.00000   0.00000   0.00002   0.00002  -1.02094
   D22        3.09900   0.00000   0.00000  -0.00001  -0.00001   3.09899
   D23       -1.09476   0.00000   0.00000  -0.00001  -0.00001  -1.09477
   D24        1.00493   0.00000   0.00000  -0.00001  -0.00001   1.00493
   D25        1.08562   0.00000   0.00000  -0.00002  -0.00002   1.08560
   D26       -3.10814   0.00000   0.00000  -0.00002  -0.00002  -3.10816
   D27       -1.00844   0.00000   0.00000  -0.00002  -0.00002  -1.00846
   D28       -1.06848   0.00000   0.00000  -0.00001  -0.00001  -1.06849
   D29        1.02095   0.00000   0.00000   0.00000   0.00000   1.02094
   D30        3.12064   0.00000   0.00000   0.00000   0.00000   3.12064
         Item               Value     Threshold  Converged?
 Maximum Force            0.000002     0.000015     YES
 RMS     Force            0.000000     0.000010     YES
 Maximum Displacement     0.000107     0.000060     NO 
 RMS     Displacement     0.000020     0.000040     YES
 Predicted change in Energy=-6.112724D-11
 GradGradGradGradGradGradGradGradGradGradGradGradGradGradGradGradGradGrad

 Leave Link  103 at Thu Apr 16 15:10:41 2009, MaxMem=    6291456 cpu:       9.5
 (Enter /opt//g03/l9999.exe)
 1\1\GINC-CARAVAGGIO\Freq\UB971\6-311+G(d,p)\C3H10O1Si1\SS663\16-Apr-20
 09\0\\#P Geom=AllCheck Guess=Read SCRF=Check GenChk UB971/6-311+G(d,p)
  Freq\\#NewComb uB971/6-311+G(d,p)\\0,1\Si,-0.0007273529,0.0000189901,
 -0.0149402571\O,0.0145796258,-0.000100758,1.6677212802\C,1.8087031135,
 0.0000210903,-0.4992896532\C,-0.8799325777,-1.5379435105,-0.6554027192
 \C,-0.8798703908,1.5381063528,-0.6551866444\H,1.9288802275,0.000096862
 ,-1.5890116161\H,2.3185106437,0.8850870285,-0.103042261\H,2.3184801001
 ,-0.8851183929,-0.1031675277\H,-0.8613966236,-1.5758835296,-1.75159311
 72\H,-0.4018705012,-2.4502005595,-0.2807706677\H,-1.9322195484,-1.5605
 281897,-0.3462760279\H,-0.8613194812,1.5762090466,-1.7513711808\H,-1.9
 321597309,1.5606835535,-0.3460679424\H,-0.401779329,2.4502897756,-0.28
 04123741\H,-0.8235451751,-0.0001907593,2.1326387087\\Version=AM64L-G03
 RevE.01\HF=-485.1147189\S2=0.\S2-1=0.\S2A=0.\RMSD=1.101e-09\RMSF=8.181
 e-07\ZeroPoint=0.1239161\Thermal=0.1329065\Dipole=-0.5064595,-0.000016
 7,-0.2958649\DipoleDeriv=1.6294589,0.0000005,0.0097654,0.0000044,1.641
 2538,-0.0000147,-0.0293237,-0.0000188,1.7643385,-0.5836861,0.00001,-0.
 0031477,0.0000024,-0.7740487,0.0000451,0.0285552,0.0000483,-1.3914003,
 -0.5684215,0.,0.0638011,0.000002,-0.3006856,-0.0000073,0.0245807,-0.00
 00073,-0.2105442,-0.3568307,-0.1181386,-0.0587124,-0.1132765,-0.511272
 9,-0.087851,-0.0309881,-0.0746391,-0.2682374,-0.3568239,0.1181395,-0.0
 586909,0.1132744,-0.5113083,0.0878196,-0.0309725,0.0746074,-0.2682088,
 0.084335,-0.0000022,0.0334937,-0.0000017,0.0781615,0.0000134,0.0280461
 ,0.0000134,-0.115561,0.0055292,-0.1057731,-0.0349633,-0.0791756,-0.037
 0673,-0.0491924,-0.0274923,-0.0386015,0.0650149,0.0055352,0.1057771,-0
 .0349468,0.079179,-0.0370868,0.0491793,-0.0274796,0.0385879,0.0650269,
 0.080349,0.0035286,-0.0059856,0.0052505,0.0793281,-0.0260039,-0.001795
 1,-0.0175373,-0.1263041,0.0553197,0.0525464,-0.0211544,0.0742869,-0.09
 86764,0.0553481,-0.0166856,0.0402039,0.0644032,-0.1373141,-0.0184099,0
 .0564617,-0.0418798,0.0739059,0.0026127,0.0420415,0.0055008,0.0647597,
 0.080348,-0.0035278,-0.0059823,-0.00525,0.0793209,0.026034,-0.0017929,
 0.0175683,-0.1262992,-0.1373132,0.0184091,0.0564615,0.0418814,0.073905
 9,-0.0026134,0.0420439,-0.0055006,0.0647602,0.0553158,-0.0525483,-0.02
 11647,-0.0742901,-0.0986563,-0.0553712,-0.0166981,-0.0402272,0.0643889
 ,0.1441987,-0.0000112,0.0247645,-0.0000073,0.342926,0.0000015,0.017960
 5,0.0000018,0.3538628\Polar=67.595737,0.0000389,67.0327063,0.1010145,0
 .0003067,61.3903673\PG=C01 [X(C3H10O1Si1)]\NImag=0\\0.36314916,0.00000
 116,0.33705833,-0.00678688,-0.00000666,0.41312241,-0.04687021,-0.00000
 227,0.01995063,0.45394000,-0.00000023,-0.03621556,0.00001577,0.0000466
 7,0.02741582,-0.00925907,0.00001367,-0.23486188,-0.23491046,-0.0000440
 8,0.41538246,-0.15218121,-0.00000014,0.02962846,0.00056496,-0.00000003
 ,0.00071536,0.39960547,0.00000027,-0.04219783,-0.00000045,-0.00000136,
 0.00286833,0.00000116,-0.00000050,0.50672232,0.02397560,-0.00000049,-0
 .04407702,0.01947889,0.00000148,-0.01100960,0.02822790,-0.00000038,0.4
 9897038,-0.06783861,-0.04206743,-0.01691802,0.00486499,0.00051275,0.00
 135661,-0.00539936,-0.01557363,-0.00606681,0.47700053,-0.04196365,-0.1
 1666920,-0.03038987,-0.00022648,0.00411494,0.00129307,0.00060178,0.002
 90033,-0.00029324,-0.04489737,0.42617875,-0.01439306,-0.02737506,-0.05
 172853,-0.00905401,-0.01576290,-0.01298163,0.00239131,0.00408560,0.005
 66050,-0.01606622,-0.03517450,0.48613565,-0.06783554,0.04206808,-0.016
 91082,0.00486529,-0.00051311,0.00135649,-0.00539893,0.01557500,-0.0060
 6457,0.00714350,-0.00808895,0.00226492,0.47700501,0.04196402,-0.116681
 06,0.03038148,0.00022772,0.00411281,-0.00129061,-0.00060182,0.00290032
 ,0.00029311,0.00808793,-0.01043644,0.00553090,0.04489709,0.42616505,-0
 .01438634,0.02736668,-0.05171985,-0.00905301,0.01576524,-0.01297940,0.
 00239104,-0.00408597,0.00566004,0.00226593,-0.00553350,0.00681402,-0.0
 1605872,0.03516670,0.48614592,0.00247628,-0.00000148,0.02025250,-0.005
 15047,-0.00000038,0.00314574,-0.04091640,-0.00000293,0.04239057,0.0007
 9820,0.00005479,-0.00155515,0.00079816,-0.00005461,-0.00155518,0.04179
 451,0.00000008,-0.00247874,-0.00000007,-0.00000003,0.00037678,0.,-0.00
 000190,-0.04126150,0.00001800,0.00015064,-0.00018116,-0.00027600,-0.00
 015070,-0.00018120,0.00027600,0.00000223,0.04286549,-0.00292518,0.0000
 0031,-0.00611982,0.00124746,0.00000011,-0.00024188,0.02767741,0.000018
 23,-0.30324286,0.00027033,-0.00001168,0.00015915,0.00027033,0.00001163
 ,0.00015917,-0.03110247,-0.00001998,0.33006399,-0.00813937,-0.01948015
 ,-0.00999020,0.00159105,0.00131984,-0.00002503,-0.09901416,-0.11146900
 ,-0.05157354,-0.00484730,0.00101800,0.00202110,0.00146006,0.00081350,0
 .00027076,0.00063261,0.00465642,0.00212591,0.10179123,0.00142246,-0.00
 131002,-0.00014322,-0.00006056,0.00019986,0.00064193,-0.09898691,-0.21
 416651,-0.07709140,0.00019476,0.00055123,-0.00007340,-0.00042617,0.000
 16506,0.00021799,0.00093784,0.00018395,0.00082946,0.10993825,0.2341632
 6,0.00249068,0.00555014,0.00077832,-0.00054575,-0.00033062,0.00003369,
 -0.04434164,-0.07403138,-0.07405203,0.00152840,-0.00011680,-0.00022547
 ,-0.00045647,-0.00002257,-0.00026803,-0.01595027,-0.02618590,-0.010873
 94,0.05074262,0.08539859,0.08053687,-0.00813870,0.01948181,-0.00998743
 ,0.00159107,-0.00131985,-0.00002529,-0.09900692,0.11147236,-0.05155508
 ,0.00146001,-0.00081357,0.00027063,-0.00484740,-0.00101808,0.00202094,
 0.00063241,-0.00465675,0.00212521,0.00664538,-0.01323622,0.00657498,0.
 10178364,-0.00142260,-0.00130990,0.00014331,0.00006055,0.00019998,-0.0
 0064194,0.09898932,-0.21419534,0.07707338,0.00042619,0.00016511,-0.000
 21795,-0.00019475,0.00055126,0.00007344,-0.00093560,0.00018056,-0.0008
 2798,0.01323437,-0.02027976,0.00964346,-0.10994093,0.23419518,0.002490
 29,-0.00555050,0.00077752,-0.00054573,0.00033058,0.00003369,-0.0443251
 4,0.07401319,-0.07403087,-0.00045641,0.00002265,-0.00026805,0.00152840
 ,0.00011686,-0.00022543,-0.01594948,0.02618798,-0.01087029,0.00657651,
 -0.00964705,0.00346612,0.05072414,-0.08537865,0.08051284,-0.00031808,0
 .00239630,-0.00984229,-0.00037920,-0.00245738,-0.00217028,0.00007411,0
 .00050958,0.00106851,-0.03925493,0.00230615,-0.00222949,-0.00007674,0.
 00032991,0.00063170,-0.00060662,-0.00028824,0.00015050,0.00024858,-0.0
 0002373,0.00014680,0.00009901,-0.00007058,-0.00010365,0.04174702,0.003
 46613,0.00198930,-0.01753733,-0.00258298,-0.00342279,-0.00365736,0.000
 35633,0.00049924,0.00128676,0.00301191,-0.03791800,-0.02068879,0.00028
 327,0.00056248,0.00181359,-0.00065059,-0.00004555,0.00013992,0.0003637
 0,-0.00009234,0.00008217,0.00015272,-0.00001611,0.00003171,-0.00228522
 ,0.03930958,0.00184230,0.00277633,-0.00804293,-0.00079331,-0.00171660,
 -0.00039253,-0.00007590,-0.00014458,0.00032351,0.00573149,-0.00700011,
 -0.30577836,-0.00015962,-0.00011994,0.00034346,-0.00030525,-0.00009061
 ,0.00028579,-0.00002328,-0.00007149,0.00015467,0.00015281,-0.00001093,
 -0.00003684,-0.00569201,0.00865527,0.33143085,0.00430177,-0.00856090,0
 .00459369,-0.00019177,0.00093621,0.00070881,0.00031715,0.00104199,0.00
 011704,-0.08749196,0.09196201,-0.03554793,-0.00115871,-0.00214920,-0.0
 0118962,0.00004743,-0.00005327,-0.00004932,0.00023344,0.00018223,-0.00
 014876,-0.00049155,-0.00004592,-0.00005468,-0.00099476,-0.00128543,0.0
 0030356,0.09797209,0.01109333,-0.01400592,0.00874874,-0.00072871,0.002
 28686,-0.00061927,-0.00012349,0.00130557,-0.00029325,0.10416823,-0.229
 39675,0.08139492,-0.00295685,-0.00296496,-0.00201482,0.00018070,0.0000
 2144,-0.00010841,0.00018203,0.00023636,-0.00024612,-0.00090770,0.00002
 990,0.00004821,-0.00191105,0.00118849,-0.00161741,-0.10791470,0.241441
 44,0.00442084,-0.00654527,0.00150646,-0.00004648,0.00128881,0.00014022
 ,0.00026575,0.00059548,-0.00021177,-0.03578964,0.07247203,-0.06978608,
 -0.00114234,-0.00164108,-0.00046890,0.00003792,0.00010718,-0.00004134,
 0.00019332,-0.00001012,-0.00007571,-0.00014073,0.00006059,0.00017370,-
 0.01408026,0.02775327,-0.01034265,0.04243109,-0.08460898,0.07648616,-0
 .01028632,0.00333368,0.00499228,0.00153662,0.00014358,-0.00102164,-0.0
 0011245,-0.00239499,-0.00104397,-0.28611097,-0.00195431,0.07386807,0.0
 0063903,-0.00004297,-0.00032542,0.00014812,0.00004936,0.00007856,-0.00
 073244,0.00002780,0.00031321,0.00038629,0.00010260,-0.00003526,-0.0002
 6448,-0.00030850,-0.00074658,-0.01311432,-0.00177691,0.00373863,0.3077
 2972,-0.01767548,0.00140758,0.00765477,0.00199654,0.00057088,0.0004371
 8,-0.00138369,-0.00383556,-0.00196619,-0.01511936,-0.03736627,0.007434
 44,0.00133000,0.00098002,-0.00011222,0.00040368,0.00001982,0.00004381,
 -0.00152410,0.00016594,0.00031011,0.00007357,0.00007878,-0.00015927,0.
 00161364,-0.00164951,-0.00073365,0.02639997,0.00060046,-0.00873676,0.0
 0347715,0.03945224,-0.00808374,0.00080344,0.00107291,0.00114790,0.0006
 5536,0.00019590,-0.00073932,-0.00179590,-0.00041539,0.06587589,0.00333
 305,-0.05928257,0.00042722,0.00052823,-0.00031754,-0.00015594,-0.00009
 306,0.00016814,-0.00058767,-0.00011280,0.00037275,0.00033769,0.0000294
 2,-0.00005890,0.03203751,0.00117500,-0.00879138,-0.01110617,-0.0012439
 5,0.00206923,-0.07912302,-0.00307552,0.06535443,-0.00031824,-0.0023947
 5,-0.00984186,-0.00037892,0.00245743,-0.00216978,0.00007407,-0.0005097
 2,0.00106843,-0.00007677,-0.00032997,0.00063158,-0.03925531,-0.0023058
 2,-0.00222577,-0.00060659,0.00028823,0.00015054,0.00009900,0.00007060,
 -0.00010365,0.00024858,0.00002369,0.00014680,0.00025109,0.00019427,0.0
 0006724,-0.00015149,-0.00013496,-0.00002005,-0.00003194,-0.00010172,0.
 00007935,0.04174736,-0.00346650,0.00198726,0.01753900,0.00258290,-0.00
 342365,0.00365694,-0.00035629,0.00049945,-0.00128680,-0.00028319,0.000
 56270,-0.00181357,-0.00301292,-0.03792201,0.02072877,0.00065067,-0.000
 04557,-0.00013997,-0.00015275,-0.00001610,-0.00003171,-0.00036372,-0.0
 0009233,-0.00008221,-0.00019436,-0.00100081,-0.00029481,0.00027081,0.0
 0033009,-0.00017197,0.00016295,0.00012258,0.00010709,0.00228609,0.0393
 1202,0.00184180,-0.00277498,-0.00804084,-0.00079287,0.00171615,-0.0003
 9177,-0.00007594,0.00014460,0.00032336,-0.00015968,0.00012001,0.000343
 20,0.00573455,0.00703978,-0.30577409,-0.00030514,0.00009057,0.00028580
 ,0.00015278,0.00001093,-0.00003684,-0.00002333,0.00007146,0.00015467,0
 .00006722,0.00029458,0.00036143,-0.00005610,0.00006144,0.00017691,-0.0
 0008908,-0.00013308,-0.00004499,-0.00569555,-0.00869852,0.33142815,-0.
 01028576,-0.00333400,0.00499137,0.00153658,-0.00014349,-0.00102168,-0.
 00011231,0.00239499,-0.00104353,0.00063900,0.00004301,-0.00032539,-0.2
 8611217,0.00195248,0.07386571,0.00014810,-0.00004938,0.00007855,0.0003
 8629,-0.00010260,-0.00003527,-0.00073237,-0.00002781,0.00031319,-0.000
 03195,-0.00016292,-0.00008909,0.00012095,-0.00005229,-0.00014501,0.000
 34942,0.00044220,0.00010348,-0.00026482,0.00030858,-0.00074643,0.30773
 144,0.01767719,0.00140831,-0.00765472,-0.00199679,0.00057112,-0.000437
 04,0.00138369,-0.00383628,0.00196574,-0.00133007,0.00098017,0.00011241
 ,0.01511871,-0.03736521,-0.00743364,-0.00040365,0.00001982,-0.00004384
 ,-0.00007364,0.00007877,0.00015930,0.00152423,0.00016591,-0.00031015,0
 .00010172,0.00012256,0.00013309,-0.00012694,0.00039151,0.00028876,-0.0
 0044224,-0.00081036,-0.00006997,-0.00161847,-0.00164942,0.00073472,-0.
 00347524,0.03945160,-0.00808123,-0.00080320,0.00107165,0.00114768,-0.0
 0065538,0.00019569,-0.00073905,0.00179545,-0.00041483,0.00042700,-0.00
 052806,-0.00031759,0.06587569,-0.00333213,-0.05928278,-0.00015600,0.00
 009305,0.00016816,0.00033769,-0.00002941,-0.00005889,-0.00058746,0.000
 11280,0.00037272,0.00007937,-0.00010707,-0.00004499,-0.00011081,-0.000
 16168,-0.00009874,0.00010342,0.00006983,0.00020615,0.03203727,-0.00117
 509,-0.00879104,-0.07912092,0.00307453,0.06535361,0.00430156,0.0085594
 7,0.00459464,-0.00019181,-0.00093621,0.00070870,0.00031711,-0.00104197
 ,0.00011688,-0.00115848,0.00214928,-0.00118922,-0.08749822,-0.09196106
 ,-0.03556491,0.00004743,0.00005328,-0.00004932,-0.00049153,0.00004595,
 -0.00005468,0.00023342,-0.00018222,-0.00014878,-0.00015150,-0.00027078
 ,-0.00005615,0.00058823,0.00076282,0.00016390,0.00012096,0.00012698,-0
 .00011078,-0.00099448,0.00128582,0.00030393,-0.01311517,-0.02639793,-0
 .01111023,0.09797898,-0.01109458,-0.01400562,-0.00875127,0.00072882,0.
 00228692,0.00061953,0.00012350,0.00130564,0.00029350,0.00295694,-0.002
 96569,0.00201450,-0.10416716,-0.22936658,-0.08141876,-0.00018072,0.000
 02145,0.00010843,0.00090773,0.00002989,-0.00004823,-0.00018205,0.00023
 634,0.00024618,0.00013499,0.00033010,-0.00006140,-0.00076292,-0.001171
 91,-0.00056861,0.00005232,0.00039150,0.00016175,0.00191323,0.00119230,
 0.00161916,0.00177683,0.00059987,0.00124413,0.10791262,0.24140829,0.00
 441945,0.00654292,0.00150623,-0.00004638,-0.00128847,0.00014013,0.0002
 6576,-0.00059527,-0.00021182,-0.00114188,0.00164082,-0.00046842,-0.035
 80814,-0.07249573,-0.06980991,0.00003790,-0.00010718,-0.00004133,-0.00
 014060,-0.00006059,0.00017369,0.00019330,0.00001016,-0.00007567,-0.000
 02002,0.00017197,0.00017692,0.00016383,0.00056839,0.00044424,-0.000145
 01,-0.00028869,-0.00009876,-0.01408086,-0.02775100,-0.01034674,0.00373
 905,0.00873607,0.00207066,0.04245062,0.08463341,0.07651242,-0.00201672
 ,0.00000061,-0.00872609,-0.41732818,-0.00004580,0.24261152,0.00118886,
 -0.00000010,0.00090369,0.00027216,0.00013927,-0.00108713,0.00027199,-0
 .00013908,-0.00108711,-0.00024317,0.00000001,-0.00004852,0.00013715,0.
 00001631,-0.00016021,0.00013714,-0.00001629,-0.00016020,-0.00034156,-0
 .00028190,-0.00015620,0.00001349,0.00011955,0.00011304,-0.00025726,-0.
 00005937,-0.00010239,-0.00034154,0.00028193,-0.00015617,-0.00025724,0.
 00005943,-0.00010241,0.00001349,-0.00011955,0.00011299,0.41875138,-0.0
 0000160,0.00102305,0.00000052,-0.00004402,-0.00194230,0.00002683,0.000
 00017,0.00049181,-0.00000023,-0.00023828,-0.00051972,0.00080939,0.0002
 3845,-0.00051954,-0.00080948,0.00000008,0.00050440,-0.00000004,0.00026
 580,0.00009041,-0.00013043,-0.00026581,0.00009042,0.00013047,-0.000161
 74,0.00014335,0.00029683,0.00010605,-0.00029260,-0.00028332,-0.0004295
 1,-0.00012810,-0.00040213,0.00016187,0.00014348,-0.00029681,0.00042963
 ,-0.00012837,0.00040223,-0.00010605,-0.00029251,0.00028318,0.00004496,
 0.00133622,0.02243453,0.00000267,-0.01524464,0.21281545,0.00002454,-0.
 14326309,-0.00126601,0.00000021,-0.00327160,-0.00085698,0.00016615,0.0
 0172419,-0.00085692,-0.00016662,0.00172333,0.00117024,0.00000001,0.000
 14126,-0.00008036,0.00014058,0.00007480,-0.00008037,-0.00014056,0.0000
 7480,-0.00004362,0.00058630,0.00035304,-0.00005463,0.00009220,0.000028
 28,-0.00056418,-0.00074477,-0.00042998,-0.00004370,-0.00058615,0.00035
 281,-0.00056402,0.00074477,-0.00042976,-0.00005461,-0.00009232,0.00002
 836,-0.23195482,-0.00002701,0.15813819\\-0.00000047,-0.00000005,-0.000
 00174,-0.00000259,0.00000021,0.00000107,0.00000136,-0.00000002,0.00000
 253,0.00000009,-0.00000062,-0.00000001,0.00000014,0.00000066,-0.000000
 02,0.00000037,-0.00000001,0.00000065,-0.00000058,-0.00000071,-0.000000
 25,-0.00000058,0.00000073,-0.00000022,0.00000010,-0.00000004,0.0000005
 0,-0.00000049,0.00000074,-0.00000050,0.00000072,0.00000012,-0.00000065
 ,0.00000012,0.00000005,0.00000050,0.00000072,-0.00000013,-0.00000066,-
 0.00000049,-0.00000075,-0.00000048,0.00000157,-0.00000017,-0.00000070\
 \\@


 TWO ROADS DIVERGED IN A WOOD, AND I--
 I TOOK THE ONE LESS TRAVELED BY,
 AND THAT HAS MADE ALL THE DIFFERENCE.

                       -- ROBERT FROST
 Job cpu time:  0 days  3 hours 24 minutes 38.3 seconds.
 File lengths (MBytes):  RWF=     76 Int=      0 D2E=      0 Chk=      8 Scr=      1
 Normal termination of Gaussian 03 at Thu Apr 16 15:10:41 2009.
