 Entering Gaussian System, Link 0=g03
 Input=./C2H5OH_known.gau
 Output=./C2H5OH_known.log
 Initial command:
 /opt//g03/l1.exe /scratch/Gau-28881.inp -scrdir=/scratch/
 Entering Link 1 = /opt//g03/l1.exe PID=     28898.
  
 Copyright (c) 1988,1990,1992,1993,1995,1998,2003,2004,2007, Gaussian, Inc.
                  All Rights Reserved.
  
 This is the Gaussian(R) 03 program.  It is based on the
 the Gaussian(R) 98 system (copyright 1998, Gaussian, Inc.),
 the Gaussian(R) 94 system (copyright 1995, Gaussian, Inc.),
 the Gaussian 92(TM) system (copyright 1992, Gaussian, Inc.),
 the Gaussian 90(TM) system (copyright 1990, Gaussian, Inc.),
 the Gaussian 88(TM) system (copyright 1988, Gaussian, Inc.),
 the Gaussian 86(TM) system (copyright 1986, Carnegie Mellon
 University), and the Gaussian 82(TM) system (copyright 1983,
 Carnegie Mellon University). Gaussian is a federally registered
 trademark of Gaussian, Inc.
  
 This software contains proprietary and confidential information,
 including trade secrets, belonging to Gaussian, Inc.
  
 This software is provided under written license and may be
 used, copied, transmitted, or stored only in accord with that
 written license.
  
 The following legend is applicable only to US Government
 contracts under FAR:
  
                    RESTRICTED RIGHTS LEGEND
  
 Use, reproduction and disclosure by the US Government is
 subject to restrictions as set forth in subparagraphs (a)
 and (c) of the Commercial Computer Software - Restricted
 Rights clause in FAR 52.227-19.
  
 Gaussian, Inc.
 340 Quinnipiac St., Bldg. 40, Wallingford CT 06492
  
  
 ---------------------------------------------------------------
 Warning -- This program may not be used in any manner that
 competes with the business of Gaussian, Inc. or will provide
 assistance to any competitor of Gaussian, Inc.  The licensee
 of this program is prohibited from giving any competitor of
 Gaussian, Inc. access to this program.  By using this program,
 the user acknowledges that Gaussian, Inc. is engaged in the
 business of creating and licensing software in the field of
 computational chemistry and represents and warrants to the
 licensee that it is not a competitor of Gaussian, Inc. and that
 it will not use this program in any manner prohibited above.
 ---------------------------------------------------------------
  

 Cite this work as:
 Gaussian 03, Revision E.01,
 M. J. Frisch, G. W. Trucks, H. B. Schlegel, G. E. Scuseria, 
 M. A. Robb, J. R. Cheeseman, J. A. Montgomery, Jr., T. Vreven, 
 K. N. Kudin, J. C. Burant, J. M. Millam, S. S. Iyengar, J. Tomasi, 
 V. Barone, B. Mennucci, M. Cossi, G. Scalmani, N. Rega, 
 G. A. Petersson, H. Nakatsuji, M. Hada, M. Ehara, K. Toyota, 
 R. Fukuda, J. Hasegawa, M. Ishida, T. Nakajima, Y. Honda, O. Kitao, 
 H. Nakai, M. Klene, X. Li, J. E. Knox, H. P. Hratchian, J. B. Cross, 
 V. Bakken, C. Adamo, J. Jaramillo, R. Gomperts, R. E. Stratmann, 
 O. Yazyev, A. J. Austin, R. Cammi, C. Pomelli, J. W. Ochterski, 
 P. Y. Ayala, K. Morokuma, G. A. Voth, P. Salvador, J. J. Dannenberg, 
 V. G. Zakrzewski, S. Dapprich, A. D. Daniels, M. C. Strain, 
 O. Farkas, D. K. Malick, A. D. Rabuck, K. Raghavachari, 
 J. B. Foresman, J. V. Ortiz, Q. Cui, A. G. Baboul, S. Clifford, 
 J. Cioslowski, B. B. Stefanov, G. Liu, A. Liashenko, P. Piskorz, 
 I. Komaromi, R. L. Martin, D. J. Fox, T. Keith, M. A. Al-Laham, 
 C. Y. Peng, A. Nanayakkara, M. Challacombe, P. M. W. Gill, 
 B. Johnson, W. Chen, M. W. Wong, C. Gonzalez, and J. A. Pople, 
 Gaussian, Inc., Wallingford CT, 2004.
 
 ******************************************
 Gaussian 03:  AM64L-G03RevE.01 11-Sep-2007
                30-Mar-2009 
 ******************************************
 %NProcShared=2
 Will use up to    2 processors via shared memory.
 ----------------------------------------------------------------------
 #p uB971/6-311+G(d,p) opt=(Tight, NewEstmFC, MaxCyc = 200) freq #GFInp
 ut Population=Regular #Integral(Grid=UltraFine) Guess=Mix NoSymmetry
 ----------------------------------------------------------------------
 1/6=200,7=10,10=7,14=-1,18=20,26=3,38=1/1,3;
 2/9=110,15=1,17=6,18=5,40=1/2;
 3/5=4,6=6,7=111,11=2,16=1,24=10,25=1,30=1,74=-20,75=5/1,2,3;
 4/7=2,9=2,13=1/1;
 5/5=2,38=5/2;
 6/28=1/1;
 7/29=1,30=1/1,2,3,16;
 1/6=200,10=7,14=-1,18=20/3(3);
 2/9=110,15=1/2;
 6/19=2,28=1/1;
 99//99;
 2/9=110,15=1/2;
 3/5=4,6=6,7=111,11=2,16=1,25=1,30=1,74=-20,75=5/1,2,3;
 4/5=5,7=2,9=2,16=3/1;
 5/5=2,38=5/2;
 7/30=1/1,2,3,16;
 1/6=200,14=-1,18=20/3(-5);
 2/9=110,15=1/2;
 6/19=2,28=1/1;
 99/9=1/99;
 Leave Link    1 at Mon Mar 30 16:48:11 2009, MaxMem=          0 cpu:       0.3
 (Enter /opt//g03/l101.exe)
 ---------------------------
 #NewComb uB971/6-311+G(d,p)
 ---------------------------
 Symbolic Z-matrix:
 Charge =  0 Multiplicity = 1
 C                     1.84377   3.24324   2.72833 
 C                     3.31677   3.35229   2.35422 
 O                     4.18757   3.23062   3.48022 
 H                     1.64474   2.29875   3.24047 
 H                     1.21445   3.29269   1.83418 
 H                     1.54209   4.06181   3.39069 
 H                     3.50732   4.29489   1.82311 
 H                     3.60176   2.53801   1.68477 
 H                     3.99003   3.941     4.09901 
 
                    Isotopes and Nuclear Properties:
 (Nuclear quadrupole moments (NQMom) in fm**2, nuclear magnetic moments (NMagM)
  in nuclear magnetons)

  Atom         1           2           3           4           5           6           7           8           9
 IAtWgt=          12          12          16           1           1           1           1           1           1
 AtmWgt=  12.0000000  12.0000000  15.9949146   1.0078250   1.0078250   1.0078250   1.0078250   1.0078250   1.0078250
 NucSpn=           0           0           0           1           1           1           1           1           1
 AtZEff=   0.0000000   0.0000000   0.0000000   0.0000000   0.0000000   0.0000000   0.0000000   0.0000000   0.0000000
 NQMom=    0.0000000   0.0000000   0.0000000   0.0000000   0.0000000   0.0000000   0.0000000   0.0000000   0.0000000
 NMagM=    0.0000000   0.0000000   0.0000000   2.7928460   2.7928460   2.7928460   2.7928460   2.7928460   2.7928460
 Leave Link  101 at Mon Mar 30 16:48:11 2009, MaxMem=    6291456 cpu:       0.1
 (Enter /opt//g03/l103.exe)

 GradGradGradGradGradGradGradGradGradGradGradGradGradGradGradGradGradGrad
 Berny optimization.
 Initialization pass.
                           ----------------------------
                           !    Initial Parameters    !
                           ! (Angstroms and Degrees)  !
 --------------------------                            --------------------------
 ! Name  Definition              Value          Derivative Info.                !
 --------------------------------------------------------------------------------
 ! R1    R(1,2)                  1.5237         estimate D2E/DX2                !
 ! R2    R(1,4)                  1.0927         estimate D2E/DX2                !
 ! R3    R(1,5)                  1.0945         estimate D2E/DX2                !
 ! R4    R(1,6)                  1.0953         estimate D2E/DX2                !
 ! R5    R(2,3)                  1.4286         estimate D2E/DX2                !
 ! R6    R(2,7)                  1.0986         estimate D2E/DX2                !
 ! R7    R(2,8)                  1.092          estimate D2E/DX2                !
 ! R8    R(3,9)                  0.9626         estimate D2E/DX2                !
 ! A1    A(2,1,4)              110.673          estimate D2E/DX2                !
 ! A2    A(2,1,5)              110.6117         estimate D2E/DX2                !
 ! A3    A(2,1,6)              111.1768         estimate D2E/DX2                !
 ! A4    A(4,1,5)              108.4946         estimate D2E/DX2                !
 ! A5    A(4,1,6)              108.2021         estimate D2E/DX2                !
 ! A6    A(5,1,6)              107.5704         estimate D2E/DX2                !
 ! A7    A(1,2,3)              112.9327         estimate D2E/DX2                !
 ! A8    A(1,2,7)              110.3524         estimate D2E/DX2                !
 ! A9    A(1,2,8)              110.4542         estimate D2E/DX2                !
 ! A10   A(3,2,7)              110.3889         estimate D2E/DX2                !
 ! A11   A(3,2,8)              105.1061         estimate D2E/DX2                !
 ! A12   A(7,2,8)              107.3471         estimate D2E/DX2                !
 ! A13   A(2,3,9)              108.5861         estimate D2E/DX2                !
 ! D1    D(4,1,2,3)            -56.9788         estimate D2E/DX2                !
 ! D2    D(4,1,2,7)            178.9362         estimate D2E/DX2                !
 ! D3    D(4,1,2,8)             60.3964         estimate D2E/DX2                !
 ! D4    D(5,1,2,3)           -177.2537         estimate D2E/DX2                !
 ! D5    D(5,1,2,7)             58.6612         estimate D2E/DX2                !
 ! D6    D(5,1,2,8)            -59.8785         estimate D2E/DX2                !
 ! D7    D(6,1,2,3)             63.3013         estimate D2E/DX2                !
 ! D8    D(6,1,2,7)            -60.7837         estimate D2E/DX2                !
 ! D9    D(6,1,2,8)           -179.3235         estimate D2E/DX2                !
 ! D10   D(1,2,3,9)            -60.6691         estimate D2E/DX2                !
 ! D11   D(7,2,3,9)             63.3959         estimate D2E/DX2                !
 ! D12   D(8,2,3,9)            178.8509         estimate D2E/DX2                !
 --------------------------------------------------------------------------------
 Trust Radius=3.00D-01 FncErr=1.00D-07 GrdErr=1.00D-06
 Number of steps in this run= 100 maximum allowed number of steps= 100.
 GradGradGradGradGradGradGradGradGradGradGradGradGradGradGradGradGradGrad

 Leave Link  103 at Mon Mar 30 16:48:11 2009, MaxMem=    6291456 cpu:       0.0
 (Enter /opt//g03/l202.exe)
                          Input orientation:                          
 ---------------------------------------------------------------------
 Center     Atomic     Atomic              Coordinates (Angstroms)
 Number     Number      Type              X           Y           Z
 ---------------------------------------------------------------------
    1          6             0        1.843770    3.243240    2.728330
    2          6             0        3.316770    3.352290    2.354220
    3          8             0        4.187570    3.230620    3.480220
    4          1             0        1.644740    2.298750    3.240470
    5          1             0        1.214450    3.292690    1.834180
    6          1             0        1.542090    4.061810    3.390690
    7          1             0        3.507320    4.294890    1.823110
    8          1             0        3.601760    2.538010    1.684770
    9          1             0        3.990030    3.941000    4.099010
 ---------------------------------------------------------------------
                    Distance matrix (angstroms):
                    1          2          3          4          5
     1  C    0.000000
     2  C    1.523673   0.000000
     3  O    2.461483   1.428626   0.000000
     4  H    1.092686   2.165888   2.718795   0.000000
     5  H    1.094529   2.166505   3.398933   1.775026   0.000000
     6  H    1.095349   2.174207   2.774429   1.772423   1.766810
     7  H    2.166285   1.098582   2.083608   3.076148   2.502355
     8  H    2.162613   1.091987   2.011597   2.511449   2.508209
     9  H    2.640467   1.960651   0.962581   2.989057   3.640550
                    6          7          8          9
     6  H    0.000000
     7  H    2.524631   0.000000
     8  H    3.078046   1.764847   0.000000
     9  H    2.551220   2.353289   2.819165   0.000000
 Symmetry turned off by external request.
 Stoichiometry    C2H6O
 Framework group  C1[X(C2H6O)]
 Deg. of freedom    21
 Full point group                 C1
 Rotational constants (GHZ):     34.4157210      9.1223687      8.0632147
 Leave Link  202 at Mon Mar 30 16:48:11 2009, MaxMem=    6291456 cpu:       0.1
 (Enter /opt//g03/l301.exe)
 Standard basis: 6-311+G(d,p) (5D, 7F)
 AO basis set in the form of general basis input:
      1 0
 S   6 1.00       0.000000000000
      0.4563240000D+04  0.1966650249D-02
      0.6820240000D+03  0.1523060193D-01
      0.1549730000D+03  0.7612690966D-01
      0.4445530000D+02  0.2608010331D+00
      0.1302900000D+02  0.6164620782D+00
      0.1827730000D+01  0.2210060280D+00
 SP   3 1.00       0.000000000000
      0.2096420000D+02  0.1146600807D+00  0.4024869267D-01
      0.4803310000D+01  0.9199996477D+00  0.2375939567D+00
      0.1459330000D+01 -0.3030682134D-02  0.8158538515D+00
 SP   1 1.00       0.000000000000
      0.4834560000D+00  0.1000000000D+01  0.1000000000D+01
 SP   1 1.00       0.000000000000
      0.1455850000D+00  0.1000000000D+01  0.1000000000D+01
 SP   1 1.00       0.000000000000
      0.4380000000D-01  0.1000000000D+01  0.1000000000D+01
 D   1 1.00       0.000000000000
      0.6260000000D+00  0.1000000000D+01
 ****
      2 0
 S   6 1.00       0.000000000000
      0.4563240000D+04  0.1966650249D-02
      0.6820240000D+03  0.1523060193D-01
      0.1549730000D+03  0.7612690966D-01
      0.4445530000D+02  0.2608010331D+00
      0.1302900000D+02  0.6164620782D+00
      0.1827730000D+01  0.2210060280D+00
 SP   3 1.00       0.000000000000
      0.2096420000D+02  0.1146600807D+00  0.4024869267D-01
      0.4803310000D+01  0.9199996477D+00  0.2375939567D+00
      0.1459330000D+01 -0.3030682134D-02  0.8158538515D+00
 SP   1 1.00       0.000000000000
      0.4834560000D+00  0.1000000000D+01  0.1000000000D+01
 SP   1 1.00       0.000000000000
      0.1455850000D+00  0.1000000000D+01  0.1000000000D+01
 SP   1 1.00       0.000000000000
      0.4380000000D-01  0.1000000000D+01  0.1000000000D+01
 D   1 1.00       0.000000000000
      0.6260000000D+00  0.1000000000D+01
 ****
      3 0
 S   6 1.00       0.000000000000
      0.8588500000D+04  0.1895150083D-02
      0.1297230000D+04  0.1438590063D-01
      0.2992960000D+03  0.7073200310D-01
      0.8737710000D+02  0.2400010105D+00
      0.2567890000D+02  0.5947970261D+00
      0.3740040000D+01  0.2808020123D+00
 SP   3 1.00       0.000000000000
      0.4211750000D+02  0.1138890124D+00  0.3651139738D-01
      0.9628370000D+01  0.9208111006D+00  0.2371529830D+00
      0.2853320000D+01 -0.3274470358D-02  0.8197019412D+00
 SP   1 1.00       0.000000000000
      0.9056610000D+00  0.1000000000D+01  0.1000000000D+01
 SP   1 1.00       0.000000000000
      0.2556110000D+00  0.1000000000D+01  0.1000000000D+01
 SP   1 1.00       0.000000000000
      0.8450000000D-01  0.1000000000D+01  0.1000000000D+01
 D   1 1.00       0.000000000000
      0.1292000000D+01  0.1000000000D+01
 ****
      4 0
 S   3 1.00       0.000000000000
      0.3386500000D+02  0.2549381454D-01
      0.5094790000D+01  0.1903731086D+00
      0.1158790000D+01  0.8521614860D+00
 S   1 1.00       0.000000000000
      0.3258400000D+00  0.1000000000D+01
 S   1 1.00       0.000000000000
      0.1027410000D+00  0.1000000000D+01
 P   1 1.00       0.000000000000
      0.7500000000D+00  0.1000000000D+01
 ****
      5 0
 S   3 1.00       0.000000000000
      0.3386500000D+02  0.2549381454D-01
      0.5094790000D+01  0.1903731086D+00
      0.1158790000D+01  0.8521614860D+00
 S   1 1.00       0.000000000000
      0.3258400000D+00  0.1000000000D+01
 S   1 1.00       0.000000000000
      0.1027410000D+00  0.1000000000D+01
 P   1 1.00       0.000000000000
      0.7500000000D+00  0.1000000000D+01
 ****
      6 0
 S   3 1.00       0.000000000000
      0.3386500000D+02  0.2549381454D-01
      0.5094790000D+01  0.1903731086D+00
      0.1158790000D+01  0.8521614860D+00
 S   1 1.00       0.000000000000
      0.3258400000D+00  0.1000000000D+01
 S   1 1.00       0.000000000000
      0.1027410000D+00  0.1000000000D+01
 P   1 1.00       0.000000000000
      0.7500000000D+00  0.1000000000D+01
 ****
      7 0
 S   3 1.00       0.000000000000
      0.3386500000D+02  0.2549381454D-01
      0.5094790000D+01  0.1903731086D+00
      0.1158790000D+01  0.8521614860D+00
 S   1 1.00       0.000000000000
      0.3258400000D+00  0.1000000000D+01
 S   1 1.00       0.000000000000
      0.1027410000D+00  0.1000000000D+01
 P   1 1.00       0.000000000000
      0.7500000000D+00  0.1000000000D+01
 ****
      8 0
 S   3 1.00       0.000000000000
      0.3386500000D+02  0.2549381454D-01
      0.5094790000D+01  0.1903731086D+00
      0.1158790000D+01  0.8521614860D+00
 S   1 1.00       0.000000000000
      0.3258400000D+00  0.1000000000D+01
 S   1 1.00       0.000000000000
      0.1027410000D+00  0.1000000000D+01
 P   1 1.00       0.000000000000
      0.7500000000D+00  0.1000000000D+01
 ****
      9 0
 S   3 1.00       0.000000000000
      0.3386500000D+02  0.2549381454D-01
      0.5094790000D+01  0.1903731086D+00
      0.1158790000D+01  0.8521614860D+00
 S   1 1.00       0.000000000000
      0.3258400000D+00  0.1000000000D+01
 S   1 1.00       0.000000000000
      0.1027410000D+00  0.1000000000D+01
 P   1 1.00       0.000000000000
      0.7500000000D+00  0.1000000000D+01
 ****

 Integral buffers will be    131072 words long.
 Raffenetti 2 integral format.
 Two-electron integral symmetry is turned off.
   102 basis functions,   156 primitive gaussians,   105 cartesian basis functions
    13 alpha electrons       13 beta electrons
       nuclear repulsion energy        81.4401772576 Hartrees.
 IExCor=1614 DFT=T Ex=B97-1+HF Corr=B97-1 ExCW=0 ScaHFX=  0.210000
 ScaDFX=  1.000000  1.000000  1.000000  1.000000
 IRadAn=      5 IRanWt=     -1 IRanGd=            0 ICorTp=0
 NAtoms=    9 NActive=    9 NUniq=    9 SFac= 7.50D-01 NAtFMM=   80 NAOKFM=F Big=F
 Leave Link  301 at Mon Mar 30 16:48:12 2009, MaxMem=    6291456 cpu:       0.0
 (Enter /opt//g03/l302.exe)
 NPDir=0 NMtPBC=     1 NCelOv=     1 NCel=       1 NClECP=     1 NCelD=      1
         NCelK=      1 NCelE2=     1 NClLst=     1 CellRange=     0.0.
 One-electron integrals computed using PRISM.
 NBasis=   102 RedAO= T  NBF=   102
 NBsUse=   102 1.00D-06 NBFU=   102
 Precomputing XC quadrature grid using
 IXCGrd= 2 IRadAn=           5 IRanWt=          -1 IRanGd=           0.
 NRdTot=     761 NPtTot=      202890 NUsed=      208254 NTot=      208286
 NSgBfM=   105   105   105   105.
 Leave Link  302 at Mon Mar 30 16:48:12 2009, MaxMem=    6291456 cpu:       0.5
 (Enter /opt//g03/l303.exe)
 DipDrv:  MaxL=1.
 Leave Link  303 at Mon Mar 30 16:48:12 2009, MaxMem=    6291456 cpu:       0.0
 (Enter /opt//g03/l401.exe)
 SCF N**3 symmetry information disabled.
 Harris functional with IExCor= 1614 diagonalized for initial guess.
 ExpMin= 4.38D-02 ExpMax= 8.59D+03 ExpMxC= 1.30D+03 IAcc=3 IRadAn=         5 AccDes= 0.00D+00
 HarFok:  IExCor=1614 AccDes= 0.00D+00 IRadAn=         5 IDoV=1
 ScaDFX=  1.000000  1.000000  1.000000  1.000000
 Harris En= -150.796946379171    
 <S**2> of initial guess= 1.0000
 Leave Link  401 at Mon Mar 30 16:48:14 2009, MaxMem=    6291456 cpu:       3.7
 (Enter /opt//g03/l502.exe)
 UHF open shell SCF:
 Requested convergence on RMS density matrix=1.00D-08 within 128 cycles.
 Requested convergence on MAX density matrix=1.00D-06.
 Requested convergence on             energy=1.00D-06.
 No special actions if energy rises.
 Using DIIS extrapolation, IDIIS=  1040.
 Two-electron integral symmetry not used.
       208253 words used for storage of precomputed grid.
 IEnd=    265069 IEndB=    265069 NGot=   6291456 MDV=   6054158
 LenX=   6054158
 Fock matrices will be formed incrementally for  20 cycles.

 Cycle   1  Pass 1  IDiag  1:
 Symmetry not used in FoFDir.
 MinBra= 0 MaxBra= 2 Meth= 1.
 IRaf=       0 NMat=   1 IRICut=       1 DoRegI=T DoRafI=F ISym2E= 0 JSym2E=0.
 E= -154.587731619109    
 DIIS: error= 8.99D-02 at cycle   1 NSaved=   1.
 NSaved= 1 IEnMin= 1 EnMin= -154.587731619109     IErMin= 1 ErrMin= 8.99D-02
 ErrMax= 8.99D-02 EMaxC= 1.00D-01 BMatC= 1.86D+00 BMatP= 1.86D+00
 IDIUse=3 WtCom= 1.01D-01 WtEn= 8.99D-01
 Coeff-Com:  0.100D+01
 Coeff-En:   0.100D+01
 Coeff:      0.100D+01
 Gap=     0.070 Goal=   None    Shift=    0.000
 Gap=     0.019 Goal=   None    Shift=    0.000
 GapD=    0.019 DampG=0.250 DampE=0.500 DampFc=0.2500 IDamp=-1.
 Damping current iteration by 2.50D-01
 RMSDP=3.28D-02 MaxDP=1.76D+00              OVMax= 5.32D-01

 Cycle   2  Pass 1  IDiag  1:
 RMSU=  3.94D-03    CP:  8.03D-01
 E= -154.736584322435     Delta-E=       -0.148852703326 Rises=F Damp=T
 DIIS: error= 6.32D-02 at cycle   2 NSaved=   2.
 NSaved= 2 IEnMin= 2 EnMin= -154.736584322435     IErMin= 2 ErrMin= 6.32D-02
 ErrMax= 6.32D-02 EMaxC= 1.00D-01 BMatC= 6.05D-01 BMatP= 1.86D+00
 IDIUse=3 WtCom= 3.68D-01 WtEn= 6.32D-01
 Coeff-Com: -0.701D+00 0.170D+01
 Coeff-En:   0.000D+00 0.100D+01
 Coeff:     -0.258D+00 0.126D+01
 Gap=     0.343 Goal=   None    Shift=    0.000
 Gap=     0.343 Goal=   None    Shift=    0.000
 RMSDP=2.41D-02 MaxDP=1.29D+00 DE=-1.49D-01 OVMax= 1.10D-01

 Cycle   3  Pass 1  IDiag  1:
 RMSU=  4.72D-03    CP:  2.19D-01  3.00D+00
 E= -154.997832806205     Delta-E=       -0.261248483770 Rises=F Damp=F
 DIIS: error= 2.31D-02 at cycle   3 NSaved=   3.
 NSaved= 3 IEnMin= 3 EnMin= -154.997832806205     IErMin= 3 ErrMin= 2.31D-02
 ErrMax= 2.31D-02 EMaxC= 1.00D-01 BMatC= 1.82D-01 BMatP= 6.05D-01
 IDIUse=3 WtCom= 7.69D-01 WtEn= 2.31D-01
 Coeff-Com:  0.652D+00-0.803D+00 0.115D+01
 Coeff-En:   0.000D+00 0.000D+00 0.100D+01
 Coeff:      0.501D+00-0.617D+00 0.112D+01
 Gap=     0.305 Goal=   None    Shift=    0.000
 Gap=     0.297 Goal=   None    Shift=    0.000
 RMSDP=3.57D-03 MaxDP=4.66D-02 DE=-2.61D-01 OVMax= 1.07D-01

 Cycle   4  Pass 1  IDiag  1:
 RMSU=  3.14D-03    CP:  2.16D-01  3.00D+00  1.36D+00
 E= -155.020925531863     Delta-E=       -0.023092725657 Rises=F Damp=F
 DIIS: error= 1.73D-02 at cycle   4 NSaved=   4.
 NSaved= 4 IEnMin= 4 EnMin= -155.020925531863     IErMin= 4 ErrMin= 1.73D-02
 ErrMax= 1.73D-02 EMaxC= 1.00D-01 BMatC= 9.54D-02 BMatP= 1.82D-01
 IDIUse=3 WtCom= 8.27D-01 WtEn= 1.73D-01
 Coeff-Com: -0.496D-01 0.825D-01 0.373D+00 0.594D+00
 Coeff-En:   0.000D+00 0.000D+00 0.317D+00 0.683D+00
 Coeff:     -0.410D-01 0.683D-01 0.363D+00 0.610D+00
 Gap=     0.294 Goal=   None    Shift=    0.000
 Gap=     0.293 Goal=   None    Shift=    0.000
 RMSDP=1.54D-03 MaxDP=3.67D-02 DE=-2.31D-02 OVMax= 4.33D-02

 Cycle   5  Pass 1  IDiag  1:
 RMSU=  7.11D-04    CP:  2.10D-01  3.00D+00  1.22D+00  6.28D-01
 E= -155.038178475816     Delta-E=       -0.017252943953 Rises=F Damp=F
 DIIS: error= 1.80D-03 at cycle   5 NSaved=   5.
 NSaved= 5 IEnMin= 5 EnMin= -155.038178475816     IErMin= 5 ErrMin= 1.80D-03
 ErrMax= 1.80D-03 EMaxC= 1.00D-01 BMatC= 8.88D-04 BMatP= 9.54D-02
 IDIUse=3 WtCom= 9.82D-01 WtEn= 1.80D-02
 Coeff-Com: -0.896D-02 0.133D-01 0.631D-01 0.159D+00 0.774D+00
 Coeff-En:   0.000D+00 0.000D+00 0.000D+00 0.000D+00 0.100D+01
 Coeff:     -0.880D-02 0.130D-01 0.619D-01 0.156D+00 0.778D+00
 Gap=     0.289 Goal=   None    Shift=    0.000
 Gap=     0.289 Goal=   None    Shift=    0.000
 RMSDP=1.86D-04 MaxDP=3.94D-03 DE=-1.73D-02 OVMax= 6.09D-03

 Cycle   6  Pass 1  IDiag  1:
 RMSU=  1.60D-04    CP:  2.09D-01  3.00D+00  1.23D+00  6.53D-01  1.03D+00
 E= -155.038338822738     Delta-E=       -0.000160346922 Rises=F Damp=F
 DIIS: error= 6.94D-04 at cycle   6 NSaved=   6.
 NSaved= 6 IEnMin= 6 EnMin= -155.038338822738     IErMin= 6 ErrMin= 6.94D-04
 ErrMax= 6.94D-04 EMaxC= 1.00D-01 BMatC= 1.44D-04 BMatP= 8.88D-04
 IDIUse=3 WtCom= 9.93D-01 WtEn= 6.94D-03
 Coeff-Com:  0.603D-03-0.141D-02-0.162D-01 0.109D-02 0.356D+00 0.660D+00
 Coeff-En:   0.000D+00 0.000D+00 0.000D+00 0.000D+00 0.000D+00 0.100D+01
 Coeff:      0.599D-03-0.140D-02-0.161D-01 0.108D-02 0.353D+00 0.663D+00
 Gap=     0.290 Goal=   None    Shift=    0.000
 Gap=     0.290 Goal=   None    Shift=    0.000
 RMSDP=7.17D-05 MaxDP=1.62D-03 DE=-1.60D-04 OVMax= 2.61D-03

 Cycle   7  Pass 1  IDiag  1:
 RMSU=  4.56D-05    CP:  2.09D-01  3.00D+00  1.23D+00  6.53D-01  1.10D+00
                    CP:  1.03D+00
 E= -155.038376940803     Delta-E=       -0.000038118065 Rises=F Damp=F
 DIIS: error= 1.13D-04 at cycle   7 NSaved=   7.
 NSaved= 7 IEnMin= 7 EnMin= -155.038376940803     IErMin= 7 ErrMin= 1.13D-04
 ErrMax= 1.13D-04 EMaxC= 1.00D-01 BMatC= 7.69D-06 BMatP= 1.44D-04
 IDIUse=3 WtCom= 9.99D-01 WtEn= 1.13D-03
 Coeff-Com: -0.169D-03-0.471D-04-0.110D-01-0.150D-01-0.240D-01 0.141D+00
 Coeff-Com:  0.910D+00
 Coeff-En:   0.000D+00 0.000D+00 0.000D+00 0.000D+00 0.000D+00 0.000D+00
 Coeff-En:   0.100D+01
 Coeff:     -0.169D-03-0.470D-04-0.109D-01-0.150D-01-0.240D-01 0.140D+00
 Coeff:      0.910D+00
 Gap=     0.290 Goal=   None    Shift=    0.000
 Gap=     0.290 Goal=   None    Shift=    0.000
 RMSDP=2.95D-05 MaxDP=6.29D-04 DE=-3.81D-05 OVMax= 1.23D-03

 Cycle   8  Pass 1  IDiag  1:
 RMSU=  1.53D-05    CP:  2.08D-01  3.00D+00  1.23D+00  6.53D-01  1.13D+00
                    CP:  1.10D+00  1.13D+00
 E= -155.038379828377     Delta-E=       -0.000002887575 Rises=F Damp=F
 DIIS: error= 3.55D-05 at cycle   8 NSaved=   8.
 NSaved= 8 IEnMin= 8 EnMin= -155.038379828377     IErMin= 8 ErrMin= 3.55D-05
 ErrMax= 3.55D-05 EMaxC= 1.00D-01 BMatC= 5.66D-07 BMatP= 7.69D-06
 IDIUse=1 WtCom= 1.00D+00 WtEn= 0.00D+00
 Coeff-Com: -0.391D-05-0.366D-04-0.449D-04-0.230D-02-0.399D-01-0.360D-01
 Coeff-Com:  0.181D+00 0.898D+00
 Coeff:     -0.391D-05-0.366D-04-0.449D-04-0.230D-02-0.399D-01-0.360D-01
 Coeff:      0.181D+00 0.898D+00
 Gap=     0.289 Goal=   None    Shift=    0.000
 Gap=     0.289 Goal=   None    Shift=    0.000
 RMSDP=8.39D-06 MaxDP=1.74D-04 DE=-2.89D-06 OVMax= 3.18D-04

 Cycle   9  Pass 1  IDiag  1:
 RMSU=  4.54D-06    CP:  2.08D-01  3.00D+00  1.23D+00  6.54D-01  1.13D+00
                    CP:  1.13D+00  1.20D+00  9.31D-01
 E= -155.038380014740     Delta-E=       -0.000000186363 Rises=F Damp=F
 DIIS: error= 1.33D-05 at cycle   9 NSaved=   9.
 NSaved= 9 IEnMin= 9 EnMin= -155.038380014740     IErMin= 9 ErrMin= 1.33D-05
 ErrMax= 1.33D-05 EMaxC= 1.00D-01 BMatC= 8.27D-08 BMatP= 5.66D-07
 IDIUse=1 WtCom= 1.00D+00 WtEn= 0.00D+00
 Coeff-Com:  0.847D-04-0.117D-03 0.588D-03-0.271D-03-0.125D-01-0.201D-01
 Coeff-Com:  0.108D-01 0.327D+00 0.695D+00
 Coeff:      0.847D-04-0.117D-03 0.588D-03-0.271D-03-0.125D-01-0.201D-01
 Coeff:      0.108D-01 0.327D+00 0.695D+00
 Gap=     0.289 Goal=   None    Shift=    0.000
 Gap=     0.289 Goal=   None    Shift=    0.000
 RMSDP=1.58D-06 MaxDP=3.82D-05 DE=-1.86D-07 OVMax= 4.76D-05

 Cycle  10  Pass 1  IDiag  1:
 RMSU=  1.11D-06    CP:  2.08D-01  3.00D+00  1.23D+00  6.54D-01  1.13D+00
                    CP:  1.14D+00  1.21D+00  9.82D-01  9.18D-01
 E= -155.038380035048     Delta-E=       -0.000000020307 Rises=F Damp=F
 DIIS: error= 6.44D-06 at cycle  10 NSaved=  10.
 NSaved=10 IEnMin=10 EnMin= -155.038380035048     IErMin=10 ErrMin= 6.44D-06
 ErrMax= 6.44D-06 EMaxC= 1.00D-01 BMatC= 1.15D-08 BMatP= 8.27D-08
 IDIUse=1 WtCom= 1.00D+00 WtEn= 0.00D+00
 Coeff-Com:  0.261D-05 0.831D-05 0.297D-03 0.187D-03-0.822D-03-0.468D-02
 Coeff-Com: -0.145D-01 0.432D-01 0.294D+00 0.683D+00
 Coeff:      0.261D-05 0.831D-05 0.297D-03 0.187D-03-0.822D-03-0.468D-02
 Coeff:     -0.145D-01 0.432D-01 0.294D+00 0.683D+00
 Gap=     0.289 Goal=   None    Shift=    0.000
 Gap=     0.289 Goal=   None    Shift=    0.000
 RMSDP=4.88D-07 MaxDP=1.25D-05 DE=-2.03D-08 OVMax= 1.67D-05

 Cycle  11  Pass 1  IDiag  1:
 RMSU=  3.90D-07    CP:  2.08D-01  3.00D+00  1.23D+00  6.54D-01  1.13D+00
                    CP:  1.13D+00  1.21D+00  9.86D-01  9.51D-01  8.74D-01
 E= -155.038380037867     Delta-E=       -0.000000002819 Rises=F Damp=F
 DIIS: error= 1.35D-06 at cycle  11 NSaved=  11.
 NSaved=11 IEnMin=11 EnMin= -155.038380037867     IErMin=11 ErrMin= 1.35D-06
 ErrMax= 1.35D-06 EMaxC= 1.00D-01 BMatC= 4.00D-10 BMatP= 1.15D-08
 IDIUse=1 WtCom= 1.00D+00 WtEn= 0.00D+00
 Coeff-Com: -0.149D-05 0.427D-05-0.402D-05 0.385D-04 0.874D-03 0.723D-03
 Coeff-Com: -0.308D-02-0.188D-01 0.147D-02 0.152D+00 0.866D+00
 Coeff:     -0.149D-05 0.427D-05-0.402D-05 0.385D-04 0.874D-03 0.723D-03
 Coeff:     -0.308D-02-0.188D-01 0.147D-02 0.152D+00 0.866D+00
 Gap=     0.289 Goal=   None    Shift=    0.000
 Gap=     0.289 Goal=   None    Shift=    0.000
 RMSDP=1.65D-07 MaxDP=3.30D-06 DE=-2.82D-09 OVMax= 4.36D-06

 Cycle  12  Pass 1  IDiag  1:
 RMSU=  9.15D-08    CP:  2.08D-01  3.00D+00  1.23D+00  6.54D-01  1.13D+00
                    CP:  1.13D+00  1.21D+00  9.84D-01  9.68D-01  9.28D-01
                    CP:  9.33D-01
 E= -155.038380038007     Delta-E=       -0.000000000140 Rises=F Damp=F
 DIIS: error= 2.52D-07 at cycle  12 NSaved=  12.
 NSaved=12 IEnMin=12 EnMin= -155.038380038007     IErMin=12 ErrMin= 2.52D-07
 ErrMax= 2.52D-07 EMaxC= 1.00D-01 BMatC= 2.40D-11 BMatP= 4.00D-10
 IDIUse=1 WtCom= 1.00D+00 WtEn= 0.00D+00
 Coeff-Com: -0.119D-05 0.964D-06-0.231D-04-0.356D-05 0.121D-03 0.400D-03
 Coeff-Com:  0.705D-03-0.421D-02-0.225D-01-0.420D-01 0.422D-01 0.103D+01
 Coeff:     -0.119D-05 0.964D-06-0.231D-04-0.356D-05 0.121D-03 0.400D-03
 Coeff:      0.705D-03-0.421D-02-0.225D-01-0.420D-01 0.422D-01 0.103D+01
 Gap=     0.289 Goal=   None    Shift=    0.000
 Gap=     0.289 Goal=   None    Shift=    0.000
 RMSDP=3.89D-08 MaxDP=7.92D-07 DE=-1.40D-10 OVMax= 1.37D-06

 Cycle  13  Pass 1  IDiag  1:
 RMSU=  2.55D-08    CP:  2.08D-01  3.00D+00  1.23D+00  6.54D-01  1.13D+00
                    CP:  1.13D+00  1.21D+00  9.84D-01  9.68D-01  9.38D-01
                    CP:  9.83D-01  1.14D+00
 E= -155.038380038018     Delta-E=       -0.000000000010 Rises=F Damp=F
 DIIS: error= 6.06D-08 at cycle  13 NSaved=  13.
 NSaved=13 IEnMin=13 EnMin= -155.038380038018     IErMin=13 ErrMin= 6.06D-08
 ErrMax= 6.06D-08 EMaxC= 1.00D-01 BMatC= 1.41D-12 BMatP= 2.40D-11
 IDIUse=1 WtCom= 1.00D+00 WtEn= 0.00D+00
 Coeff-Com:  0.175D-06-0.569D-06-0.157D-05-0.357D-05-0.545D-04-0.109D-04
 Coeff-Com:  0.274D-03 0.880D-03-0.244D-02-0.154D-01-0.568D-01 0.106D+00
 Coeff-Com:  0.967D+00
 Coeff:      0.175D-06-0.569D-06-0.157D-05-0.357D-05-0.545D-04-0.109D-04
 Coeff:      0.274D-03 0.880D-03-0.244D-02-0.154D-01-0.568D-01 0.106D+00
 Coeff:      0.967D+00
 Gap=     0.289 Goal=   None    Shift=    0.000
 Gap=     0.289 Goal=   None    Shift=    0.000
 RMSDP=1.16D-08 MaxDP=2.37D-07 DE=-1.04D-11 OVMax= 3.02D-07

 Cycle  14  Pass 1  IDiag  1:
 RMSU=  8.65D-09    CP:  2.08D-01  3.00D+00  1.23D+00  6.54D-01  1.13D+00
                    CP:  1.13D+00  1.21D+00  9.84D-01  9.67D-01  9.38D-01
                    CP:  9.88D-01  1.19D+00  1.11D+00
 E= -155.038380038017     Delta-E=        0.000000000001 Rises=F Damp=F
 DIIS: error= 1.77D-08 at cycle  14 NSaved=  14.
 NSaved=14 IEnMin=13 EnMin= -155.038380038018     IErMin=14 ErrMin= 1.77D-08
 ErrMax= 1.77D-08 EMaxC= 1.00D-01 BMatC= 1.35D-13 BMatP= 1.41D-12
 IDIUse=1 WtCom= 1.00D+00 WtEn= 0.00D+00
 Coeff-Com:  0.791D-07-0.104D-06 0.125D-05-0.599D-06-0.143D-04-0.258D-04
 Coeff-Com:  0.314D-05 0.336D-03 0.933D-03 0.256D-03-0.956D-02-0.455D-01
 Coeff-Com:  0.125D+00 0.928D+00
 Coeff:      0.791D-07-0.104D-06 0.125D-05-0.599D-06-0.143D-04-0.258D-04
 Coeff:      0.314D-05 0.336D-03 0.933D-03 0.256D-03-0.956D-02-0.455D-01
 Coeff:      0.125D+00 0.928D+00
 Gap=     0.289 Goal=   None    Shift=    0.000
 Gap=     0.289 Goal=   None    Shift=    0.000
 RMSDP=3.91D-09 MaxDP=6.82D-08 DE= 5.12D-13 OVMax= 9.75D-08

 SCF Done:  E(UB97-1+HF-B97-1) =  -155.038380038     A.U. after   14 cycles
             Convg  =    0.3913D-08             -V/T =  2.0036
             S**2   =   0.0000
 KE= 1.544891958430D+02 PE=-5.255026346426D+02 EE= 1.345348815040D+02
 Annihilation of the first spin contaminant:
 S**2 before annihilation     0.0000,   after     0.0000
 Leave Link  502 at Mon Mar 30 16:49:12 2009, MaxMem=    6291456 cpu:     114.3
 (Enter /opt//g03/l601.exe)
 Copying SCF densities to generalized density rwf, ISCF=1 IROHF=0.

 **********************************************************************

            Population analysis using the SCF density.

 **********************************************************************

 Alpha  occ. eigenvalues --  -19.13947 -10.22892 -10.17599  -1.02929  -0.75623
 Alpha  occ. eigenvalues --   -0.63211  -0.50795  -0.45814  -0.43681  -0.38704
 Alpha  occ. eigenvalues --   -0.37577  -0.33121  -0.27931
 Alpha virt. eigenvalues --    0.01017   0.03465   0.04154   0.05396   0.07951
 Alpha virt. eigenvalues --    0.08703   0.09340   0.12874   0.13915   0.15373
 Alpha virt. eigenvalues --    0.17725   0.18041   0.20470   0.22061   0.23282
 Alpha virt. eigenvalues --    0.24779   0.25550   0.26734   0.28087   0.31966
 Alpha virt. eigenvalues --    0.40053   0.43617   0.46263   0.47339   0.52510
 Alpha virt. eigenvalues --    0.55920   0.60655   0.60851   0.62214   0.63758
 Alpha virt. eigenvalues --    0.68763   0.70696   0.84670   0.89928   0.94649
 Alpha virt. eigenvalues --    0.98063   1.05140   1.13225   1.18872   1.25810
 Alpha virt. eigenvalues --    1.30935   1.39044   1.45698   1.49063   1.52404
 Alpha virt. eigenvalues --    1.53276   1.54789   1.56529   1.57612   1.63904
 Alpha virt. eigenvalues --    1.71818   1.75927   1.76531   1.86831   1.96543
 Alpha virt. eigenvalues --    1.97681   2.05879   2.10382   2.16076   2.26544
 Alpha virt. eigenvalues --    2.30269   2.41321   2.44445   2.48801   2.52384
 Alpha virt. eigenvalues --    2.55150   2.56826   2.58311   2.62079   2.70835
 Alpha virt. eigenvalues --    2.75001   2.80897   2.92063   3.10662   3.15670
 Alpha virt. eigenvalues --    3.20900   3.34181   3.75362   3.80430   3.82156
 Alpha virt. eigenvalues --    3.90221   3.98320   4.22342   5.05155   5.37062
 Alpha virt. eigenvalues --    5.65396  23.86540  23.99623  49.95517
  Beta  occ. eigenvalues --  -19.13947 -10.22892 -10.17599  -1.02929  -0.75623
  Beta  occ. eigenvalues --   -0.63211  -0.50795  -0.45814  -0.43681  -0.38704
  Beta  occ. eigenvalues --   -0.37577  -0.33121  -0.27931
  Beta virt. eigenvalues --    0.01017   0.03465   0.04154   0.05396   0.07951
  Beta virt. eigenvalues --    0.08703   0.09340   0.12874   0.13915   0.15373
  Beta virt. eigenvalues --    0.17725   0.18041   0.20470   0.22061   0.23282
  Beta virt. eigenvalues --    0.24779   0.25550   0.26734   0.28087   0.31966
  Beta virt. eigenvalues --    0.40053   0.43617   0.46263   0.47339   0.52510
  Beta virt. eigenvalues --    0.55920   0.60655   0.60851   0.62214   0.63758
  Beta virt. eigenvalues --    0.68763   0.70696   0.84670   0.89928   0.94649
  Beta virt. eigenvalues --    0.98063   1.05140   1.13225   1.18872   1.25810
  Beta virt. eigenvalues --    1.30935   1.39044   1.45698   1.49063   1.52404
  Beta virt. eigenvalues --    1.53276   1.54789   1.56529   1.57612   1.63904
  Beta virt. eigenvalues --    1.71818   1.75927   1.76531   1.86831   1.96543
  Beta virt. eigenvalues --    1.97681   2.05879   2.10382   2.16076   2.26544
  Beta virt. eigenvalues --    2.30269   2.41321   2.44445   2.48801   2.52384
  Beta virt. eigenvalues --    2.55150   2.56826   2.58311   2.62079   2.70835
  Beta virt. eigenvalues --    2.75001   2.80897   2.92063   3.10662   3.15670
  Beta virt. eigenvalues --    3.20900   3.34181   3.75362   3.80430   3.82156
  Beta virt. eigenvalues --    3.90221   3.98320   4.22342   5.05155   5.37062
  Beta virt. eigenvalues --    5.65396  23.86540  23.99623  49.95517
     Alpha Molecular Orbital Coefficients
                           9        10        11        12        13
                           O         O         O         O         O
     EIGENVALUES --    -0.43681  -0.38704  -0.37577  -0.33121  -0.27931
   1 1   C  1S          0.00488   0.00245   0.00134  -0.00848  -0.01548
   2        2S          0.00768   0.00393   0.00223  -0.01364  -0.02508
   3        2PX         0.13779  -0.05350   0.01876   0.07774   0.08529
   4        2PY        -0.05956  -0.11787   0.10193  -0.05822   0.01737
   5        2PZ         0.04403   0.12286   0.11801   0.00458  -0.00801
   6        3S         -0.01866  -0.01254  -0.00862   0.04165   0.08032
   7        3PX         0.20146  -0.07933   0.02501   0.11612   0.13210
   8        3PY        -0.08845  -0.17372   0.14900  -0.08220   0.02425
   9        3PZ         0.06191   0.18172   0.17255   0.00781  -0.00874
  10        4S         -0.02647  -0.01218   0.01195   0.04934   0.06233
  11        4PX         0.13196  -0.05908   0.03123   0.07939   0.08109
  12        4PY        -0.06581  -0.13911   0.12218  -0.03828   0.00410
  13        4PZ         0.06122   0.12205   0.12773  -0.00528  -0.04658
  14        5S          0.02002  -0.03480   0.01598   0.02711  -0.17908
  15        5PX         0.01665  -0.01248   0.00670   0.01076  -0.04267
  16        5PY        -0.00952  -0.01535   0.01500   0.00240  -0.00431
  17        5PZ         0.01421   0.00702   0.00866  -0.00465  -0.01059
  18        6D 0       -0.01020  -0.00339  -0.00178  -0.00490  -0.00419
  19        6D+1       -0.00964  -0.00646  -0.01532  -0.00495  -0.00428
  20        6D-1       -0.00404  -0.01047   0.01518  -0.01201   0.00450
  21        6D+2        0.00654  -0.01752  -0.00818  -0.00106   0.00396
  22        6D-2        0.00077   0.00489  -0.00890   0.01324  -0.00338
  23 2   C  1S         -0.01738  -0.00037  -0.00044   0.00281  -0.00184
  24        2S         -0.02759  -0.00044  -0.00029   0.00467  -0.00306
  25        2PX        -0.10354   0.08883  -0.00944  -0.08182  -0.05811
  26        2PY        -0.05944   0.03122  -0.05377   0.11328  -0.05606
  27        2PZ         0.05358  -0.05335  -0.08143   0.00256   0.03583
  28        3S          0.08010  -0.00346  -0.00292  -0.01372   0.00989
  29        3PX        -0.15865   0.13493  -0.01763  -0.12583  -0.08469
  30        3PY        -0.08900   0.04790  -0.08075   0.16179  -0.07725
  31        3PZ         0.08482  -0.07855  -0.12804  -0.00616   0.05011
  32        4S          0.06394   0.02546   0.01082  -0.00701   0.03825
  33        4PX        -0.08972   0.08094   0.01478  -0.05977  -0.04917
  34        4PY        -0.04536   0.04769  -0.08042   0.08309  -0.04584
  35        4PZ         0.05778  -0.04188  -0.07964   0.00498   0.05920
  36        5S         -0.03334   0.05435   0.00034  -0.03411   0.17292
  37        5PX        -0.00398  -0.00632   0.00886   0.00934  -0.03735
  38        5PY         0.00299   0.00945  -0.01634   0.00087  -0.00771
  39        5PZ        -0.00822   0.00669  -0.00128   0.00251   0.04014
  40        6D 0        0.01115  -0.00037  -0.00622  -0.01854  -0.02045
  41        6D+1       -0.01568  -0.00702  -0.02432  -0.00803   0.00326
  42        6D-1        0.00324   0.00281   0.00479  -0.02581   0.02185
  43        6D+2       -0.00085  -0.01306  -0.00960   0.00466   0.02556
  44        6D-2        0.00568   0.01527  -0.01659   0.00408   0.00666
  45 3   O  1S          0.01884   0.01368  -0.01015  -0.02655   0.00033
  46        2S          0.03089   0.02245  -0.01658  -0.04353   0.00048
  47        2PX        -0.10078   0.02919   0.08375   0.13483   0.17953
  48        2PY         0.01402   0.09467  -0.08123  -0.12574   0.15495
  49        2PZ         0.08068  -0.01260   0.07682   0.00872  -0.11742
  50        3S         -0.09540  -0.06950   0.04853   0.13100   0.00045
  51        3PX        -0.14933   0.04506   0.12424   0.19791   0.26493
  52        3PY         0.01826   0.13968  -0.12088  -0.18254   0.22906
  53        3PZ         0.11974  -0.02049   0.11330   0.01495  -0.17427
  54        4S         -0.12039  -0.09656   0.06718   0.20405  -0.02114
  55        4PX        -0.11980   0.04022   0.09992   0.16624   0.26297
  56        4PY         0.00639   0.11097  -0.10340  -0.14086   0.21489
  57        4PZ         0.09116  -0.02110   0.08936   0.02297  -0.16201
  58        5S         -0.05579  -0.03398   0.00242   0.07860  -0.00642
  59        5PX         0.00422   0.00195   0.01563   0.03267   0.06087
  60        5PY        -0.01025   0.01539  -0.00516  -0.02720   0.07416
  61        5PZ        -0.00007  -0.00086   0.02523   0.01021  -0.03920
  62        6D 0       -0.00691   0.00198   0.00414   0.00204  -0.00048
  63        6D+1       -0.00133  -0.00106  -0.00504  -0.00121   0.00404
  64        6D-1        0.00645  -0.00186   0.00621  -0.00456  -0.00350
  65        6D+2        0.00600  -0.00727  -0.00069   0.00126  -0.01103
  66        6D-2       -0.00353  -0.00284   0.00763   0.00805   0.00199
  67 4   H  1S          0.03401   0.15048  -0.03417   0.05187  -0.02171
  68        2S          0.03865   0.21272  -0.04886   0.08706  -0.03659
  69        3S          0.00230   0.08531  -0.01704   0.06603  -0.02022
  70        4PX         0.00935  -0.00019   0.00045   0.00616   0.00347
  71        4PY         0.00026   0.01154   0.00190   0.00207  -0.00011
  72        4PZ         0.00007  -0.00248   0.00964  -0.00276   0.00085
  73 5   H  1S         -0.10466  -0.07277  -0.09914  -0.04204  -0.02842
  74        2S         -0.14419  -0.10456  -0.14669  -0.06995  -0.05340
  75        3S         -0.03690  -0.05295  -0.06768  -0.04503  -0.04941
  76        4PX        -0.00213  -0.00899  -0.00708   0.00209   0.00477
  77        4PY        -0.00298  -0.00672   0.00679  -0.00441   0.00176
  78        4PZ        -0.01040  -0.00051  -0.00412  -0.00487  -0.00312
  79 6   H  1S         -0.05152  -0.00150   0.13456  -0.05591   0.00449
  80        2S         -0.07566   0.00634   0.19222  -0.09369   0.02295
  81        3S         -0.02250   0.00767   0.09218  -0.07133   0.02900
  82        4PX         0.00639  -0.00252   0.00624   0.00182   0.00611
  83        4PY         0.00297  -0.00793  -0.00673   0.00132  -0.00017
  84        4PZ         0.00772   0.00761  -0.00310   0.00521  -0.00104
  85 7   H  1S         -0.05721   0.06140  -0.00537   0.07996  -0.08814
  86        2S         -0.08079   0.08420  -0.00354   0.13061  -0.15678
  87        3S         -0.02505   0.03722   0.00590   0.09466  -0.11744
  88        4PX        -0.00301   0.00439  -0.00028  -0.00780  -0.00053
  89        4PY         0.00464  -0.00477  -0.00155  -0.00063   0.00532
  90        4PZ        -0.00141  -0.00013  -0.00423   0.00611  -0.00286
  91 8   H  1S          0.00757   0.03008   0.08349  -0.10947   0.00777
  92        2S          0.01438   0.04906   0.11109  -0.18509   0.01432
  93        3S          0.01042   0.02467   0.05158  -0.10545   0.01602
  94        4PX        -0.00636   0.00366  -0.00224   0.00094  -0.00431
  95        4PY        -0.00292   0.00555   0.00323  -0.00571  -0.00297
  96        4PZ         0.00417  -0.00026   0.00043  -0.00921   0.00289
  97 9   H  1S          0.05110   0.03655  -0.00431  -0.07800   0.00227
  98        2S          0.07431   0.05760   0.00196  -0.13856   0.00731
  99        3S          0.05442   0.02114  -0.00214  -0.07414  -0.02268
 100        4PX        -0.00923   0.00464   0.00735   0.01111   0.02106
 101        4PY        -0.00926   0.00270  -0.00655   0.00427   0.01698
 102        4PZ        -0.00284  -0.00867   0.01178   0.01726  -0.01411
                          14        15        16        17        18
                           V         V         V         V         V
     EIGENVALUES --     0.01017   0.03465   0.04154   0.05396   0.07951
   1 1   C  1S          0.02475   0.01891  -0.02191  -0.00045   0.00172
   2        2S          0.04106   0.03135  -0.03639  -0.00054   0.00287
   3        2PX         0.03758   0.03468  -0.00280  -0.00381  -0.00142
   4        2PY        -0.01513   0.01843  -0.00102   0.05935  -0.00427
   5        2PZ        -0.02039   0.03603   0.02816  -0.01173  -0.06245
   6        3S         -0.12677  -0.09693   0.11654  -0.00284  -0.00950
   7        3PX         0.06041   0.06179  -0.00530  -0.01325  -0.00401
   8        3PY        -0.02119   0.02732  -0.00399   0.10454  -0.00375
   9        3PZ        -0.03504   0.06379   0.05053  -0.02393  -0.11573
  10        4S         -0.30365  -0.26797   0.23280   0.05195  -0.03841
  11        4PX         0.09752   0.06498  -0.00055   0.01835   0.05028
  12        4PY        -0.06352   0.05912   0.00893   0.15213  -0.04600
  13        4PZ        -0.06067   0.08132   0.06995  -0.01268  -0.15237
  14        5S          0.43211   0.66805   1.98468   0.98904   3.00336
  15        5PX        -0.22201  -0.44925   1.26244   0.40355   1.84825
  16        5PY         0.02888  -0.05587   0.05506  -0.69387   0.18666
  17        5PZ         0.01509  -0.19465  -0.65725   0.03361   1.79025
  18        6D 0       -0.00023  -0.00419   0.00367   0.00348   0.01598
  19        6D+1        0.00792  -0.01131   0.00868   0.00786  -0.00186
  20        6D-1       -0.00088   0.00247   0.00111   0.01058  -0.00395
  21        6D+2       -0.00234  -0.00254  -0.01397   0.00175  -0.00593
  22        6D-2       -0.00048   0.00067  -0.00277   0.00415  -0.00087
  23 2   C  1S          0.01344   0.01246   0.02807  -0.00044   0.01967
  24        2S          0.02306   0.02036   0.04675  -0.00016   0.03256
  25        2PX        -0.00347  -0.04147   0.01165   0.01095  -0.01472
  26        2PY        -0.02020   0.01777  -0.01090   0.06656   0.00656
  27        2PZ         0.05310   0.00352   0.03727   0.02820  -0.02980
  28        3S         -0.09366  -0.05152  -0.15381  -0.01568  -0.09946
  29        3PX        -0.01927  -0.06490   0.00960   0.01157  -0.02805
  30        3PY        -0.03910   0.03665  -0.01893   0.12034   0.01304
  31        3PZ         0.07338   0.01999   0.05974   0.03692  -0.05063
  32        4S          0.01909  -0.33019  -0.33464   0.15129  -0.34104
  33        4PX         0.13561  -0.16740   0.03994   0.11055  -0.04758
  34        4PY        -0.03633   0.05927  -0.03315   0.21200   0.05721
  35        4PZ         0.24891  -0.09249   0.12523   0.16963  -0.17883
  36        5S          2.21885   0.02715  -1.91091  -0.39768  -2.90732
  37        5PX        -0.02493  -0.30675   1.25933   0.63236  -0.25315
  38        5PY         0.24686  -0.31766   0.27462  -0.68679  -0.09304
  39        5PZ         0.49203  -0.84004  -0.62409   0.19887  -1.88006
  40        6D 0       -0.00596   0.01329   0.00405  -0.00477   0.00384
  41        6D+1       -0.00056   0.00876  -0.00801  -0.00585   0.01931
  42        6D-1        0.00187  -0.00183  -0.00170   0.00119  -0.00346
  43        6D+2       -0.00496   0.00204   0.00731  -0.00229   0.01118
  44        6D-2       -0.00257   0.00303   0.00146   0.00023   0.00128
  45 3   O  1S          0.01913  -0.02027   0.00197   0.01263  -0.01587
  46        2S          0.03207  -0.03382   0.00335   0.02124  -0.02636
  47        2PX         0.02207  -0.00868  -0.02083   0.00331  -0.01301
  48        2PY        -0.03633   0.04724  -0.00267  -0.00157   0.02247
  49        2PZ        -0.04076   0.00784   0.00158   0.00114  -0.04258
  50        3S         -0.11171   0.11446  -0.01227  -0.07477   0.08512
  51        3PX         0.03049  -0.01444  -0.03607   0.00458  -0.01270
  52        3PY        -0.05189   0.06869  -0.00666   0.00534   0.03617
  53        3PZ        -0.05832   0.01178   0.00642   0.00210  -0.06274
  54        4S         -0.16639   0.20222  -0.02184  -0.11242   0.21208
  55        4PX         0.07691  -0.03050  -0.00760   0.02741  -0.08268
  56        4PY        -0.09226   0.10680   0.00258  -0.06139   0.04997
  57        4PZ        -0.06115   0.00329  -0.01760   0.00326  -0.08901
  58        5S         -1.49144   1.13465  -0.08180  -0.73358   0.38507
  59        5PX         0.24385  -0.20192  -0.16092   0.12397   0.21896
  60        5PY        -0.13528   0.15849  -0.01985   0.15590  -0.08990
  61        5PZ         0.08991  -0.03574   0.15660   0.18774  -0.22786
  62        6D 0       -0.00073  -0.00487  -0.00195  -0.00020  -0.00145
  63        6D+1        0.00002  -0.00101  -0.00181   0.00021  -0.00385
  64        6D-1        0.00132  -0.00265   0.00029  -0.00368  -0.00104
  65        6D+2       -0.00053   0.00052   0.00117   0.00017  -0.00182
  66        6D-2        0.00229  -0.00185  -0.00002  -0.00186  -0.00141
  67 4   H  1S         -0.00809   0.00261   0.00804  -0.02104   0.00420
  68        2S          0.04244   0.04952  -0.04756   0.04787   0.06767
  69        3S         -0.29322  -0.07681   0.20292  -0.36630  -0.32165
  70        4PX         0.00248  -0.00315   0.00827  -0.00056   0.00100
  71        4PY        -0.00809  -0.00566   0.00436  -0.00620  -0.00247
  72        4PZ         0.00255   0.00235  -0.00452   0.00084   0.00643
  73 5   H  1S          0.00760  -0.03265   0.00582   0.01711   0.00774
  74        2S          0.07598   0.04168   0.01692   0.00943  -0.06666
  75        3S         -0.18947  -0.43107   0.01082   0.16396   0.23978
  76        4PX        -0.00337  -0.00354   0.00744  -0.00024   0.01649
  77        4PY         0.00057   0.00049   0.00061  -0.00494   0.00228
  78        4PZ        -0.00802  -0.00914  -0.00078   0.00018  -0.00281
  79 6   H  1S         -0.01693   0.01111   0.00861   0.00535  -0.00056
  80        2S          0.05802   0.02833  -0.04494  -0.05575   0.08238
  81        3S         -0.29836  -0.01401   0.16891   0.14040  -0.30202
  82        4PX         0.00289  -0.00441   0.00905   0.00496  -0.00027
  83        4PY         0.01108   0.00149  -0.00294  -0.00297   0.00280
  84        4PZ         0.00648   0.00068  -0.00579   0.00029   0.00711
  85 7   H  1S         -0.01178  -0.00475  -0.00487   0.00322  -0.00684
  86        2S          0.05928  -0.00187   0.06777  -0.08392  -0.02170
  87        3S         -0.35327  -0.08684  -0.13671   0.16551  -0.10391
  88        4PX         0.00010  -0.00617   0.00768   0.00318  -0.00433
  89        4PY         0.01325  -0.00052   0.00750  -0.00156   0.00003
  90        4PZ        -0.00001  -0.00806  -0.00736   0.00389  -0.01003
  91 8   H  1S         -0.00894  -0.00598  -0.00235  -0.00428  -0.01407
  92        2S          0.01133   0.08362   0.05679   0.08007   0.01176
  93        3S         -0.14819  -0.29091  -0.08771  -0.07367  -0.25840
  94        4PX         0.00160  -0.00669   0.00734   0.00557  -0.00396
  95        4PY        -0.01131  -0.00052  -0.00392  -0.00901   0.00137
  96        4PZ        -0.00165  -0.00713  -0.00730  -0.00108  -0.00762
  97 9   H  1S          0.01588  -0.02726   0.00157   0.00222  -0.00974
  98        2S          0.08173  -0.08985   0.00633   0.03567  -0.05072
  99        3S          0.49360  -0.56517  -0.06329   0.07819   0.18886
 100        4PX        -0.00516   0.00169  -0.00175  -0.00202  -0.00823
 101        4PY         0.01954  -0.01262   0.00027  -0.00028  -0.00102
 102        4PZ         0.00995  -0.01574  -0.00282   0.00116  -0.00330
     Beta Molecular Orbital Coefficients.
                           9        10        11        12        13
                           O         O         O         O         O
     EIGENVALUES --    -0.43681  -0.38704  -0.37577  -0.33121  -0.27931
   1 1   C  1S          0.00488   0.00245   0.00134  -0.00848  -0.01548
   2        2S          0.00768   0.00393   0.00223  -0.01364  -0.02508
   3        2PX         0.13779  -0.05350   0.01876   0.07774   0.08529
   4        2PY        -0.05956  -0.11787   0.10193  -0.05822   0.01737
   5        2PZ         0.04403   0.12286   0.11801   0.00458  -0.00801
   6        3S         -0.01866  -0.01254  -0.00862   0.04165   0.08032
   7        3PX         0.20146  -0.07933   0.02501   0.11612   0.13210
   8        3PY        -0.08845  -0.17372   0.14900  -0.08220   0.02425
   9        3PZ         0.06191   0.18172   0.17255   0.00781  -0.00874
  10        4S         -0.02647  -0.01218   0.01195   0.04934   0.06233
  11        4PX         0.13196  -0.05908   0.03123   0.07939   0.08109
  12        4PY        -0.06581  -0.13911   0.12218  -0.03828   0.00410
  13        4PZ         0.06122   0.12205   0.12773  -0.00528  -0.04658
  14        5S          0.02002  -0.03480   0.01598   0.02711  -0.17908
  15        5PX         0.01665  -0.01248   0.00670   0.01076  -0.04267
  16        5PY        -0.00952  -0.01535   0.01500   0.00240  -0.00431
  17        5PZ         0.01421   0.00702   0.00866  -0.00465  -0.01059
  18        6D 0       -0.01020  -0.00339  -0.00178  -0.00490  -0.00419
  19        6D+1       -0.00964  -0.00646  -0.01532  -0.00495  -0.00428
  20        6D-1       -0.00404  -0.01047   0.01518  -0.01201   0.00450
  21        6D+2        0.00654  -0.01752  -0.00818  -0.00106   0.00396
  22        6D-2        0.00077   0.00489  -0.00890   0.01324  -0.00338
  23 2   C  1S         -0.01738  -0.00037  -0.00044   0.00281  -0.00184
  24        2S         -0.02759  -0.00044  -0.00029   0.00467  -0.00306
  25        2PX        -0.10354   0.08883  -0.00944  -0.08182  -0.05811
  26        2PY        -0.05944   0.03122  -0.05377   0.11328  -0.05606
  27        2PZ         0.05358  -0.05335  -0.08143   0.00256   0.03583
  28        3S          0.08010  -0.00346  -0.00292  -0.01372   0.00989
  29        3PX        -0.15865   0.13493  -0.01763  -0.12583  -0.08469
  30        3PY        -0.08900   0.04790  -0.08075   0.16179  -0.07725
  31        3PZ         0.08482  -0.07855  -0.12804  -0.00616   0.05011
  32        4S          0.06394   0.02546   0.01082  -0.00701   0.03825
  33        4PX        -0.08972   0.08094   0.01478  -0.05977  -0.04917
  34        4PY        -0.04536   0.04769  -0.08042   0.08309  -0.04584
  35        4PZ         0.05778  -0.04188  -0.07964   0.00498   0.05920
  36        5S         -0.03334   0.05435   0.00034  -0.03411   0.17292
  37        5PX        -0.00398  -0.00632   0.00886   0.00934  -0.03735
  38        5PY         0.00299   0.00945  -0.01634   0.00087  -0.00771
  39        5PZ        -0.00822   0.00669  -0.00128   0.00251   0.04014
  40        6D 0        0.01115  -0.00037  -0.00622  -0.01854  -0.02045
  41        6D+1       -0.01568  -0.00702  -0.02432  -0.00803   0.00326
  42        6D-1        0.00324   0.00281   0.00479  -0.02581   0.02185
  43        6D+2       -0.00085  -0.01306  -0.00960   0.00466   0.02556
  44        6D-2        0.00568   0.01527  -0.01659   0.00408   0.00666
  45 3   O  1S          0.01884   0.01368  -0.01015  -0.02655   0.00033
  46        2S          0.03089   0.02245  -0.01658  -0.04353   0.00048
  47        2PX        -0.10078   0.02919   0.08375   0.13483   0.17953
  48        2PY         0.01402   0.09467  -0.08123  -0.12574   0.15495
  49        2PZ         0.08068  -0.01260   0.07682   0.00872  -0.11742
  50        3S         -0.09540  -0.06950   0.04853   0.13100   0.00045
  51        3PX        -0.14933   0.04506   0.12424   0.19791   0.26493
  52        3PY         0.01826   0.13968  -0.12088  -0.18254   0.22906
  53        3PZ         0.11974  -0.02049   0.11330   0.01495  -0.17427
  54        4S         -0.12039  -0.09656   0.06718   0.20405  -0.02114
  55        4PX        -0.11980   0.04022   0.09992   0.16624   0.26297
  56        4PY         0.00639   0.11097  -0.10340  -0.14086   0.21489
  57        4PZ         0.09116  -0.02110   0.08936   0.02297  -0.16201
  58        5S         -0.05579  -0.03398   0.00242   0.07860  -0.00642
  59        5PX         0.00422   0.00195   0.01563   0.03267   0.06087
  60        5PY        -0.01025   0.01539  -0.00516  -0.02720   0.07416
  61        5PZ        -0.00007  -0.00086   0.02523   0.01021  -0.03920
  62        6D 0       -0.00691   0.00198   0.00414   0.00204  -0.00048
  63        6D+1       -0.00133  -0.00106  -0.00504  -0.00121   0.00404
  64        6D-1        0.00645  -0.00186   0.00621  -0.00456  -0.00350
  65        6D+2        0.00600  -0.00727  -0.00069   0.00126  -0.01103
  66        6D-2       -0.00353  -0.00284   0.00763   0.00805   0.00199
  67 4   H  1S          0.03401   0.15048  -0.03417   0.05187  -0.02171
  68        2S          0.03865   0.21272  -0.04886   0.08706  -0.03659
  69        3S          0.00230   0.08531  -0.01704   0.06603  -0.02022
  70        4PX         0.00935  -0.00019   0.00045   0.00616   0.00347
  71        4PY         0.00026   0.01154   0.00190   0.00207  -0.00011
  72        4PZ         0.00007  -0.00248   0.00964  -0.00276   0.00085
  73 5   H  1S         -0.10466  -0.07277  -0.09914  -0.04204  -0.02842
  74        2S         -0.14419  -0.10456  -0.14669  -0.06995  -0.05340
  75        3S         -0.03690  -0.05295  -0.06768  -0.04503  -0.04941
  76        4PX        -0.00213  -0.00899  -0.00708   0.00209   0.00477
  77        4PY        -0.00298  -0.00672   0.00679  -0.00441   0.00176
  78        4PZ        -0.01040  -0.00051  -0.00412  -0.00487  -0.00312
  79 6   H  1S         -0.05152  -0.00150   0.13456  -0.05591   0.00449
  80        2S         -0.07566   0.00634   0.19222  -0.09370   0.02295
  81        3S         -0.02250   0.00767   0.09218  -0.07133   0.02900
  82        4PX         0.00639  -0.00252   0.00624   0.00182   0.00611
  83        4PY         0.00297  -0.00793  -0.00673   0.00132  -0.00017
  84        4PZ         0.00772   0.00761  -0.00310   0.00521  -0.00104
  85 7   H  1S         -0.05721   0.06140  -0.00537   0.07996  -0.08814
  86        2S         -0.08079   0.08420  -0.00354   0.13061  -0.15678
  87        3S         -0.02505   0.03722   0.00590   0.09466  -0.11744
  88        4PX        -0.00301   0.00439  -0.00028  -0.00780  -0.00053
  89        4PY         0.00464  -0.00477  -0.00155  -0.00063   0.00532
  90        4PZ        -0.00141  -0.00013  -0.00423   0.00611  -0.00286
  91 8   H  1S          0.00757   0.03008   0.08349  -0.10947   0.00777
  92        2S          0.01438   0.04906   0.11109  -0.18509   0.01432
  93        3S          0.01042   0.02467   0.05158  -0.10545   0.01602
  94        4PX        -0.00636   0.00366  -0.00224   0.00094  -0.00431
  95        4PY        -0.00292   0.00555   0.00323  -0.00571  -0.00297
  96        4PZ         0.00417  -0.00026   0.00043  -0.00921   0.00289
  97 9   H  1S          0.05110   0.03655  -0.00431  -0.07800   0.00227
  98        2S          0.07431   0.05760   0.00196  -0.13856   0.00731
  99        3S          0.05442   0.02114  -0.00214  -0.07414  -0.02268
 100        4PX        -0.00923   0.00464   0.00735   0.01111   0.02106
 101        4PY        -0.00926   0.00270  -0.00655   0.00427   0.01698
 102        4PZ        -0.00284  -0.00867   0.01178   0.01726  -0.01411
                          14        15        16        17        18
                           V         V         V         V         V
     EIGENVALUES --     0.01017   0.03465   0.04154   0.05396   0.07951
   1 1   C  1S          0.02475   0.01891  -0.02191  -0.00045   0.00172
   2        2S          0.04106   0.03135  -0.03639  -0.00054   0.00287
   3        2PX         0.03758   0.03468  -0.00280  -0.00381  -0.00142
   4        2PY        -0.01513   0.01843  -0.00102   0.05935  -0.00427
   5        2PZ        -0.02039   0.03603   0.02816  -0.01173  -0.06245
   6        3S         -0.12677  -0.09693   0.11654  -0.00284  -0.00950
   7        3PX         0.06041   0.06179  -0.00530  -0.01325  -0.00401
   8        3PY        -0.02119   0.02732  -0.00399   0.10454  -0.00375
   9        3PZ        -0.03504   0.06379   0.05053  -0.02393  -0.11573
  10        4S         -0.30365  -0.26797   0.23280   0.05195  -0.03841
  11        4PX         0.09752   0.06498  -0.00055   0.01835   0.05028
  12        4PY        -0.06352   0.05912   0.00893   0.15213  -0.04600
  13        4PZ        -0.06067   0.08132   0.06995  -0.01268  -0.15237
  14        5S          0.43211   0.66805   1.98468   0.98904   3.00336
  15        5PX        -0.22201  -0.44925   1.26244   0.40355   1.84825
  16        5PY         0.02888  -0.05587   0.05506  -0.69387   0.18666
  17        5PZ         0.01509  -0.19465  -0.65725   0.03361   1.79026
  18        6D 0       -0.00023  -0.00419   0.00367   0.00348   0.01598
  19        6D+1        0.00792  -0.01131   0.00868   0.00786  -0.00186
  20        6D-1       -0.00088   0.00247   0.00111   0.01058  -0.00395
  21        6D+2       -0.00234  -0.00254  -0.01397   0.00175  -0.00593
  22        6D-2       -0.00048   0.00067  -0.00277   0.00415  -0.00087
  23 2   C  1S          0.01344   0.01246   0.02807  -0.00044   0.01967
  24        2S          0.02306   0.02036   0.04675  -0.00016   0.03256
  25        2PX        -0.00347  -0.04147   0.01165   0.01095  -0.01472
  26        2PY        -0.02020   0.01777  -0.01090   0.06656   0.00656
  27        2PZ         0.05310   0.00352   0.03727   0.02820  -0.02980
  28        3S         -0.09366  -0.05152  -0.15381  -0.01568  -0.09946
  29        3PX        -0.01927  -0.06490   0.00960   0.01157  -0.02805
  30        3PY        -0.03910   0.03665  -0.01893   0.12034   0.01304
  31        3PZ         0.07338   0.01999   0.05974   0.03692  -0.05063
  32        4S          0.01909  -0.33019  -0.33464   0.15129  -0.34104
  33        4PX         0.13561  -0.16740   0.03994   0.11055  -0.04758
  34        4PY        -0.03633   0.05927  -0.03315   0.21200   0.05721
  35        4PZ         0.24891  -0.09249   0.12523   0.16963  -0.17883
  36        5S          2.21885   0.02715  -1.91091  -0.39768  -2.90732
  37        5PX        -0.02493  -0.30675   1.25933   0.63236  -0.25315
  38        5PY         0.24686  -0.31766   0.27462  -0.68679  -0.09304
  39        5PZ         0.49203  -0.84004  -0.62409   0.19887  -1.88006
  40        6D 0       -0.00596   0.01329   0.00405  -0.00477   0.00384
  41        6D+1       -0.00056   0.00876  -0.00801  -0.00585   0.01931
  42        6D-1        0.00187  -0.00183  -0.00170   0.00119  -0.00346
  43        6D+2       -0.00496   0.00204   0.00731  -0.00229   0.01118
  44        6D-2       -0.00257   0.00303   0.00146   0.00023   0.00128
  45 3   O  1S          0.01913  -0.02027   0.00197   0.01263  -0.01587
  46        2S          0.03207  -0.03382   0.00335   0.02124  -0.02636
  47        2PX         0.02207  -0.00868  -0.02083   0.00331  -0.01301
  48        2PY        -0.03633   0.04724  -0.00267  -0.00157   0.02247
  49        2PZ        -0.04076   0.00784   0.00158   0.00114  -0.04258
  50        3S         -0.11171   0.11446  -0.01227  -0.07477   0.08512
  51        3PX         0.03049  -0.01444  -0.03607   0.00458  -0.01270
  52        3PY        -0.05189   0.06869  -0.00666   0.00534   0.03617
  53        3PZ        -0.05832   0.01178   0.00642   0.00210  -0.06274
  54        4S         -0.16639   0.20222  -0.02184  -0.11242   0.21208
  55        4PX         0.07691  -0.03050  -0.00760   0.02741  -0.08268
  56        4PY        -0.09226   0.10680   0.00258  -0.06139   0.04997
  57        4PZ        -0.06115   0.00329  -0.01760   0.00326  -0.08901
  58        5S         -1.49144   1.13465  -0.08180  -0.73358   0.38507
  59        5PX         0.24385  -0.20192  -0.16092   0.12397   0.21896
  60        5PY        -0.13528   0.15849  -0.01985   0.15590  -0.08990
  61        5PZ         0.08991  -0.03574   0.15660   0.18774  -0.22785
  62        6D 0       -0.00073  -0.00487  -0.00195  -0.00020  -0.00145
  63        6D+1        0.00002  -0.00101  -0.00181   0.00021  -0.00385
  64        6D-1        0.00132  -0.00265   0.00029  -0.00368  -0.00104
  65        6D+2       -0.00053   0.00052   0.00117   0.00017  -0.00182
  66        6D-2        0.00229  -0.00185  -0.00002  -0.00186  -0.00141
  67 4   H  1S         -0.00809   0.00261   0.00804  -0.02104   0.00420
  68        2S          0.04244   0.04952  -0.04756   0.04787   0.06767
  69        3S         -0.29322  -0.07681   0.20292  -0.36630  -0.32165
  70        4PX         0.00248  -0.00315   0.00827  -0.00056   0.00100
  71        4PY        -0.00809  -0.00566   0.00436  -0.00620  -0.00247
  72        4PZ         0.00255   0.00235  -0.00452   0.00084   0.00643
  73 5   H  1S          0.00760  -0.03265   0.00582   0.01711   0.00774
  74        2S          0.07598   0.04168   0.01692   0.00943  -0.06666
  75        3S         -0.18947  -0.43107   0.01082   0.16396   0.23978
  76        4PX        -0.00337  -0.00354   0.00744  -0.00024   0.01649
  77        4PY         0.00057   0.00049   0.00061  -0.00494   0.00228
  78        4PZ        -0.00802  -0.00914  -0.00078   0.00018  -0.00281
  79 6   H  1S         -0.01693   0.01111   0.00861   0.00535  -0.00056
  80        2S          0.05802   0.02833  -0.04494  -0.05575   0.08238
  81        3S         -0.29836  -0.01401   0.16891   0.14040  -0.30202
  82        4PX         0.00289  -0.00441   0.00905   0.00496  -0.00027
  83        4PY         0.01108   0.00149  -0.00294  -0.00297   0.00280
  84        4PZ         0.00648   0.00068  -0.00579   0.00029   0.00711
  85 7   H  1S         -0.01178  -0.00475  -0.00487   0.00322  -0.00684
  86        2S          0.05928  -0.00187   0.06777  -0.08392  -0.02170
  87        3S         -0.35327  -0.08684  -0.13671   0.16551  -0.10391
  88        4PX         0.00010  -0.00617   0.00768   0.00318  -0.00433
  89        4PY         0.01325  -0.00052   0.00750  -0.00156   0.00003
  90        4PZ        -0.00001  -0.00806  -0.00736   0.00389  -0.01003
  91 8   H  1S         -0.00894  -0.00598  -0.00235  -0.00428  -0.01407
  92        2S          0.01133   0.08362   0.05679   0.08007   0.01176
  93        3S         -0.14819  -0.29091  -0.08771  -0.07367  -0.25840
  94        4PX         0.00160  -0.00669   0.00734   0.00557  -0.00396
  95        4PY        -0.01131  -0.00052  -0.00392  -0.00901   0.00137
  96        4PZ        -0.00165  -0.00713  -0.00730  -0.00108  -0.00762
  97 9   H  1S          0.01588  -0.02726   0.00157   0.00222  -0.00974
  98        2S          0.08173  -0.08985   0.00633   0.03567  -0.05072
  99        3S          0.49360  -0.56517  -0.06329   0.07819   0.18886
 100        4PX        -0.00516   0.00169  -0.00175  -0.00202  -0.00823
 101        4PY         0.01954  -0.01262   0.00027  -0.00028  -0.00102
 102        4PZ         0.00995  -0.01574  -0.00282   0.00116  -0.00330
     ALPHA DENSITY MATRIX.
                           1         2         3         4         5
   1 1   C  1S          0.33005
   2        2S          0.27942   0.24286
   3        2PX         0.00005  -0.00005   0.03946
   4        2PY         0.00018   0.00027  -0.00005   0.04098
   5        2PZ        -0.00009  -0.00010   0.00048  -0.00028   0.04050
   6        3S         -0.03875  -0.06787   0.00215  -0.00070  -0.00027
   7        3PX        -0.00158  -0.00201   0.05886  -0.00020   0.00022
   8        3PY         0.00005   0.00017   0.00005   0.06024  -0.00050
   9        3PZ         0.00031   0.00034   0.00046  -0.00051   0.05961
  10        4S         -0.03733  -0.05462  -0.00061  -0.00179   0.00135
  11        4PX        -0.00048  -0.00043   0.03718   0.00098   0.00188
  12        4PY         0.00012   0.00019   0.00015   0.04252  -0.00103
  13        4PZ         0.00052   0.00086  -0.00063  -0.00027   0.04198
  14        5S         -0.01462  -0.01904  -0.01310  -0.00033   0.00555
  15        5PX        -0.00234  -0.00319  -0.00085   0.00020   0.00215
  16        5PY         0.00002   0.00004  -0.00066   0.00311  -0.00059
  17        5PZ         0.00055   0.00081   0.00075  -0.00023   0.00291
  18        6D 0        0.00015   0.00014  -0.00230   0.00062  -0.00160
  19        6D+1        0.00013   0.00009  -0.00255  -0.00031  -0.00275
  20        6D-1       -0.00002  -0.00002  -0.00015   0.00445   0.00084
  21        6D+2       -0.00027  -0.00021   0.00258   0.00101  -0.00345
  22        6D-2       -0.00007  -0.00007   0.00073  -0.00171  -0.00025
  23 2   C  1S          0.00169   0.00259  -0.00769  -0.00052   0.00154
  24        2S          0.00258   0.00396  -0.01231  -0.00082   0.00248
  25        2PX         0.00734   0.01173  -0.03000  -0.00242   0.00862
  26        2PY         0.00062   0.00100  -0.00240   0.00022   0.00060
  27        2PZ        -0.00258  -0.00416   0.00989   0.00059  -0.00069
  28        3S         -0.00619  -0.00959   0.03483   0.00215  -0.00744
  29        3PX         0.01261   0.01938  -0.04534  -0.00349   0.01314
  30        3PY         0.00104   0.00161  -0.00363   0.00112   0.00085
  31        3PZ        -0.00433  -0.00665   0.01501   0.00095  -0.00067
  32        4S         -0.00131  -0.00262   0.02764   0.00228  -0.00075
  33        4PX         0.00359   0.00618  -0.02580  -0.00202   0.00999
  34        4PY         0.00032   0.00060  -0.00245  -0.00141   0.00116
  35        4PZ        -0.00272  -0.00435   0.01335   0.00114  -0.00002
  36        5S          0.01044   0.01403   0.01005   0.00011  -0.00285
  37        5PX        -0.00274  -0.00366  -0.00354   0.00020   0.00148
  38        5PY        -0.00031  -0.00042  -0.00023  -0.00054   0.00065
  39        5PZ         0.00060   0.00074   0.00229   0.00025  -0.00002
  40        6D 0        0.00108   0.00160  -0.00168   0.00010   0.00105
  41        6D+1        0.00081   0.00118  -0.00245  -0.00017  -0.00315
  42        6D-1       -0.00004  -0.00008   0.00019   0.00143  -0.00009
  43        6D+2       -0.00195  -0.00281   0.00259   0.00076  -0.00187
  44        6D-2       -0.00031  -0.00044   0.00064  -0.00349  -0.00021
  45 3   O  1S         -0.00017  -0.00026   0.00090  -0.00015   0.00087
  46        2S         -0.00028  -0.00041   0.00144  -0.00025   0.00144
  47        2PX        -0.00335  -0.00543   0.00980   0.00053   0.00090
  48        2PY        -0.00064  -0.00107   0.00127  -0.00196  -0.00088
  49        2PZ         0.00064   0.00111   0.00059  -0.00020   0.00114
  50        3S          0.00093   0.00136  -0.00454   0.00098  -0.00471
  51        3PX        -0.00483  -0.00790   0.01415   0.00074   0.00147
  52        3PY        -0.00095  -0.00160   0.00180  -0.00294  -0.00135
  53        3PZ         0.00099   0.00167   0.00098  -0.00032   0.00145
  54        4S         -0.00021  -0.00030  -0.00369   0.00003  -0.00744
  55        4PX        -0.00499  -0.00806   0.01682   0.00140   0.00216
  56        4PY        -0.00140  -0.00234   0.00339  -0.00329  -0.00173
  57        4PZ         0.00108   0.00183   0.00070  -0.00049   0.00282
  58        5S          0.00097   0.00078  -0.00345  -0.00217  -0.01023
  59        5PX        -0.00211  -0.00317   0.00866   0.00042   0.00248
  60        5PY        -0.00017  -0.00049   0.00128  -0.00069  -0.00171
  61        5PZ         0.00090   0.00145  -0.00219  -0.00032   0.00153
  62        6D 0        0.00016   0.00026  -0.00081   0.00001   0.00024
  63        6D+1       -0.00010  -0.00013   0.00038   0.00003  -0.00008
  64        6D-1        0.00002   0.00004   0.00006   0.00007  -0.00004
  65        6D+2       -0.00003  -0.00005   0.00040   0.00013   0.00005
  66        6D-2       -0.00011  -0.00018   0.00032  -0.00002   0.00008
  67 4   H  1S         -0.00919  -0.01443  -0.00599  -0.03194   0.01704
  68        2S         -0.01278  -0.01877  -0.00864  -0.04503   0.02354
  69        3S          0.00308   0.00327  -0.00206  -0.01829   0.00858
  70        4PX        -0.00041  -0.00056   0.00217  -0.00080   0.00043
  71        4PY        -0.00246  -0.00316  -0.00079  -0.00150   0.00209
  72        4PZ         0.00133   0.00173   0.00046   0.00219   0.00132
  73 5   H  1S         -0.00899  -0.01410  -0.02059   0.00167  -0.03007
  74        2S         -0.01246  -0.01818  -0.03027   0.00258  -0.04267
  75        3S          0.00335   0.00383  -0.01206   0.00140  -0.01769
  76        4PX        -0.00159  -0.00209   0.00063   0.00013  -0.00259
  77        4PY         0.00013   0.00017   0.00010   0.00260   0.00018
  78        4PZ        -0.00232  -0.00296  -0.00245   0.00023  -0.00101
  79 6   H  1S         -0.00899  -0.01409  -0.00922   0.02755   0.02190
  80        2S         -0.01272  -0.01864  -0.01314   0.03942   0.03131
  81        3S          0.00297   0.00313  -0.00426   0.01825   0.01399
  82        4PX        -0.00073  -0.00100   0.00200   0.00119   0.00106
  83        4PY         0.00211   0.00271   0.00103  -0.00034  -0.00236
  84        4PZ         0.00168   0.00216   0.00091  -0.00244   0.00064
  85 7   H  1S          0.00173   0.00284  -0.00436  -0.00261   0.00211
  86        2S          0.00286   0.00487  -0.00890  -0.00650   0.00391
  87        3S          0.00208   0.00325  -0.00737  -0.00851   0.00528
  88        4PX         0.00033   0.00052  -0.00156  -0.00022   0.00056
  89        4PY         0.00006  -0.00002   0.00028  -0.00005   0.00004
  90        4PZ        -0.00016  -0.00020   0.00048  -0.00001  -0.00014
  91 8   H  1S          0.00154   0.00253  -0.00391   0.00175   0.00232
  92        2S          0.00227   0.00397  -0.00785   0.00450   0.00496
  93        3S          0.00156   0.00235  -0.00587   0.00671   0.00671
  94        4PX         0.00036   0.00055  -0.00156  -0.00003   0.00054
  95        4PY         0.00001   0.00012  -0.00058  -0.00010   0.00005
  96        4PZ        -0.00019  -0.00022   0.00041  -0.00003  -0.00011
  97 9   H  1S          0.00071   0.00114  -0.00177  -0.00069   0.00006
  98        2S          0.00130   0.00217  -0.00365   0.00055   0.00114
  99        3S         -0.00050  -0.00041  -0.00015   0.00164   0.00436
 100        4PX        -0.00028  -0.00047   0.00099  -0.00030  -0.00025
 101        4PY        -0.00029  -0.00046   0.00067  -0.00011   0.00000
 102        4PZ        -0.00005  -0.00009   0.00018   0.00001   0.00026
                           6         7         8         9        10
   6        3S          0.19984
   7        3PX         0.00638   0.08797
   8        3PY        -0.00075  -0.00010   0.08859
   9        3PZ        -0.00106  -0.00005  -0.00088   0.08777
  10        4S          0.13273   0.00114  -0.00249   0.00175   0.09260
  11        4PX         0.00182   0.05532   0.00154   0.00257   0.00107
  12        4PY        -0.00065   0.00001   0.06254  -0.00163   0.00000
  13        4PZ        -0.00331  -0.00168  -0.00048   0.06156  -0.00160
  14        5S          0.03683  -0.02040  -0.00017   0.00754   0.02534
  15        5PX         0.00664  -0.00159   0.00038   0.00300   0.00458
  16        5PY        -0.00022  -0.00102   0.00457  -0.00087   0.00060
  17        5PZ        -0.00214   0.00099  -0.00036   0.00420  -0.00190
  18        6D 0       -0.00014  -0.00346   0.00090  -0.00234   0.00007
  19        6D+1        0.00005  -0.00378  -0.00046  -0.00400   0.00020
  20        6D-1        0.00003  -0.00024   0.00650   0.00123   0.00003
  21        6D+2        0.00005   0.00393   0.00149  -0.00513  -0.00056
  22        6D-2        0.00011   0.00110  -0.00245  -0.00037  -0.00018
  23 2   C  1S         -0.00636  -0.01335  -0.00090   0.00297   0.00182
  24        2S         -0.00981  -0.02051  -0.00138   0.00450   0.00177
  25        2PX        -0.03287  -0.04452  -0.00377   0.01302  -0.02178
  26        2PY        -0.00265  -0.00369   0.00117   0.00098  -0.00516
  27        2PZ         0.01215   0.01523   0.00095  -0.00079   0.00842
  28        3S          0.02420   0.05526   0.00342  -0.01244  -0.00271
  29        3PX        -0.05193  -0.06724  -0.00545   0.01987  -0.03459
  30        3PY        -0.00406  -0.00556   0.00287   0.00142  -0.00803
  31        3PZ         0.01828   0.02329   0.00151  -0.00073   0.01177
  32        4S          0.00866   0.04294   0.00350  -0.00198  -0.00872
  33        4PX        -0.01907  -0.03837  -0.00315   0.01496  -0.01163
  34        4PY        -0.00176  -0.00357  -0.00130   0.00179  -0.00666
  35        4PZ         0.01289   0.02030   0.00176   0.00023   0.00743
  36        5S         -0.02846   0.01624  -0.00017  -0.00369  -0.01989
  37        5PX         0.00733  -0.00540   0.00036   0.00206   0.00549
  38        5PY         0.00085  -0.00035  -0.00072   0.00092  -0.00082
  39        5PZ        -0.00088   0.00368   0.00033   0.00013   0.00008
  40        6D 0       -0.00427  -0.00257   0.00012   0.00145  -0.00352
  41        6D+1       -0.00283  -0.00337  -0.00025  -0.00455  -0.00181
  42        6D-1        0.00041   0.00033   0.00197  -0.00011  -0.00004
  43        6D+2        0.00700   0.00415   0.00111  -0.00267   0.00519
  44        6D-2        0.00118   0.00099  -0.00510  -0.00028   0.00026
  45 3   O  1S          0.00082   0.00054  -0.00031   0.00131  -0.00407
  46        2S          0.00127   0.00102  -0.00050   0.00214  -0.00598
  47        2PX         0.01722   0.01524   0.00088   0.00224   0.02028
  48        2PY         0.00441   0.00260  -0.00328  -0.00103  -0.00355
  49        2PZ        -0.00459  -0.00104  -0.00026   0.00083  -0.00253
  50        3S         -0.00385  -0.00402   0.00179  -0.00686   0.01568
  51        3PX         0.02527   0.02199   0.00123   0.00352   0.02978
  52        3PY         0.00655   0.00377  -0.00490  -0.00158  -0.00508
  53        3PZ        -0.00669  -0.00141  -0.00043   0.00088  -0.00357
  54        4S          0.00044  -0.00351   0.00059  -0.01065   0.02043
  55        4PX         0.02531   0.02623   0.00216   0.00441   0.02739
  56        4PY         0.00867   0.00616  -0.00534  -0.00204  -0.00139
  57        4PZ        -0.00699  -0.00107  -0.00060   0.00312  -0.00456
  58        5S          0.00046  -0.00557  -0.00299  -0.01475   0.00510
  59        5PX         0.00874   0.01329   0.00064   0.00382   0.00722
  60        5PY         0.00265   0.00224  -0.00124  -0.00225   0.00241
  61        5PZ        -0.00440  -0.00350  -0.00044   0.00210  -0.00223
  62        6D 0       -0.00075  -0.00116   0.00001   0.00037  -0.00019
  63        6D+1        0.00033   0.00071   0.00004  -0.00009   0.00003
  64        6D-1       -0.00017   0.00000   0.00007  -0.00011   0.00012
  65        6D+2        0.00001   0.00057   0.00021   0.00002  -0.00012
  66        6D-2        0.00051   0.00046  -0.00003   0.00015   0.00101
  67 4   H  1S          0.03766  -0.00847  -0.04691   0.02506   0.02697
  68        2S          0.04521  -0.01233  -0.06606   0.03468   0.03296
  69        3S         -0.00412  -0.00314  -0.02673   0.01280  -0.00108
  70        4PX         0.00128   0.00324  -0.00117   0.00061   0.00082
  71        4PY         0.00624  -0.00108  -0.00220   0.00306   0.00436
  72        4PZ        -0.00347   0.00061   0.00322   0.00195  -0.00238
  73 5   H  1S          0.03659  -0.02977   0.00251  -0.04428   0.02407
  74        2S          0.04297  -0.04396   0.00385  -0.06284   0.02778
  75        3S         -0.00651  -0.01800   0.00204  -0.02608  -0.00542
  76        4PX         0.00437   0.00106   0.00021  -0.00382   0.00283
  77        4PY        -0.00036   0.00014   0.00382   0.00025  -0.00035
  78        4PZ         0.00572  -0.00353   0.00034  -0.00149   0.00385
  79 6   H  1S          0.03646  -0.01351   0.04043   0.03208   0.02491
  80        2S          0.04449  -0.01927   0.05776   0.04594   0.03038
  81        3S         -0.00399  -0.00647   0.02656   0.02062  -0.00274
  82        4PX         0.00225   0.00300   0.00175   0.00154   0.00135
  83        4PY        -0.00533   0.00147  -0.00050  -0.00346  -0.00368
  84        4PZ        -0.00427   0.00128  -0.00359   0.00095  -0.00275
  85 7   H  1S         -0.00872  -0.00631  -0.00319   0.00279  -0.01159
  86        2S         -0.01551  -0.01321  -0.00859   0.00529  -0.01672
  87        3S         -0.00959  -0.01161  -0.01201   0.00761  -0.00575
  88        4PX        -0.00142  -0.00234  -0.00037   0.00085  -0.00080
  89        4PY         0.00050   0.00031  -0.00010   0.00011   0.00103
  90        4PZ         0.00037   0.00078   0.00003  -0.00022  -0.00011
  91 8   H  1S         -0.00792  -0.00546   0.00195   0.00298  -0.00737
  92        2S         -0.01304  -0.01125   0.00567   0.00671  -0.01238
  93        3S         -0.00639  -0.00898   0.00939   0.00974  -0.00558
  94        4PX        -0.00144  -0.00236  -0.00002   0.00083  -0.00082
  95        4PY        -0.00076  -0.00076  -0.00016   0.00002  -0.00108
  96        4PZ         0.00034   0.00070  -0.00009  -0.00020  -0.00008
  97 9   H  1S         -0.00347  -0.00295  -0.00125  -0.00035  -0.00446
  98        2S         -0.00668  -0.00612   0.00035   0.00108  -0.00896
  99        3S         -0.00057  -0.00054   0.00224   0.00602  -0.00479
 100        4PX         0.00156   0.00156  -0.00045  -0.00028   0.00198
 101        4PY         0.00150   0.00114  -0.00016   0.00012   0.00082
 102        4PZ         0.00017   0.00015   0.00005   0.00038   0.00080
                          11        12        13        14        15
  11        4PX         0.03607
[...]
      7  0.609049D-02  0.584542D-03  0.623751D-03 -0.112107D-02  0.117556D-01
      8  0.101255D-02  0.414723D-04 -0.615059D-03 -0.384283D-03 -0.464084D-03
      9  0.150853D-01  0.166948D-02 -0.621124D-02 -0.625099D-02 -0.336646D-02
     10  0.967712D-02 -0.561506D-02  0.311336D-02 -0.614650D-02  0.101058D-01
     11  0.153170D-01 -0.597210D-02 -0.626924D-02  0.181990D-02 -0.414278D-02
     12 -0.131127D-01  0.464386D-02  0.453460D-02  0.366057D-03 -0.202596D-02
     13 -0.151954D-01  0.523231D-02  0.603625D-03  0.556360D-02  0.164495D-02
     14 -0.136684D-01  0.458962D-03  0.470499D-02  0.516464D-02 -0.231801D-02
     15  0.907939D-02 -0.446257D-02  0.684008D-02 -0.166485D-02  0.130189D-01
     16  0.114253D-01  0.423540D-02 -0.191884D-02 -0.265942D-03 -0.205624D-01
     17  0.119787D-01 -0.231314D-03 -0.141303D-02  0.317419D-02 -0.195956D-01
     18 -0.124582D-01  0.339934D-03 -0.217408D-02  0.821269D-04  0.141518D-01
     19 -0.118906D-01  0.115732D-02 -0.213601D-02 -0.380598D-03  0.149802D-01
     20 -0.100317D-01 -0.108852D-02  0.516347D-03 -0.866921D-03 -0.127988D-02
     21 -0.188492D-03 -0.216844D-03 -0.862022D-03  0.217690D-02  0.451164D-01
     22 -0.337518D-03  0.444850D-03  0.374056D-02 -0.455350D-02  0.933015D-03
     23  0.629708D-03  0.438400D-04  0.303844D-02 -0.323901D-02 -0.114835D-01
     24 -0.150272D-02 -0.109828D-02  0.446682D-02 -0.396981D-02  0.149814D-01
     25 -0.135337D-03 -0.279004D-02  0.878909D-04  0.311564D-02 -0.945000D-03
     26  0.831889D-03 -0.319105D-02 -0.614226D-03  0.443013D-02 -0.133615D-01
     27 -0.130054D-02 -0.433317D-02  0.814147D-03  0.369933D-02  0.131034D-01
     28  0.694331D-03  0.420091D-02 -0.377686D-02 -0.510961D-03 -0.197414D-02
     29  0.166156D-02  0.379990D-02 -0.447897D-02  0.803526D-03 -0.143906D-01
     30 -0.470875D-03  0.265778D-02 -0.305060D-02  0.727243D-04  0.120742D-01
     31  0.303790D-03 -0.176591D-02  0.264887D-03  0.108053D-02  0.425178D-03
     32  0.124867D-01  0.762122D-03  0.113041D-02 -0.433117D-03 -0.616656D-02
     33 -0.117420D-01  0.282088D-03 -0.475911D-03 -0.161656D-02  0.731407D-02
                6             7             8             9            10
      6  0.316441D+00
      7  0.402825D-02  0.334670D+00
      8  0.000000D+00 -0.189519D-02  0.534958D+00
      9  0.338471D-02 -0.136835D-02  0.295704D-04  0.994662D-01
     10  0.452864D-03 -0.203235D-04 -0.138642D-02 -0.177230D-01  0.954606D-01
     11 -0.166205D-02  0.318309D-02  0.172831D-02 -0.205749D-01 -0.175291D-01
     12 -0.154909D-02  0.944316D-04  0.330461D-03 -0.386755D-01 -0.376068D-01
     13 -0.799874D-03 -0.687792D-03 -0.553276D-03 -0.389917D-01  0.125207D-01
     14  0.472436D-04 -0.126718D-02 -0.162304D-03  0.130059D-01 -0.378238D-01
     15 -0.310997D-02 -0.302735D-02 -0.426174D-02 -0.136992D-01  0.257749D-01
     16  0.427309D-02 -0.451835D-02  0.187781D-02  0.159007D-01 -0.913561D-02
     17 -0.569851D-02  0.158718D-02 -0.518748D-03 -0.393748D-02 -0.845889D-02
     18 -0.432296D-03  0.425755D-03 -0.813087D-03 -0.118545D-02 -0.679857D-02
     19  0.799116D-03  0.243148D-02  0.456974D-02  0.586720D-02 -0.649655D-02
     20  0.426406D-02  0.383358D-02 -0.629348D-03 -0.321386D-02  0.428929D-02
     21  0.382259D-03  0.343169D-02  0.150777D-01  0.385080D-03 -0.559586D-03
     22  0.192455D-02 -0.281669D-02 -0.219634D-02  0.265591D-02  0.387967D-02
     23  0.151546D-02  0.228355D-02  0.560765D-03  0.213716D-02  0.858824D-03
     24 -0.286637D-02 -0.623151D-03  0.492973D-03 -0.132704D-02  0.647324D-02
     25  0.135023D-02 -0.202454D-02 -0.172110D-02 -0.246251D-02  0.617790D-04
     26  0.941136D-03  0.307569D-02  0.103601D-02 -0.298126D-02 -0.295907D-02
     27 -0.344069D-02  0.168993D-03  0.968216D-03 -0.644546D-02  0.265535D-02
     28  0.207462D-02 -0.249218D-02 -0.173194D-02  0.623495D-02 -0.373750D-02
     29  0.166553D-02  0.260806D-02  0.102516D-02  0.571620D-02 -0.675835D-02
     30 -0.271630D-02 -0.298644D-03  0.957371D-03  0.225200D-02 -0.114393D-02
     31 -0.401325D-02  0.318982D-02  0.778645D-05 -0.650833D-02 -0.861945D-03
     32 -0.102779D-02 -0.464679D-02 -0.128979D-02  0.335613D-02  0.962782D-03
     33  0.419424D-02  0.137429D-02  0.747380D-04  0.222230D-02 -0.828013D-03
               11            12            13            14            15
     11  0.102476D+00
     12  0.129242D-01  0.490044D-01
     13 -0.396338D-01  0.899666D-02  0.508384D-01
     14 -0.402127D-01  0.857417D-02  0.939294D-02  0.498844D-01
     15 -0.109034D-01 -0.363794D-02  0.821098D-02 -0.573036D-02  0.157208D+00
     16 -0.411040D-02 -0.254097D-02 -0.431396D-02  0.396199D-02 -0.386284D-01
     17  0.147717D-01  0.360536D-02 -0.407496D-02 -0.195387D-02 -0.323993D-01
     18  0.568964D-02  0.254040D-02 -0.126344D-02  0.114296D-02 -0.601053D-01
     19 -0.188715D-02  0.481687D-03 -0.887633D-03  0.299262D-02 -0.571306D-01
     20 -0.282775D-02 -0.672621D-04  0.221600D-02 -0.300796D-03  0.246295D-01
     21  0.165397D-02  0.277449D-03 -0.962880D-03 -0.860002D-03 -0.931525D-02
     22 -0.611833D-02  0.500343D-02 -0.624266D-02  0.803471D-03  0.321245D-02
     23 -0.245362D-02  0.627570D-02 -0.731811D-02  0.487568D-03 -0.381353D-02
     24 -0.556029D-02  0.570331D-02 -0.485201D-02 -0.390045D-03  0.983464D-02
     25  0.266256D-02 -0.641315D-02 -0.162256D-03  0.632337D-02 -0.141894D-03
     26  0.632728D-02 -0.514088D-02 -0.123771D-02  0.600746D-02 -0.716787D-02
     27  0.322061D-02 -0.571327D-02  0.122840D-02  0.512985D-02  0.648030D-02
     28 -0.205392D-02 -0.897948D-03  0.561866D-02 -0.526129D-02 -0.277523D-02
     29  0.161080D-02  0.374320D-03  0.454321D-02 -0.557720D-02 -0.980120D-02
     30 -0.149587D-02 -0.198066D-03  0.700931D-02 -0.645481D-02  0.384696D-02
     31  0.683530D-02  0.247753D-02 -0.199778D-03 -0.165823D-02 -0.316399D-02
     32 -0.225617D-02 -0.160088D-02 -0.772222D-03  0.189028D-03  0.161770D-01
     33 -0.386036D-02 -0.194794D-03  0.731160D-03  0.201904D-02 -0.150562D-01
               16            17            18            19            20
     16  0.723922D-01
     17 -0.814737D-02  0.706413D-01
     18 -0.281577D-01  0.208415D-01  0.671100D-01
     19  0.217211D-01 -0.286490D-01  0.904379D-02  0.626109D-01
     20 -0.219566D-01 -0.215554D-01 -0.395163D-02 -0.446610D-02  0.285134D-01
     21  0.383024D-02 -0.472378D-02 -0.395579D-03  0.131118D-01 -0.197447D-02
     22 -0.282678D-02  0.398280D-03  0.107985D-01 -0.127923D-01  0.774603D-03
     23  0.723160D-02  0.303776D-02 -0.116314D-01  0.674627D-03  0.462569D-02
     24 -0.556100D-02 -0.905389D-02 -0.219059D-02  0.104403D-01 -0.357111D-02
     25 -0.407844D-02  0.400584D-02  0.128482D-01 -0.129843D-01  0.154307D-03
     26  0.597994D-02  0.664533D-02 -0.958180D-02  0.482674D-03  0.400540D-02
     27 -0.681266D-02 -0.544632D-02 -0.140954D-03  0.102483D-01 -0.419140D-02
     28 -0.380542D-03  0.239942D-02  0.121753D-01 -0.112478D-01 -0.443540D-03
     29  0.967784D-02  0.503891D-02 -0.102547D-01  0.221921D-02  0.340755D-02
     30 -0.311476D-02 -0.705274D-02 -0.813815D-03  0.119848D-01 -0.478925D-02
     31 -0.209026D-01  0.230417D-01  0.970527D-02 -0.650766D-02 -0.798173D-03
     32  0.241450D-01  0.436540D-02 -0.203580D-01 -0.132174D-01 -0.144717D-01
     33 -0.326763D-02 -0.264820D-01  0.122318D-01  0.200566D-01  0.145861D-01
               21            22            23            24            25
     21  0.176150D+00
     22 -0.405594D-02  0.168014D-01
     23  0.369675D-03  0.245690D-02  0.149789D-01
     24  0.335228D-02  0.300888D-02  0.290786D-02  0.163660D-01
     25 -0.428938D-02  0.624473D-02 -0.737418D-02 -0.751386D-02  0.158579D-01
     26  0.136235D-03 -0.809982D-02  0.514781D-02 -0.761487D-02  0.223902D-02
     27  0.311884D-02 -0.754784D-02 -0.692322D-02  0.584327D-02  0.209934D-02
     28 -0.391952D-02  0.667069D-02 -0.695345D-02 -0.765567D-02  0.615831D-02
     29  0.506092D-03 -0.767386D-02  0.556854D-02 -0.775668D-02 -0.746060D-02
     30  0.348870D-02 -0.712188D-02 -0.650248D-02  0.570146D-02 -0.760028D-02
     31  0.369199D-03 -0.415315D-02  0.136794D-02  0.105713D-02 -0.242639D-02
     32 -0.177288D-02  0.274340D-02 -0.826413D-03 -0.662287D-03  0.191846D-02
     33  0.287672D-02  0.186730D-02 -0.636311D-03 -0.203490D-03  0.119718D-02
               26            27            28            29            30
     26  0.154866D-01
     27  0.272397D-02  0.154904D-01
     28 -0.746582D-02 -0.816804D-02  0.165417D-01
     29  0.578180D-02 -0.754342D-02  0.291761D-02  0.161600D-01
     30 -0.698088D-02  0.522306D-02  0.221539D-02  0.283479D-02  0.150387D-01
     31  0.309469D-02  0.278389D-02 -0.422638D-02  0.129470D-02  0.983901D-03
     32 -0.165135D-02 -0.148723D-02  0.251691D-02 -0.105290D-02 -0.888777D-03
     33 -0.130643D-02 -0.873613D-03  0.171901D-02 -0.784603D-03 -0.351782D-03
               31            32            33
     31  0.159435D-01
     32 -0.641660D-02  0.216647D-01
     33 -0.623242D-02 -0.122882D-01  0.216203D-01
 Leave Link  716 at Mon Mar 30 17:01:01 2009, MaxMem=    6291456 cpu:       0.0
 (Enter /opt//g03/l103.exe)

 GradGradGradGradGradGradGradGradGradGradGradGradGradGradGradGradGradGrad
 Berny optimization.
 Internal  Forces:  Max     0.000003114 RMS     0.000001113
 Search for a local minimum.
 Step number   1 out of a maximum of   2
 All quantities printed in internal units (Hartrees-Bohrs-Radians)
 Second derivative matrix not updated -- analytic derivatives used.
     Eigenvalues ---    0.00272   0.00320   0.04331   0.04368   0.04886
     Eigenvalues ---    0.05848   0.09962   0.11938   0.12157   0.12777
     Eigenvalues ---    0.15959   0.16953   0.24016   0.28792   0.31241
     Eigenvalues ---    0.32814   0.33124   0.33420   0.33961   0.37192
     Eigenvalues ---    0.535841000.000001000.000001000.000001000.00000
     Eigenvalues --- 1000.000001000.000001000.000001000.000001000.00000
     Eigenvalues --- 1000.000001000.000001000.00000
 Angle between quadratic step and forces=  51.58 degrees.
 Linear search not attempted -- first point.
 Iteration  1 RMS(Cart)=  0.00001897 RMS(Int)=  0.00000000
 Iteration  2 RMS(Cart)=  0.00000000 RMS(Int)=  0.00000000
 Variable       Old X    -DE/DX   Delta X   Delta X   Delta X     New X
                                 (Linear)    (Quad)   (Total)
    R1        2.88679   0.00000   0.00000   0.00001   0.00001   2.88680
    R2        2.06825   0.00000   0.00000   0.00000   0.00000   2.06825
    R3        2.07139   0.00000   0.00000   0.00000   0.00000   2.07139
    R4        2.07329   0.00000   0.00000   0.00000   0.00000   2.07330
    R5        2.69307   0.00000   0.00000   0.00001   0.00001   2.69308
    R6        2.08022   0.00000   0.00000   0.00000   0.00000   2.08022
    R7        2.06740   0.00000   0.00000   0.00000   0.00000   2.06740
    R8        1.81695   0.00000   0.00000   0.00000   0.00000   1.81695
    A1        1.93050   0.00000   0.00000  -0.00002  -0.00002   1.93049
    A2        1.93069   0.00000   0.00000   0.00002   0.00002   1.93071
    A3        1.93929   0.00000   0.00000  -0.00001  -0.00001   1.93928
    A4        1.89454   0.00000   0.00000   0.00000   0.00000   1.89455
    A5        1.88905   0.00000   0.00000   0.00000   0.00000   1.88905
    A6        1.87810   0.00000   0.00000   0.00000   0.00000   1.87810
    A7        1.97092   0.00000   0.00000  -0.00002  -0.00002   1.97090
    A8        1.92384   0.00000   0.00000   0.00001   0.00001   1.92385
    A9        1.92589   0.00000   0.00000   0.00000   0.00000   1.92589
   A10        1.92917   0.00000   0.00000   0.00000   0.00000   1.92918
   A11        1.83666   0.00000   0.00000   0.00001   0.00001   1.83667
   A12        1.87319   0.00000   0.00000   0.00000   0.00000   1.87320
   A13        1.88957   0.00000   0.00000  -0.00001  -0.00001   1.88956
    D1       -0.99384   0.00000   0.00000   0.00001   0.00001  -0.99383
    D2        3.12209   0.00000   0.00000   0.00002   0.00002   3.12211
    D3        1.05617   0.00000   0.00000   0.00001   0.00001   1.05619
    D4       -3.09361   0.00000   0.00000   0.00001   0.00001  -3.09360
    D5        1.02232   0.00000   0.00000   0.00001   0.00001   1.02234
    D6       -1.04359   0.00000   0.00000   0.00001   0.00001  -1.04359
    D7        1.10468   0.00000   0.00000   0.00000   0.00000   1.10468
    D8       -1.06257   0.00000   0.00000   0.00001   0.00001  -1.06256
    D9       -3.12849   0.00000   0.00000   0.00000   0.00000  -3.12849
   D10       -1.05120   0.00000   0.00000   0.00002   0.00002  -1.05118
   D11        1.11313   0.00000   0.00000   0.00001   0.00001   1.11314
   D12        3.13018   0.00000   0.00000   0.00003   0.00003   3.13020
         Item               Value     Threshold  Converged?
 Maximum Force            0.000003     0.000015     YES
 RMS     Force            0.000001     0.000010     YES
 Maximum Displacement     0.000061     0.000060     NO 
 RMS     Displacement     0.000019     0.000040     YES
 Predicted change in Energy=-1.264151D-10
 GradGradGradGradGradGradGradGradGradGradGradGradGradGradGradGradGradGrad

 Leave Link  103 at Mon Mar 30 17:01:01 2009, MaxMem=    6291456 cpu:       0.0
 (Enter /opt//g03/l9999.exe)
 1\1\GINC-BOTTICELLI\Freq\UB971\6-311+G(d,p)\C2H6O1\SS663\30-Mar-2009\0
 \\#P Geom=AllCheck Guess=Read SCRF=Check GenChk UB971/6-311+G(d,p) Fre
 q\\#NewComb uB971/6-311+G(d,p)\\0,1\C,1.8434415165,3.2435206397,2.7296
 04594\C,3.3204274757,3.3524720958,2.3550616026\O,4.1884952941,3.231022
 048,3.4787402253\H,1.6449686329,2.2975747163,3.2430843311\H,1.21341146
 26,3.2930066057,1.8339959313\H,1.5423764724,4.0639488942,3.3929075656\
 H,3.5091615291,4.2967142541,1.8216260163\H,3.6037145858,2.5366218178,1
 .6834846282\H,3.982503031,3.9384189285,4.0964951057\\Version=AM64L-G03
 RevE.01\HF=-155.0384091\S2=0.\S2-1=0.\S2A=0.\RMSD=3.596e-09\RMSF=1.190
 e-06\ZeroPoint=0.0796946\Thermal=0.0839683\Dipole=-0.547978,0.4684807,
 -0.1117598\DipoleDeriv=-0.1427909,-0.0334446,-0.0177317,-0.0215082,0.0
 943243,0.0284462,0.0375666,0.00717,0.0695311,0.6665265,0.0069379,0.233
 4829,0.0436742,0.3363473,-0.0444686,0.2762468,-0.072685,0.6359693,-0.7
 744712,-0.1017594,-0.2319873,-0.131535,-0.3553133,0.070452,-0.306009,0
 .1075848,-0.7469455,0.0309591,-0.0057769,0.0141164,-0.0471551,-0.08365
 86,0.084248,0.0510988,0.0786985,0.0252858,-0.0348914,0.0004854,-0.0788
 426,0.0043938,0.0797165,0.0089087,-0.1176563,0.008357,-0.0837105,0.016
 9034,0.0086009,0.0201041,0.0426086,-0.0711348,-0.1207544,0.0634443,-0.
 1041728,-0.0254374,-0.0381219,-0.0410999,-0.0062731,-0.0354722,-0.1421
 662,0.1566817,-0.0102878,0.0940442,-0.075418,-0.0106436,0.0428386,0.03
 08853,0.0452745,-0.049144,-0.1117473,0.0132012,-0.0709735,-0.0423153,0
 .28653,0.123218,0.036246,0.0997193,0.1910288,-0.0717663,-0.0076047,-0.
 0480232,0.2430406\Polar=32.9586672,0.2144418,29.0046254,0.9853563,0.30
 45504,31.6688481\PG=C01 [X(C2H6O1)]\NImag=0\\0.46948323,-0.00659964,0.
 56140284,0.02252109,-0.00440785,0.55944208,-0.17618030,-0.00873785,0.0
 4728796,0.44818484,-0.00971533,-0.08369454,0.00156564,-0.01297974,0.60
 872751,0.03687126,0.00313673,-0.09116478,-0.04316468,0.02909150,0.5244
 5861,-0.03076172,0.00371430,-0.04264704,-0.12164479,0.03069599,-0.0533
 9735,0.20394477,0.00035530,0.00377069,-0.00140758,0.01029637,-0.085696
 97,-0.01168941,-0.12487590,0.36682513,-0.00749036,-0.00189996,-0.00241
 034,-0.08406949,0.01808900,-0.16801316,0.06063579,0.23006602,0.4425527
 5,-0.05318000,-0.03737009,0.01966728,-0.00709962,-0.03097452,0.0175335
 8,0.00393857,0.00162274,-0.00087475,0.05820780,-0.03876625,-0.24559303
 ,0.10580284,0.00012878,-0.00184087,0.00163617,0.00011697,0.00078972,-0
 .00166178,0.04281170,0.26438791,0.02133947,0.10567265,-0.10358805,0.00
 063496,0.00850380,-0.00608018,-0.00020028,-0.00128233,0.00137963,-0.02
 523653,-0.11688595,0.10962912,-0.13062274,0.00601245,-0.11993257,-0.01
 108040,0.00210344,-0.02881191,-0.00957545,-0.00076240,0.00009136,0.003
 16720,0.00040639,0.00564659,0.14134441,0.00613090,-0.04563701,0.009949
 44,-0.00109003,-0.00209979,-0.00238616,-0.00054047,0.00153489,0.000148
 16,0.01701577,-0.00006960,0.02237151,-0.00729335,0.04535925,-0.1210540
 2,0.00999243,-0.22107867,0.00464947,-0.00034737,0.00642872,0.00203813,
 -0.00028009,0.00190997,-0.00764445,-0.00076844,-0.01146457,0.13346076,
 -0.01058358,0.23896595,-0.06362761,0.04975384,0.03957306,-0.01008227,0
 .02710829,0.02187481,0.00334612,-0.00075176,0.00024786,0.00044765,-0.0
 0400785,-0.00395074,0.00497235,-0.01504735,-0.01072439,0.07035010,0.04
 961552,-0.19263703,-0.11590673,-0.00185031,0.00235750,0.00179681,0.000
 71037,0.00063296,0.00198001,0.00700274,-0.01993933,-0.01790768,-0.0009
 7251,0.00089565,0.00171965,-0.05527748,0.20638163,0.04041670,-0.115154
 18,-0.13849760,0.00086545,-0.00709059,-0.00766174,-0.00021974,0.001457
 97,0.00206775,-0.00454522,0.01152074,0.00969550,0.00773472,-0.01987550
 ,-0.01549224,-0.04648512,0.12834337,0.14890010,-0.00703131,-0.02936156
 ,0.01537456,-0.05793979,-0.04219044,0.02325648,-0.00086779,0.02078886,
 -0.02056858,-0.00656780,-0.00012024,0.00190888,0.00090804,0.00026035,-
 0.00074431,0.00146259,0.00077164,-0.00003697,0.06698355,0.00023538,-0.
 00140626,-0.00007120,-0.04067492,-0.23597191,0.09087761,0.00478987,0.0
 0486299,0.00561169,-0.00018464,0.00172901,-0.00034170,-0.00087036,-0.0
 0010909,0.00001752,-0.00033986,0.00102624,0.00025990,0.04185079,0.2498
 3222,0.00370006,0.00806532,-0.00190516,0.02429062,0.08750047,-0.096981
 21,-0.00904967,0.02482762,-0.02639649,0.00145235,0.00022497,0.00060322
 ,0.00066100,0.00007442,0.00032879,-0.00074263,0.00026206,-0.00015448,-
 0.01729072,-0.10683275,0.11350541,-0.00980955,0.02496089,0.01958342,-0
 .06669670,0.05633464,0.04731051,0.00289301,-0.01792213,-0.02115810,0.0
 0146598,-0.00046095,-0.00019123,0.00088828,0.00001780,-0.00070043,-0.0
 0628229,-0.00108058,0.00170159,0.00273503,-0.00543729,-0.00326434,0.07
 699098,-0.00124663,0.00324226,0.00295130,0.05213863,-0.20328204,-0.118
 83326,-0.00246910,0.00506425,0.00046252,0.00039226,0.00096530,0.000106
 35,0.00080553,0.00006649,-0.00009804,-0.00108205,0.00157247,0.00092096
 ,0.00768335,-0.02105450,-0.01571452,-0.05619611,0.21142167,0.00361755,
 -0.00616614,-0.00357429,0.04145033,-0.10947637,-0.13554848,-0.00036757
 ,-0.02364509,-0.02882462,-0.00039954,-0.00014200,-0.00019195,0.0003552
 4,0.00003727,0.00039877,0.00129170,0.00007146,0.00079533,-0.00328111,0
 .01053398,0.01041859,-0.03887158,0.12806546,0.16086906,0.00173000,-0.0
 0237233,-0.00142777,0.00253903,-0.02038232,-0.02147269,-0.05127272,0.1
 1124892,0.07318629,-0.00037979,-0.00010855,0.00004889,-0.00000170,0.00
 054637,0.00071924,-0.00058664,0.00108060,0.00056857,0.00031748,0.00063
 103,0.00024333,-0.00218473,-0.00002587,-0.00379501,0.04983906,-0.00000
 926,0.00055207,0.00152412,0.00276906,0.00150110,0.00637000,0.08785797,
 -0.29778364,-0.25279567,-0.00031597,-0.00042911,-0.00023664,0.00057082
 ,0.00005921,0.00034791,-0.00035578,-0.00029009,-0.00038266,0.00031725,
 0.00109130,0.00159242,-0.00021627,0.00200410,0.00072144,-0.09061784,0.
 29329506,0.00007825,0.00076100,0.00277680,0.00805539,-0.02783608,-0.02
 543778,0.04320774,-0.21804711,-0.22226548,0.00004728,0.00027344,0.0000
 1728,0.00079481,0.00026444,0.00000329,-0.00108455,-0.00035896,0.000347
 39,0.00138176,-0.00005504,0.00058133,-0.00440982,0.00213922,-0.0043424
 1,-0.04807086,0.24285908,0.24831958\\0.00000164,0.00000089,0.00000056,
 -0.00000262,-0.00000013,0.00000263,-0.00000071,0.00000061,-0.00000366,
 -0.00000079,0.00000080,0.00000018,0.00000097,-0.00000029,0.00000030,-0
 .00000005,-0.00000109,-0.00000029,-0.00000017,-0.00000065,0.00000006,0
 .00000102,0.,0.00000069,0.00000071,-0.00000013,-0.00000047\\\@


 THE ONLY TROUBLE WITH A SURE THING IS THE UNCERTAINTY.
     -- FROM A TEABAG (BELONGING TO W.H.?)
 Job cpu time:  0 days  0 hours 14 minutes 39.2 seconds.
 File lengths (MBytes):  RWF=     27 Int=      0 D2E=      0 Chk=      7 Scr=      1
 Normal termination of Gaussian 03 at Mon Mar 30 17:01:01 2009.
