 Entering Gaussian System, Link 0=g09
 Input=0freq-28_Ti(OCl)2.gau
 Output=0freq-28_Ti(OCl)2.log
 Initial command:
 /opt/g09/l1.exe "/scratch/pb556/g09_run/add_hco//Gau-5867.inp" -scrdir="/scratch/pb556/g09_run/add_hco//"
 Entering Link 1 = /opt/g09/l1.exe PID=      5876.
  
 Copyright (c) 1988,1990,1992,1993,1995,1998,2003,2009,2013,
            Gaussian, Inc.  All Rights Reserved.
  
 This is part of the Gaussian(R) 09 program.  It is based on
 the Gaussian(R) 03 system (copyright 2003, Gaussian, Inc.),
 the Gaussian(R) 98 system (copyright 1998, Gaussian, Inc.),
 the Gaussian(R) 94 system (copyright 1995, Gaussian, Inc.),
 the Gaussian 92(TM) system (copyright 1992, Gaussian, Inc.),
 the Gaussian 90(TM) system (copyright 1990, Gaussian, Inc.),
 the Gaussian 88(TM) system (copyright 1988, Gaussian, Inc.),
 the Gaussian 86(TM) system (copyright 1986, Carnegie Mellon
 University), and the Gaussian 82(TM) system (copyright 1983,
 Carnegie Mellon University). Gaussian is a federally registered
 trademark of Gaussian, Inc.
  
 This software contains proprietary and confidential information,
 including trade secrets, belonging to Gaussian, Inc.
  
 This software is provided under written license and may be
 used, copied, transmitted, or stored only in accord with that
 written license.
  
 The following legend is applicable only to US Government
 contracts under FAR:
  
                    RESTRICTED RIGHTS LEGEND
  
 Use, reproduction and disclosure by the US Government is
 subject to restrictions as set forth in subparagraphs (a)
 and (c) of the Commercial Computer Software - Restricted
 Rights clause in FAR 52.227-19.
  
 Gaussian, Inc.
 340 Quinnipiac St., Bldg. 40, Wallingford CT 06492
  
  
 ---------------------------------------------------------------
 Warning -- This program may not be used in any manner that
 competes with the business of Gaussian, Inc. or will provide
 assistance to any competitor of Gaussian, Inc.  The licensee
 of this program is prohibited from giving any competitor of
 Gaussian, Inc. access to this program.  By using this program,
 the user acknowledges that Gaussian, Inc. is engaged in the
 business of creating and licensing software in the field of
 computational chemistry and represents and warrants to the
 licensee that it is not a competitor of Gaussian, Inc. and that
 it will not use this program in any manner prohibited above.
 ---------------------------------------------------------------
  

 Cite this work as:
 Gaussian 09, Revision D.01,
 M. J. Frisch, G. W. Trucks, H. B. Schlegel, G. E. Scuseria, 
 M. A. Robb, J. R. Cheeseman, G. Scalmani, V. Barone, B. Mennucci, 
 G. A. Petersson, H. Nakatsuji, M. Caricato, X. Li, H. P. Hratchian, 
 A. F. Izmaylov, J. Bloino, G. Zheng, J. L. Sonnenberg, M. Hada, 
 M. Ehara, K. Toyota, R. Fukuda, J. Hasegawa, M. Ishida, T. Nakajima, 
 Y. Honda, O. Kitao, H. Nakai, T. Vreven, J. A. Montgomery, Jr., 
 J. E. Peralta, F. Ogliaro, M. Bearpark, J. J. Heyd, E. Brothers, 
 K. N. Kudin, V. N. Staroverov, T. Keith, R. Kobayashi, J. Normand, 
 K. Raghavachari, A. Rendell, J. C. Burant, S. S. Iyengar, J. Tomasi, 
 M. Cossi, N. Rega, J. M. Millam, M. Klene, J. E. Knox, J. B. Cross, 
 V. Bakken, C. Adamo, J. Jaramillo, R. Gomperts, R. E. Stratmann, 
 O. Yazyev, A. J. Austin, R. Cammi, C. Pomelli, J. W. Ochterski, 
 R. L. Martin, K. Morokuma, V. G. Zakrzewski, G. A. Voth, 
 P. Salvador, J. J. Dannenberg, S. Dapprich, A. D. Daniels, 
 O. Farkas, J. B. Foresman, J. V. Ortiz, J. Cioslowski, 
 and D. J. Fox, Gaussian, Inc., Wallingford CT, 2013.
 
 ******************************************
 Gaussian 09:  ES64L-G09RevD.01 24-Apr-2013
                20-Feb-2015 
 ******************************************
 %NProcShared=8
 Will use up to    8 processors via shared memory.
 %Mem=500MW
 ----------------------------------------------------------------------
 #p uB971/6-311+G(d,p) Opt=(Tight, CalcAll) Freq GFInput Population=Non
 e Integral(Grid=UltraFine) SCF=XQC Guess=MIX NoSymmetry
 ----------------------------------------------------------------------
 1/7=10,10=4,14=-1,18=20,19=15,26=4,38=1/1,3;
 2/9=110,12=2,15=1,17=6,18=5,40=1/2;
 3/5=4,6=6,7=111,11=2,16=1,24=10,25=1,30=1,71=2,74=-20,75=-5,116=2,140=1/1,2,3;
 4/13=-1/1;
 5/5=2,8=3,13=1,38=5/2,8;
 8/6=4,10=90,11=11/1;
 11/6=1,8=1,9=11,15=111,16=1,31=1/1,2,10;
 10/6=1,31=1/2;
 7/10=1,25=1,30=1/1,2,3,16;
 1/7=10,10=4,14=-1,18=20,19=15,26=4/3(3);
 2/9=110,15=1/2;
 7/8=1,9=1,25=1,30=1,44=-1/16;
 99//99;
 2/9=110,15=1/2;
 3/5=4,6=6,7=111,11=2,16=1,25=1,30=1,71=2,74=-20,75=-5,116=2,140=1/1,2,3;
 4/5=5,16=3,69=1/1;
 5/5=2,8=3,13=1,38=5/2,8;
 8/6=4,10=90,11=11/1;
 11/6=1,8=1,9=11,15=111,16=1,31=1/1,2,10;
 10/6=1,31=1/2;
 7/10=1,25=1,30=1/1,2,3,16;
 1/7=10,10=4,14=-1,18=20,19=15,26=4/3(-8);
 2/9=110,15=1/2;
 7/8=1,9=1,25=1,30=1,44=-1/16;
 99//99;
 Leave Link    1 at Fri Feb 20 15:21:34 2015, MaxMem=   524288000 cpu:         0.8
 (Enter /opt/g09/l101.exe)
 -----------------------------------------------
 W:\Data\TiCl\monomer\fine\0fine-28_Ti(OCl)2.g09
 -----------------------------------------------
 Symbolic Z-matrix:
 Charge = -2 Multiplicity = 3
 O                    -2.52396   0.62224   0.73636 
 Cl                   -0.95626   0.96899  -2.26658 
 Ti                   -1.07126   0.11463  -0.10094 
 O                    -0.00761   0.87164   0.95366 
 Cl                   -0.82801  -2.2035   -0.11919 
 
 NAtoms=      5 NQM=        5 NQMF=       0 NMMI=      0 NMMIF=      0
                NMic=       0 NMicF=      0.
                    Isotopes and Nuclear Properties:
 (Nuclear quadrupole moments (NQMom) in fm**2, nuclear magnetic moments (NMagM)
  in nuclear magnetons)

  Atom         1           2           3           4           5
 IAtWgt=          16          35          48          16          35
 AtmWgt=  15.9949146  34.9688527  47.9479467  15.9949146  34.9688527
 NucSpn=           0           3           0           0           3
 AtZEff=   0.0000000   0.0000000   0.0000000   0.0000000   0.0000000
 NQMom=    0.0000000  -8.1650000   0.0000000   0.0000000  -8.1650000
 NMagM=    0.0000000   0.8218740   0.0000000   0.0000000   0.8218740
 AtZNuc=   8.0000000  17.0000000  22.0000000   8.0000000  17.0000000
 Leave Link  101 at Fri Feb 20 15:21:34 2015, MaxMem=   524288000 cpu:         1.9
 (Enter /opt/g09/l103.exe)

 GradGradGradGradGradGradGradGradGradGradGradGradGradGradGradGradGradGrad
 Berny optimization.
 Initialization pass.
                           ----------------------------
                           !    Initial Parameters    !
                           ! (Angstroms and Degrees)  !
 --------------------------                            --------------------------
 ! Name  Definition              Value          Derivative Info.                !
 --------------------------------------------------------------------------------
 ! R1    R(1,3)                  1.7519         calculate D2E/DX2 analytically  !
 ! R2    R(2,3)                  2.3309         calculate D2E/DX2 analytically  !
 ! R3    R(3,4)                  1.6783         calculate D2E/DX2 analytically  !
 ! R4    R(3,5)                  2.3309         calculate D2E/DX2 analytically  !
 ! A1    A(1,3,2)              112.2571         calculate D2E/DX2 analytically  !
 ! A2    A(1,3,4)               95.4233         calculate D2E/DX2 analytically  !
 ! A3    A(1,3,5)              112.237          calculate D2E/DX2 analytically  !
 ! A4    A(2,3,4)              112.7822         calculate D2E/DX2 analytically  !
 ! A5    A(2,3,5)              110.6157         calculate D2E/DX2 analytically  !
 ! A6    A(4,3,5)              112.7909         calculate D2E/DX2 analytically  !
 ! D1    D(1,3,4,2)           -116.9064         calculate D2E/DX2 analytically  !
 ! D2    D(1,3,5,2)            126.2278         calculate D2E/DX2 analytically  !
 ! D3    D(1,3,5,4)           -106.4119         calculate D2E/DX2 analytically  !
 ! D4    D(2,3,5,4)            127.3603         calculate D2E/DX2 analytically  !
 --------------------------------------------------------------------------------
 Trust Radius=3.00D-01 FncErr=1.00D-07 GrdErr=1.00D-06
 Number of steps in this run=     24 maximum allowed number of steps=    100.
 GradGradGradGradGradGradGradGradGradGradGradGradGradGradGradGradGradGrad

 Leave Link  103 at Fri Feb 20 15:21:34 2015, MaxMem=   524288000 cpu:         0.1
 (Enter /opt/g09/l202.exe)
                          Input orientation:                          
 ---------------------------------------------------------------------
 Center     Atomic      Atomic             Coordinates (Angstroms)
 Number     Number       Type             X           Y           Z
 ---------------------------------------------------------------------
      1          8           0       -2.523960    0.622240    0.736360
      2         17           0       -0.956260    0.968990   -2.266580
      3         22           0       -1.071260    0.114630   -0.100940
      4          8           0       -0.007610    0.871640    0.953660
      5         17           0       -0.828010   -2.203500   -0.119190
 ---------------------------------------------------------------------
                    Distance matrix (angstroms):
                    1          2          3          4          5
     1  O    0.000000
     2  Cl   3.405226   0.000000
     3  Ti   1.751878   2.330912   0.000000
     4  O    2.537999   3.358476   1.678272   0.000000
     5  Cl   3.404852   3.833070   2.330929   3.358653   0.000000
 Symmetry turned off by external request.
 Stoichiometry    Cl2O2Ti(2-,3)
 Framework group  C1[X(Cl2O2Ti)]
 Deg. of freedom     9
 Full point group                 C1      NOp   1
 Rotational constants (GHZ):      2.5733098      1.6388348      1.2578100
 Leave Link  202 at Fri Feb 20 15:21:34 2015, MaxMem=   524288000 cpu:         0.3
 (Enter /opt/g09/l301.exe)
 Standard basis: 6-311+G(d,p) (5D, 7F)
 Ernie: Thresh=  0.10000D-02 Tol=  0.10000D-05 Strict=F.
 AO basis set in the form of general basis input (Overlap normalization):
      1 0
 S   6 1.00       0.000000000000
      0.8588500000D+04  0.1895150083D-02
      0.1297230000D+04  0.1438590063D-01
      0.2992960000D+03  0.7073200310D-01
      0.8737710000D+02  0.2400010105D+00
      0.2567890000D+02  0.5947970261D+00
      0.3740040000D+01  0.2808020123D+00
 SP   3 1.00       0.000000000000
      0.4211750000D+02  0.1138890124D+00  0.3651139738D-01
      0.9628370000D+01  0.9208111006D+00  0.2371529830D+00
      0.2853320000D+01 -0.3274470358D-02  0.8197019412D+00
 SP   1 1.00       0.000000000000
      0.9056610000D+00  0.1000000000D+01  0.1000000000D+01
 SP   1 1.00       0.000000000000
      0.2556110000D+00  0.1000000000D+01  0.1000000000D+01
 SP   1 1.00       0.000000000000
      0.8450000000D-01  0.1000000000D+01  0.1000000000D+01
 D   1 1.00       0.000000000000
      0.1292000000D+01  0.1000000000D+01
 ****
      2 0
 S   6 1.00       0.000000000000
      0.1058190000D+06  0.7380002465D-03
      0.1587200000D+05  0.5718001910D-02
      0.3619650000D+04  0.2949500985D-01
      0.1030800000D+04  0.1172860392D+00
      0.3399080000D+03  0.3629491212D+00
      0.1245380000D+03  0.5841491951D+00
 S   3 1.00       0.000000000000
      0.1245380000D+03  0.1341769734D+00
      0.4951350000D+02  0.6242498762D+00
      0.2080560000D+02  0.2917559421D+00
 S   1 1.00       0.000000000000
      0.6583460000D+01  0.1000000000D+01
 S   1 1.00       0.000000000000
      0.2564680000D+01  0.1000000000D+01
 S   1 1.00       0.000000000000
      0.5597630000D+00  0.1000000000D+01
 S   1 1.00       0.000000000000
      0.1832730000D+00  0.1000000000D+01
 SP   1 1.00       0.000000000000
      0.4830000000D-01  0.1000000000D+01  0.1000000000D+01
 P   5 1.00       0.000000000000
      0.5897760000D+03  0.3665569355D-02
      0.1398490000D+03  0.2836791942D-01
      0.4514130000D+02  0.1247566028D+00
      0.1687330000D+02  0.3396546305D+00
      0.2771520000D+01  0.7475859630D+00
 P   2 1.00       0.000000000000
      0.6741100000D+01 -0.1572243813D+01
      0.2771520000D+01  0.9923888817D+00
 P   1 1.00       0.000000000000
      0.1023870000D+01  0.1000000000D+01
 P   1 1.00       0.000000000000
      0.3813680000D+00  0.1000000000D+01
 P   1 1.00       0.000000000000
      0.1094370000D+00  0.1000000000D+01
 D   1 1.00       0.000000000000
      0.7500000000D+00  0.1000000000D+01
 ****
      3 0
 S   6 1.00       0.000000000000
      0.2060820000D+06  0.5673151380D-03
      0.3122680000D+05  0.4379672866D-02
      0.7199320000D+04  0.2242029425D-01
      0.2048750000D+04  0.9063426645D-01
      0.6707900000D+03  0.2890357165D+00
      0.2436500000D+03  0.6803470061D+00
 S   1 1.00       0.000000000000
      0.9592500000D+02  0.1000000000D+01
 S   1 1.00       0.000000000000
      0.3981010000D+02  0.1000000000D+01
 S   1 1.00       0.000000000000
      0.1222050000D+02  0.1000000000D+01
 S   1 1.00       0.000000000000
      0.5008820000D+01  0.1000000000D+01
 S   1 1.00       0.000000000000
      0.1285690000D+01  0.1000000000D+01
 S   1 1.00       0.000000000000
      0.5128060000D+00  0.1000000000D+01
 S   1 1.00       0.000000000000
      0.8557600000D-01  0.1000000000D+01
 S   1 1.00       0.000000000000
      0.3330200000D-01  0.1000000000D+01
 S   1 1.00       0.000000000000
      0.9991000000D-02  0.1000000000D+01
 P   5 1.00       0.000000000000
      0.1264700000D+04  0.3122017423D-02
      0.3012300000D+03  0.2516579464D-01
      0.9697770000D+02  0.1184178291D+00
      0.3637270000D+02  0.3522190030D+00
      0.1478140000D+02  0.6219379661D+00
 P   1 1.00       0.000000000000
      0.6274650000D+01  0.1000000000D+01
 P   1 1.00       0.000000000000
      0.2478780000D+01  0.1000000000D+01
 P   1 1.00       0.000000000000
      0.1016180000D+01  0.1000000000D+01
 P   1 1.00       0.000000000000
      0.3981620000D+00  0.1000000000D+01
 P   1 1.00       0.000000000000
      0.1015610000D+00  0.1000000000D+01
 P   1 1.00       0.000000000000
      0.3405400000D-01  0.1000000000D+01
 D   3 1.00       0.000000000000
      0.2599240000D+02  0.5411706153D-01
      0.7086340000D+01  0.2873032281D+00
      0.2348710000D+01  0.7854540223D+00
 D   1 1.00       0.000000000000
      0.8001980000D+00  0.1000000000D+01
 D   1 1.00       0.000000000000
      0.2620490000D+00  0.1000000000D+01
 D   1 1.00       0.000000000000
      0.7200000000D-01  0.1000000000D+01
 F   1 1.00       0.000000000000
      0.6900000000D+00  0.1000000000D+01
 ****
      4 0
 S   6 1.00       0.000000000000
      0.8588500000D+04  0.1895150083D-02
      0.1297230000D+04  0.1438590063D-01
      0.2992960000D+03  0.7073200310D-01
      0.8737710000D+02  0.2400010105D+00
      0.2567890000D+02  0.5947970261D+00
      0.3740040000D+01  0.2808020123D+00
 SP   3 1.00       0.000000000000
      0.4211750000D+02  0.1138890124D+00  0.3651139738D-01
      0.9628370000D+01  0.9208111006D+00  0.2371529830D+00
      0.2853320000D+01 -0.3274470358D-02  0.8197019412D+00
 SP   1 1.00       0.000000000000
      0.9056610000D+00  0.1000000000D+01  0.1000000000D+01
 SP   1 1.00       0.000000000000
      0.2556110000D+00  0.1000000000D+01  0.1000000000D+01
 SP   1 1.00       0.000000000000
      0.8450000000D-01  0.1000000000D+01  0.1000000000D+01
 D   1 1.00       0.000000000000
      0.1292000000D+01  0.1000000000D+01
 ****
      5 0
 S   6 1.00       0.000000000000
      0.1058190000D+06  0.7380002465D-03
      0.1587200000D+05  0.5718001910D-02
      0.3619650000D+04  0.2949500985D-01
      0.1030800000D+04  0.1172860392D+00
      0.3399080000D+03  0.3629491212D+00
      0.1245380000D+03  0.5841491951D+00
 S   3 1.00       0.000000000000
      0.1245380000D+03  0.1341769734D+00
      0.4951350000D+02  0.6242498762D+00
      0.2080560000D+02  0.2917559421D+00
 S   1 1.00       0.000000000000
      0.6583460000D+01  0.1000000000D+01
 S   1 1.00       0.000000000000
      0.2564680000D+01  0.1000000000D+01
 S   1 1.00       0.000000000000
      0.5597630000D+00  0.1000000000D+01
 S   1 1.00       0.000000000000
      0.1832730000D+00  0.1000000000D+01
 SP   1 1.00       0.000000000000
      0.4830000000D-01  0.1000000000D+01  0.1000000000D+01
 P   5 1.00       0.000000000000
      0.5897760000D+03  0.3665569355D-02
      0.1398490000D+03  0.2836791942D-01
      0.4514130000D+02  0.1247566028D+00
      0.1687330000D+02  0.3396546305D+00
      0.2771520000D+01  0.7475859630D+00
 P   2 1.00       0.000000000000
      0.6741100000D+01 -0.1572243813D+01
      0.2771520000D+01  0.9923888817D+00
 P   1 1.00       0.000000000000
      0.1023870000D+01  0.1000000000D+01
 P   1 1.00       0.000000000000
      0.3813680000D+00  0.1000000000D+01
 P   1 1.00       0.000000000000
      0.1094370000D+00  0.1000000000D+01
 D   1 1.00       0.000000000000
      0.7500000000D+00  0.1000000000D+01
 ****

   162 basis functions,   272 primitive gaussians,   173 cartesian basis functions
    38 alpha electrons       36 beta electrons
       nuclear repulsion energy       416.8426347763 Hartrees.
 IExCor= 1614 DFT=T Ex+Corr=B971 ExCW=0 ScaHFX=  0.210000
 ScaDFX=  1.000000  1.000000  1.000000  1.000000 ScalE2=  1.000000  1.000000
 IRadAn=      5 IRanWt=     -1 IRanGd=            0 ICorTp=0 IEmpDi=  4
 NAtoms=    5 NActive=    5 NUniq=    5 SFac= 1.00D+00 NAtFMM=   60 NAOKFM=F Big=F
 Integral buffers will be    131072 words long.
 Raffenetti 2 integral format.
 Two-electron integral symmetry is turned off.
 Leave Link  301 at Fri Feb 20 15:21:34 2015, MaxMem=   524288000 cpu:         0.4
 (Enter /opt/g09/l302.exe)
 NPDir=0 NMtPBC=     1 NCelOv=     1 NCel=       1 NClECP=     1 NCelD=      1
         NCelK=      1 NCelE2=     1 NClLst=     1 CellRange=     0.0.
 One-electron integrals computed using PRISM.
 NBasis=   162 RedAO= T EigKep=  1.29D-03  NBF=   162
 NBsUse=   162 1.00D-06 EigRej= -1.00D+00 NBFU=   162
 Precomputing XC quadrature grid using
 IXCGrd= 4 IRadAn=           5 IRanWt=          -1 IRanGd=           0 AccXCQ= 0.00D+00.
 Generated NRdTot=       0 NPtTot=           0 NUsed=           0 NTot=          32
 NSgBfM=   167   167   167   167   167 MxSgAt=     5 MxSgA2=     5.
 Leave Link  302 at Fri Feb 20 15:21:34 2015, MaxMem=   524288000 cpu:         1.8
 (Enter /opt/g09/l303.exe)
 DipDrv:  MaxL=1.
 Leave Link  303 at Fri Feb 20 15:21:35 2015, MaxMem=   524288000 cpu:         0.3
 (Enter /opt/g09/l401.exe)
 ExpMin= 9.99D-03 ExpMax= 2.06D+05 ExpMxC= 7.20D+03 IAcc=3 IRadAn=         5 AccDes= 0.00D+00
 Harris functional with IExCor= 1614 and IRadAn=       5 diagonalized for initial guess.
 HarFok:  IExCor= 1614 AccDes= 0.00D+00 IRadAn=         5 IDoV= 1 UseB2=F ITyADJ=14
 ICtDFT=  3500011 ScaDFX=  1.000000  1.000000  1.000000  1.000000
 FoFCou: FMM=F IPFlag=           0 FMFlag=      100000 FMFlg1=           0
         NFxFlg=           0 DoJE=T BraDBF=F KetDBF=T FulRan=T
         wScrn=  0.000000 ICntrl=     500 IOpCl=  0 I1Cent=   200000004 NGrid=           0
         NMat0=    1 NMatS0=      1 NMatT0=    0 NMatD0=    1 NMtDS0=    0 NMtDT0=    0
 Symmetry not used in FoFCou.
 Harris En= -1897.06485429202    
 JPrj=0 DoOrth=F DoCkMO=T.
 Mixing orbitals, IMix= 1 IMixAn=  0 NRI=1 NE=   38 Coef=  7.07106781D-01  7.07106781D-01
 Mixing orbitals, IMix= 1 IMixAn=  0 NRI=1 NE=   36 Coef= -7.07106781D-01  7.07106781D-01
 Initial guess <Sx>= 0.0000 <Sy>= 0.0000 <Sz>= 1.0000 <S**2>= 2.0000 S= 1.0000
 Leave Link  401 at Fri Feb 20 15:21:35 2015, MaxMem=   524288000 cpu:         4.6
 (Enter /opt/g09/l502.exe)
 UHF open shell SCF:
 Using DIIS extrapolation, IDIIS=  1040.
 Two-electron integral symmetry not used.
 Keep R1 and R2 ints in memory in canonical form, NReq=177064498.
 IVT=       98161 IEndB=       98161 NGot=   524288000 MDV=   349857428
 LenX=   349857428 LenY=   349827058
 Requested convergence on RMS density matrix=1.00D-08 within  64 cycles.
 Requested convergence on MAX density matrix=1.00D-06.
 Requested convergence on             energy=1.00D-06.
 No special actions if energy rises.
 FoFCou: FMM=F IPFlag=           0 FMFlag=           0 FMFlg1=           0
         NFxFlg=           0 DoJE=F BraDBF=F KetDBF=F FulRan=T
         wScrn=  0.000000 ICntrl=     600 IOpCl=  0 I1Cent=           0 NGrid=           0
         NMat0=    1 NMatS0=  13203 NMatT0=    0 NMatD0=    1 NMtDS0=    0 NMtDT0=    0
 Symmetry not used in FoFCou.

 Cycle   1  Pass 1  IDiag  1:
 E= -1919.36565660992    
 DIIS: error= 1.71D-01 at cycle   1 NSaved=   1.
 NSaved= 1 IEnMin= 1 EnMin= -1919.36565660992     IErMin= 1 ErrMin= 1.71D-01
 ErrMax= 1.71D-01  0.00D+00 EMaxC= 1.00D-01 BMatC= 1.83D+01 BMatP= 1.83D+01
 IDIUse=3 WtCom= 0.00D+00 WtEn= 1.00D+00
 Coeff-Com:  0.100D+01
 Coeff-En:   0.100D+01
 Coeff:      0.100D+01
 Gap=    -0.002 Goal=   None    Shift=    0.000
 Gap=     0.045 Goal=   None    Shift=    0.000
 GapD=   -0.002 DampG=0.250 DampE=0.125 DampFc=0.1250 IDamp=-1.
 Damping current iteration by 1.25D-01
 RMSDP=4.82D-02 MaxDP=2.95D+00              OVMax= 9.89D-01

 Cycle   2  Pass 1  IDiag  1:
 E= -1919.52517404895     Delta-E=       -0.159517439034 Rises=F Damp=T
 DIIS: error= 1.49D-01 at cycle   2 NSaved=   2.
 NSaved= 2 IEnMin= 2 EnMin= -1919.52517404895     IErMin= 2 ErrMin= 1.49D-01
 ErrMax= 1.49D-01  0.00D+00 EMaxC= 1.00D-01 BMatC= 1.15D+01 BMatP= 1.83D+01
 IDIUse=3 WtCom= 0.00D+00 WtEn= 1.00D+00
 Coeff-Com: -0.121D+01 0.221D+01
 Coeff-En:   0.263D+00 0.737D+00
 Coeff:      0.263D+00 0.737D+00
 Gap=     0.002 Goal=   None    Shift=    0.000
 Gap=    -0.095 Goal=   None    Shift=    0.000
 RMSDP=7.88D-02 MaxDP=9.10D+00 DE=-1.60D-01 OVMax= 7.72D-01

 Cycle   3  Pass 1  IDiag  1:
 E= -1918.52383155387     Delta-E=        1.001342495081 Rises=F Damp=F
 DIIS: error= 1.26D-01 at cycle   3 NSaved=   3.
 NSaved= 3 IEnMin= 2 EnMin= -1919.52517404895     IErMin= 3 ErrMin= 1.26D-01
 ErrMax= 1.26D-01  0.00D+00 EMaxC= 1.00D-01 BMatC= 6.20D+00 BMatP= 1.15D+01
 IDIUse=3 WtCom= 0.00D+00 WtEn= 1.00D+00
 EnCoef did   100 forward-backward iterations
 Coeff-Com:  0.648D+00-0.404D+00 0.756D+00
 Coeff-En:   0.613D+00 0.185D-01 0.368D+00
 Coeff:      0.613D+00 0.185D-01 0.368D+00
 Gap=     0.002 Goal=   None    Shift=    0.000
 Gap=     0.316 Goal=   None    Shift=    0.000
 RMSDP=8.42D-02 MaxDP=9.87D+00 DE= 1.00D+00 OVMax= 9.72D-01

 Cycle   4  Pass 1  IDiag  1:
 E= -1919.65643393679     Delta-E=       -1.132602382919 Rises=F Damp=F
 DIIS: error= 8.75D-02 at cycle   4 NSaved=   4.
 NSaved= 4 IEnMin= 4 EnMin= -1919.65643393679     IErMin= 4 ErrMin= 8.75D-02
 ErrMax= 8.75D-02  0.00D+00 EMaxC= 1.00D-01 BMatC= 3.96D+00 BMatP= 6.20D+00
 IDIUse=3 WtCom= 1.25D-01 WtEn= 8.75D-01
 EnCoef did   100 forward-backward iterations
 Coeff-Com:  0.110D+01-0.109D+01 0.404D+00 0.589D+00
 Coeff-En:   0.417D+00 0.554D-02 0.176D+00 0.401D+00
 Coeff:      0.502D+00-0.132D+00 0.205D+00 0.425D+00
 Gap=     0.102 Goal=   None    Shift=    0.000
 Gap=     0.088 Goal=   None    Shift=    0.000
 RMSDP=1.04D-01 MaxDP=1.50D+01 DE=-1.13D+00 OVMax= 9.94D-01

 Cycle   5  Pass 1  IDiag  1:
 E= -1919.86777708436     Delta-E=       -0.211343147575 Rises=F Damp=F
 DIIS: error= 5.61D-02 at cycle   5 NSaved=   5.
 NSaved= 5 IEnMin= 5 EnMin= -1919.86777708436     IErMin= 5 ErrMin= 5.61D-02
 ErrMax= 5.61D-02  0.00D+00 EMaxC= 1.00D-01 BMatC= 1.97D+00 BMatP= 3.96D+00
 IDIUse=3 WtCom= 4.39D-01 WtEn= 5.61D-01
 Coeff-Com:  0.243D+00-0.189D+00 0.599D-01 0.421D+00 0.465D+00
 Coeff-En:   0.000D+00 0.000D+00 0.000D+00 0.437D+00 0.563D+00
 Coeff:      0.107D+00-0.830D-01 0.263D-01 0.430D+00 0.520D+00
 Gap=     0.106 Goal=   None    Shift=    0.000
 Gap=     0.117 Goal=   None    Shift=    0.000
 RMSDP=1.39D-02 MaxDP=1.70D+00 DE=-2.11D-01 OVMax= 6.21D-01

 Cycle   6  Pass 1  IDiag  1:
 E= -1920.11633164553     Delta-E=       -0.248554561169 Rises=F Damp=F
 DIIS: error= 4.63D-02 at cycle   6 NSaved=   6.
 NSaved= 6 IEnMin= 6 EnMin= -1920.11633164553     IErMin= 6 ErrMin= 4.63D-02
 ErrMax= 4.63D-02  0.00D+00 EMaxC= 1.00D-01 BMatC= 9.62D-01 BMatP= 1.97D+00
 IDIUse=3 WtCom= 5.37D-01 WtEn= 4.63D-01
 EnCoef did     8 forward-backward iterations
 Coeff-Com: -0.210D+00 0.270D+00-0.449D-01 0.159D+00 0.439D+00 0.386D+00
 Coeff-En:   0.000D+00 0.000D+00 0.000D+00 0.208D+00 0.380D+00 0.411D+00
 Coeff:     -0.113D+00 0.145D+00-0.241D-01 0.182D+00 0.412D+00 0.398D+00
 Gap=     0.020 Goal=   None    Shift=    0.000
 Gap=     0.101 Goal=   None    Shift=    0.000
 RMSDP=5.42D-03 MaxDP=4.17D-01 DE=-2.49D-01 OVMax= 4.17D-01

 Cycle   7  Pass 1  IDiag  1:
 E= -1920.28471681042     Delta-E=       -0.168385164890 Rises=F Damp=F
 DIIS: error= 1.77D-02 at cycle   7 NSaved=   7.
 NSaved= 7 IEnMin= 7 EnMin= -1920.28471681042     IErMin= 7 ErrMin= 1.77D-02
 ErrMax= 1.77D-02  0.00D+00 EMaxC= 1.00D-01 BMatC= 1.99D-01 BMatP= 9.62D-01
 IDIUse=3 WtCom= 8.23D-01 WtEn= 1.77D-01
 Coeff-Com:  0.247D-01-0.294D-01 0.452D-02 0.560D-01 0.105D+00 0.293D+00
 Coeff-Com:  0.546D+00
 Coeff-En:   0.000D+00 0.000D+00 0.000D+00 0.000D+00 0.000D+00 0.244D+00
 Coeff-En:   0.756D+00
 Coeff:      0.203D-01-0.242D-01 0.372D-02 0.461D-01 0.867D-01 0.284D+00
 Coeff:      0.583D+00
 Gap=     0.055 Goal=   None    Shift=    0.000
 Gap=     0.116 Goal=   None    Shift=    0.000
 RMSDP=3.48D-03 MaxDP=2.24D-01 DE=-1.68D-01 OVMax= 1.38D-01

 Cycle   8  Pass 1  IDiag  1:
 E= -1920.32367446960     Delta-E=       -0.038957659179 Rises=F Damp=F
 DIIS: error= 5.92D-03 at cycle   8 NSaved=   8.
 NSaved= 8 IEnMin= 8 EnMin= -1920.32367446960     IErMin= 8 ErrMin= 5.92D-03
 ErrMax= 5.92D-03  0.00D+00 EMaxC= 1.00D-01 BMatC= 2.27D-02 BMatP= 1.99D-01
 IDIUse=3 WtCom= 9.41D-01 WtEn= 5.92D-02
 Coeff-Com: -0.173D-01 0.199D-01-0.610D-02-0.895D-02-0.697D-02 0.664D-01
 Coeff-Com:  0.310D+00 0.643D+00
 Coeff-En:   0.000D+00 0.000D+00 0.000D+00 0.000D+00 0.000D+00 0.000D+00
 Coeff-En:   0.152D+00 0.848D+00
 Coeff:     -0.163D-01 0.187D-01-0.574D-02-0.842D-02-0.655D-02 0.625D-01
 Coeff:      0.301D+00 0.655D+00
 Gap=     0.065 Goal=   None    Shift=    0.000
 Gap=     0.115 Goal=   None    Shift=    0.000
 RMSDP=8.50D-04 MaxDP=8.90D-02 DE=-3.90D-02 OVMax= 3.80D-02

 Cycle   9  Pass 1  IDiag  1:
 E= -1920.32895288119     Delta-E=       -0.005278411584 Rises=F Damp=F
 DIIS: error= 1.24D-03 at cycle   9 NSaved=   9.
 NSaved= 9 IEnMin= 9 EnMin= -1920.32895288119     IErMin= 9 ErrMin= 1.24D-03
 ErrMax= 1.24D-03  0.00D+00 EMaxC= 1.00D-01 BMatC= 6.23D-04 BMatP= 2.27D-02
 IDIUse=3 WtCom= 9.88D-01 WtEn= 1.24D-02
 Coeff-Com:  0.271D-02-0.275D-02 0.353D-02-0.637D-04-0.116D-01-0.113D-01
 Coeff-Com: -0.155D-01 0.872D-01 0.948D+00
 Coeff-En:   0.000D+00 0.000D+00 0.000D+00 0.000D+00 0.000D+00 0.000D+00
 Coeff-En:   0.000D+00 0.000D+00 0.100D+01
 Coeff:      0.267D-02-0.271D-02 0.348D-02-0.629D-04-0.115D-01-0.111D-01
 Coeff:     -0.153D-01 0.862D-01 0.948D+00
 Gap=     0.066 Goal=   None    Shift=    0.000
 Gap=     0.117 Goal=   None    Shift=    0.000
 RMSDP=3.67D-04 MaxDP=3.55D-02 DE=-5.28D-03 OVMax= 9.56D-03

 Cycle  10  Pass 1  IDiag  1:
 E= -1920.32921065248     Delta-E=       -0.000257771294 Rises=F Damp=F
 DIIS: error= 5.62D-04 at cycle  10 NSaved=  10.
 NSaved=10 IEnMin=10 EnMin= -1920.32921065248     IErMin=10 ErrMin= 5.62D-04
 ErrMax= 5.62D-04  0.00D+00 EMaxC= 1.00D-01 BMatC= 9.34D-05 BMatP= 6.23D-04
 IDIUse=3 WtCom= 9.94D-01 WtEn= 5.62D-03
 Coeff-Com:  0.266D-02-0.309D-02 0.768D-03 0.123D-02-0.292D-04-0.706D-02
 Coeff-Com: -0.451D-01-0.506D-01 0.149D+00 0.952D+00
 Coeff-En:   0.000D+00 0.000D+00 0.000D+00 0.000D+00 0.000D+00 0.000D+00
 Coeff-En:   0.000D+00 0.000D+00 0.000D+00 0.100D+01
 Coeff:      0.265D-02-0.307D-02 0.763D-03 0.122D-02-0.290D-04-0.702D-02
 Coeff:     -0.448D-01-0.503D-01 0.149D+00 0.952D+00
 Gap=     0.067 Goal=   None    Shift=    0.000
 Gap=     0.118 Goal=   None    Shift=    0.000
 RMSDP=1.64D-04 MaxDP=1.23D-02 DE=-2.58D-04 OVMax= 4.68D-03

 Cycle  11  Pass 1  IDiag  1:
 E= -1920.32926734839     Delta-E=       -0.000056695912 Rises=F Damp=F
 DIIS: error= 3.02D-04 at cycle  11 NSaved=  11.
 NSaved=11 IEnMin=11 EnMin= -1920.32926734839     IErMin=11 ErrMin= 3.02D-04
 ErrMax= 3.02D-04  0.00D+00 EMaxC= 1.00D-01 BMatC= 2.28D-05 BMatP= 9.34D-05
 IDIUse=3 WtCom= 9.97D-01 WtEn= 3.02D-03
 Coeff-Com:  0.121D-02-0.143D-02-0.457D-03-0.889D-04 0.129D-02 0.943D-03
 Coeff-Com: -0.864D-02-0.180D-01-0.142D+00 0.895D-01 0.108D+01
 Coeff-En:   0.000D+00 0.000D+00 0.000D+00 0.000D+00 0.000D+00 0.000D+00
 Coeff-En:   0.000D+00 0.000D+00 0.000D+00 0.000D+00 0.100D+01
 Coeff:      0.121D-02-0.143D-02-0.455D-03-0.886D-04 0.128D-02 0.940D-03
 Coeff:     -0.861D-02-0.180D-01-0.141D+00 0.892D-01 0.108D+01
 Gap=     0.067 Goal=   None    Shift=    0.000
 Gap=     0.118 Goal=   None    Shift=    0.000
 RMSDP=8.53D-05 MaxDP=5.78D-03 DE=-5.67D-05 OVMax= 2.57D-03

 Cycle  12  Pass 1  IDiag  1:
 E= -1920.32927992209     Delta-E=       -0.000012573701 Rises=F Damp=F
 DIIS: error= 1.76D-04 at cycle  12 NSaved=  12.
 NSaved=12 IEnMin=12 EnMin= -1920.32927992209     IErMin=12 ErrMin= 1.76D-04
 ErrMax= 1.76D-04  0.00D+00 EMaxC= 1.00D-01 BMatC= 7.03D-06 BMatP= 2.28D-05
 IDIUse=3 WtCom= 9.98D-01 WtEn= 1.76D-03
 Coeff-Com:  0.125D-03-0.161D-03-0.294D-03-0.472D-03 0.807D-03 0.945D-03
 Coeff-Com:  0.146D-02 0.617D-02-0.301D-01-0.121D+00 0.166D+00 0.976D+00
 Coeff-En:   0.000D+00 0.000D+00 0.000D+00 0.000D+00 0.000D+00 0.000D+00
 Coeff-En:   0.000D+00 0.000D+00 0.000D+00 0.000D+00 0.000D+00 0.100D+01
 Coeff:      0.125D-03-0.161D-03-0.294D-03-0.472D-03 0.806D-03 0.944D-03
 Coeff:      0.146D-02 0.616D-02-0.301D-01-0.121D+00 0.166D+00 0.976D+00
 Gap=     0.067 Goal=   None    Shift=    0.000
 Gap=     0.118 Goal=   None    Shift=    0.000
 RMSDP=4.23D-05 MaxDP=2.55D-03 DE=-1.26D-05 OVMax= 9.37D-04

 Cycle  13  Pass 1  IDiag  1:
 E= -1920.32928214470     Delta-E=       -0.000002222610 Rises=F Damp=F
 DIIS: error= 4.79D-05 at cycle  13 NSaved=  13.
 NSaved=13 IEnMin=13 EnMin= -1920.32928214470     IErMin=13 ErrMin= 4.79D-05
 ErrMax= 4.79D-05  0.00D+00 EMaxC= 1.00D-01 BMatC= 5.34D-07 BMatP= 7.03D-06
 IDIUse=1 WtCom= 1.00D+00 WtEn= 0.00D+00
 Coeff-Com: -0.193D-03 0.222D-03-0.305D-04-0.111D-03 0.234D-03 0.318D-03
 Coeff-Com:  0.995D-03 0.478D-02 0.185D-01-0.428D-01-0.111D+00 0.221D+00
 Coeff-Com:  0.908D+00
 Coeff:     -0.193D-03 0.222D-03-0.305D-04-0.111D-03 0.234D-03 0.318D-03
 Coeff:      0.995D-03 0.478D-02 0.185D-01-0.428D-01-0.111D+00 0.221D+00
 Coeff:      0.908D+00
 Gap=     0.067 Goal=   None    Shift=    0.000
 Gap=     0.118 Goal=   None    Shift=    0.000
 RMSDP=1.81D-05 MaxDP=1.28D-03 DE=-2.22D-06 OVMax= 3.89D-04

 Cycle  14  Pass 1  IDiag  1:
 E= -1920.32928236669     Delta-E=       -0.000000221988 Rises=F Damp=F
 DIIS: error= 1.73D-05 at cycle  14 NSaved=  14.
 NSaved=14 IEnMin=14 EnMin= -1920.32928236669     IErMin=14 ErrMin= 1.73D-05
 ErrMax= 1.73D-05  0.00D+00 EMaxC= 1.00D-01 BMatC= 1.53D-07 BMatP= 5.34D-07
 IDIUse=1 WtCom= 1.00D+00 WtEn= 0.00D+00
 Coeff-Com: -0.727D-04 0.878D-04 0.430D-04 0.760D-04-0.106D-03 0.138D-03
 Coeff-Com:  0.377D-04-0.324D-03 0.121D-02 0.646D-02-0.144D-01-0.604D-01
 Coeff-Com:  0.104D+00 0.964D+00
 Coeff:     -0.727D-04 0.878D-04 0.430D-04 0.760D-04-0.106D-03 0.138D-03
 Coeff:      0.377D-04-0.324D-03 0.121D-02 0.646D-02-0.144D-01-0.604D-01
 Coeff:      0.104D+00 0.964D+00
 Gap=     0.067 Goal=   None    Shift=    0.000
 Gap=     0.118 Goal=   None    Shift=    0.000
 RMSDP=8.02D-06 MaxDP=5.77D-04 DE=-2.22D-07 OVMax= 1.90D-04

 Cycle  15  Pass 1  IDiag  1:
 E= -1920.32928241970     Delta-E=       -0.000000053008 Rises=F Damp=F
 DIIS: error= 1.03D-05 at cycle  15 NSaved=  15.
 NSaved=15 IEnMin=15 EnMin= -1920.32928241970     IErMin=15 ErrMin= 1.03D-05
 ErrMax= 1.03D-05  0.00D+00 EMaxC= 1.00D-01 BMatC= 5.22D-08 BMatP= 1.53D-07
 IDIUse=1 WtCom= 1.00D+00 WtEn= 0.00D+00
 Coeff-Com:  0.287D-04-0.320D-04 0.488D-05 0.403D-04-0.790D-04 0.255D-04
 Coeff-Com:  0.202D-04-0.403D-03-0.235D-02 0.548D-03 0.800D-02 0.982D-02
 Coeff-Com: -0.928D-01-0.321D+00 0.140D+01
 Coeff:      0.287D-04-0.320D-04 0.488D-05 0.403D-04-0.790D-04 0.255D-04
 Coeff:      0.202D-04-0.403D-03-0.235D-02 0.548D-03 0.800D-02 0.982D-02
 Coeff:     -0.928D-01-0.321D+00 0.140D+01
 Gap=     0.067 Goal=   None    Shift=    0.000
 Gap=     0.118 Goal=   None    Shift=    0.000
 RMSDP=4.05D-06 MaxDP=3.17D-04 DE=-5.30D-08 OVMax= 1.97D-04

 Cycle  16  Pass 1  IDiag  1:
 E= -1920.32928244340     Delta-E=       -0.000000023707 Rises=F Damp=F
 DIIS: error= 4.58D-06 at cycle  16 NSaved=  16.
 NSaved=16 IEnMin=16 EnMin= -1920.32928244340     IErMin=16 ErrMin= 4.58D-06
 ErrMax= 4.58D-06  0.00D+00 EMaxC= 1.00D-01 BMatC= 1.06D-08 BMatP= 5.22D-08
 IDIUse=1 WtCom= 1.00D+00 WtEn= 0.00D+00
 Coeff-Com:  0.250D-04-0.301D-04-0.380D-05 0.115D-04-0.175D-04-0.309D-05
 Coeff-Com: -0.140D-03 0.977D-05 0.111D-02 0.790D-03-0.539D-02 0.193D-02
 Coeff-Com: -0.305D-02-0.165D+00 0.130D+00 0.104D+01
 Coeff:      0.250D-04-0.301D-04-0.380D-05 0.115D-04-0.175D-04-0.309D-05
 Coeff:     -0.140D-03 0.977D-05 0.111D-02 0.790D-03-0.539D-02 0.193D-02
 Coeff:     -0.305D-02-0.165D+00 0.130D+00 0.104D+01
 Gap=     0.067 Goal=   None    Shift=    0.000
 Gap=     0.118 Goal=   None    Shift=    0.000
 RMSDP=1.86D-06 MaxDP=1.16D-04 DE=-2.37D-08 OVMax= 8.89D-05

 Cycle  17  Pass 1  IDiag  1:
 E= -1920.32928244895     Delta-E=       -0.000000005550 Rises=F Damp=F
 DIIS: error= 2.41D-06 at cycle  17 NSaved=  17.
 NSaved=17 IEnMin=17 EnMin= -1920.32928244895     IErMin=17 ErrMin= 2.41D-06
 ErrMax= 2.41D-06  0.00D+00 EMaxC= 1.00D-01 BMatC= 3.04D-09 BMatP= 1.06D-08
 IDIUse=1 WtCom= 1.00D+00 WtEn= 0.00D+00
 Coeff-Com:  0.110D-05-0.143D-05-0.949D-06-0.363D-05 0.985D-05 0.202D-06
 Coeff-Com: -0.125D-03 0.772D-04 0.904D-03 0.108D-02-0.344D-02-0.516D-02
 Coeff-Com:  0.238D-01 0.778D-01-0.366D+00 0.110D-01 0.126D+01
 Coeff:      0.110D-05-0.143D-05-0.949D-06-0.363D-05 0.985D-05 0.202D-06
 Coeff:     -0.125D-03 0.772D-04 0.904D-03 0.108D-02-0.344D-02-0.516D-02
 Coeff:      0.238D-01 0.778D-01-0.366D+00 0.110D-01 0.126D+01
 Gap=     0.067 Goal=   None    Shift=    0.000
 Gap=     0.118 Goal=   None    Shift=    0.000
 RMSDP=1.48D-06 MaxDP=1.09D-04 DE=-5.55D-09 OVMax= 6.29D-05

 Cycle  18  Pass 1  IDiag  1:
 E= -1920.32928245106     Delta-E=       -0.000000002106 Rises=F Damp=F
 DIIS: error= 5.02D-07 at cycle  18 NSaved=  18.
 NSaved=18 IEnMin=18 EnMin= -1920.32928245106     IErMin=18 ErrMin= 5.02D-07
 ErrMax= 5.02D-07  0.00D+00 EMaxC= 1.00D-01 BMatC= 2.45D-10 BMatP= 3.04D-09
 IDIUse=1 WtCom= 1.00D+00 WtEn= 0.00D+00
 Coeff-Com: -0.532D-05 0.651D-05 0.854D-06-0.545D-05 0.989D-05 0.106D-05
 Coeff-Com: -0.374D-04 0.168D-04-0.112D-04 0.371D-03 0.553D-03-0.203D-02
 Coeff-Com:  0.899D-02 0.664D-01-0.190D+00-0.256D+00 0.550D+00 0.822D+00
 Coeff:     -0.532D-05 0.651D-05 0.854D-06-0.545D-05 0.989D-05 0.106D-05
 Coeff:     -0.374D-04 0.168D-04-0.112D-04 0.371D-03 0.553D-03-0.203D-02
 Coeff:      0.899D-02 0.664D-01-0.190D+00-0.256D+00 0.550D+00 0.822D+00
 Gap=     0.067 Goal=   None    Shift=    0.000
 Gap=     0.118 Goal=   None    Shift=    0.000
 RMSDP=7.15D-07 MaxDP=7.11D-05 DE=-2.11D-09 OVMax= 2.89D-05

 Cycle  19  Pass 1  IDiag  1:
 E= -1920.32928245136     Delta-E=       -0.000000000300 Rises=F Damp=F
 DIIS: error= 3.08D-07 at cycle  19 NSaved=  19.
 NSaved=19 IEnMin=19 EnMin= -1920.32928245136     IErMin=19 ErrMin= 3.08D-07
 ErrMax= 3.08D-07  0.00D+00 EMaxC= 1.00D-01 BMatC= 5.96D-11 BMatP= 2.45D-10
 IDIUse=1 WtCom= 1.00D+00 WtEn= 0.00D+00
 Coeff-Com: -0.307D-05 0.368D-05 0.795D-06-0.242D-05 0.362D-05 0.670D-07
 Coeff-Com:  0.116D-04-0.192D-04-0.240D-03-0.132D-03 0.125D-02 0.759D-03
 Coeff-Com: -0.209D-02 0.391D-02 0.647D-02-0.807D-01-0.718D-01 0.285D+00
 Coeff-Com:  0.858D+00
 Coeff:     -0.307D-05 0.368D-05 0.795D-06-0.242D-05 0.362D-05 0.670D-07
 Coeff:      0.116D-04-0.192D-04-0.240D-03-0.132D-03 0.125D-02 0.759D-03
 Coeff:     -0.209D-02 0.391D-02 0.647D-02-0.807D-01-0.718D-01 0.285D+00
 Coeff:      0.858D+00
 Gap=     0.067 Goal=   None    Shift=    0.000
 Gap=     0.118 Goal=   None    Shift=    0.000
 RMSDP=1.98D-07 MaxDP=1.97D-05 DE=-3.00D-10 OVMax= 1.01D-05

 Cycle  20  Pass 1  IDiag  1:
 E= -1920.32928245140     Delta-E=       -0.000000000044 Rises=F Damp=F
 DIIS: error= 1.58D-07 at cycle  20 NSaved=  20.
 NSaved=20 IEnMin=20 EnMin= -1920.32928245140     IErMin=20 ErrMin= 1.58D-07
 ErrMax= 1.58D-07  0.00D+00 EMaxC= 1.00D-01 BMatC= 1.04D-11 BMatP= 5.96D-11
 IDIUse=1 WtCom= 1.00D+00 WtEn= 0.00D+00
 Coeff-Com: -0.261D-06 0.216D-06-0.395D-08 0.136D-07-0.112D-06 0.130D-06
 Coeff-Com:  0.907D-05-0.666D-05-0.233D-04-0.132D-03 0.140D-03 0.599D-03
 Coeff-Com: -0.127D-02-0.107D-01 0.267D-01 0.388D-01-0.920D-01-0.112D+00
 Coeff-Com:  0.971D-01 0.105D+01
 Coeff:     -0.261D-06 0.216D-06-0.395D-08 0.136D-07-0.112D-06 0.130D-06
 Coeff:      0.907D-05-0.666D-05-0.233D-04-0.132D-03 0.140D-03 0.599D-03
 Coeff:     -0.127D-02-0.107D-01 0.267D-01 0.388D-01-0.920D-01-0.112D+00
 Coeff:      0.971D-01 0.105D+01
 Gap=     0.067 Goal=   None    Shift=    0.000
 Gap=     0.118 Goal=   None    Shift=    0.000
 RMSDP=4.26D-08 MaxDP=3.13D-06 DE=-4.41D-11 OVMax= 3.46D-06

 Cycle  21  Pass 1  IDiag  1:
 E= -1920.32928245142     Delta-E=       -0.000000000018 Rises=F Damp=F
 DIIS: error= 8.27D-08 at cycle  21 NSaved=  20.
 NSaved=20 IEnMin=20 EnMin= -1920.32928245142     IErMin=20 ErrMin= 8.27D-08
 ErrMax= 8.27D-08  0.00D+00 EMaxC= 1.00D-01 BMatC= 1.18D-12 BMatP= 1.04D-11
 IDIUse=1 WtCom= 1.00D+00 WtEn= 0.00D+00
 Coeff-Com:  0.382D-06-0.418D-06 0.235D-06-0.638D-06-0.146D-06 0.477D-06
 Coeff-Com:  0.480D-05 0.242D-04-0.317D-06-0.102D-03-0.112D-03 0.486D-03
 Coeff-Com:  0.384D-03-0.385D-02 0.362D-02 0.150D-01-0.179D-01-0.961D-01
 Coeff-Com: -0.740D-01 0.117D+01
 Coeff:      0.382D-06-0.418D-06 0.235D-06-0.638D-06-0.146D-06 0.477D-06
 Coeff:      0.480D-05 0.242D-04-0.317D-06-0.102D-03-0.112D-03 0.486D-03
 Coeff:      0.384D-03-0.385D-02 0.362D-02 0.150D-01-0.179D-01-0.961D-01
 Coeff:     -0.740D-01 0.117D+01
 Gap=     0.067 Goal=   None    Shift=    0.000
 Gap=     0.118 Goal=   None    Shift=    0.000
 RMSDP=3.13D-08 MaxDP=4.11D-06 DE=-1.77D-11 OVMax= 1.75D-06

 Cycle  22  Pass 1  IDiag  1:
 E= -1920.32928245140     Delta-E=        0.000000000018 Rises=F Damp=F
 DIIS: error= 3.55D-08 at cycle  22 NSaved=  20.
 NSaved=20 IEnMin=19 EnMin= -1920.32928245142     IErMin=20 ErrMin= 3.55D-08
 ErrMax= 3.55D-08  0.00D+00 EMaxC= 1.00D-01 BMatC= 5.72D-13 BMatP= 1.18D-12
 IDIUse=1 WtCom= 1.00D+00 WtEn= 0.00D+00
 Coeff-Com:  0.649D-08-0.148D-07 0.547D-07-0.321D-06-0.841D-06 0.104D-05
 Coeff-Com:  0.568D-05 0.385D-04-0.676D-04-0.194D-03 0.163D-03 0.182D-02
 Coeff-Com: -0.265D-02-0.348D-02 0.107D-01 0.117D-01-0.167D-01-0.169D+00
 Coeff-Com: -0.178D+00 0.135D+01
 Coeff:      0.649D-08-0.148D-07 0.547D-07-0.321D-06-0.841D-06 0.104D-05
 Coeff:      0.568D-05 0.385D-04-0.676D-04-0.194D-03 0.163D-03 0.182D-02
 Coeff:     -0.265D-02-0.348D-02 0.107D-01 0.117D-01-0.167D-01-0.169D+00
 Coeff:     -0.178D+00 0.135D+01
 Gap=     0.067 Goal=   None    Shift=    0.000
 Gap=     0.118 Goal=   None    Shift=    0.000
 RMSDP=2.08D-08 MaxDP=1.44D-06 DE= 1.82D-11 OVMax= 1.08D-06

 Cycle  23  Pass 1  IDiag  1:
 E= -1920.32928245142     Delta-E=       -0.000000000018 Rises=F Damp=F
 DIIS: error= 8.85D-09 at cycle  23 NSaved=  20.
 NSaved=20 IEnMin=18 EnMin= -1920.32928245142     IErMin=20 ErrMin= 8.85D-09
 ErrMax= 8.85D-09  0.00D+00 EMaxC= 1.00D-01 BMatC= 3.71D-14 BMatP= 5.72D-13
 IDIUse=1 WtCom= 1.00D+00 WtEn= 0.00D+00
 Coeff-Com: -0.226D-07 0.847D-07-0.234D-07-0.252D-06-0.110D-05-0.442D-05
 Coeff-Com:  0.233D-05 0.232D-04-0.130D-04-0.900D-04 0.202D-03-0.633D-04
 Coeff-Com: -0.120D-02 0.909D-03 0.371D-02 0.485D-02-0.178D-01-0.126D+00
 Coeff-Com:  0.263D-01 0.111D+01
 Coeff:     -0.226D-07 0.847D-07-0.234D-07-0.252D-06-0.110D-05-0.442D-05
 Coeff:      0.233D-05 0.232D-04-0.130D-04-0.900D-04 0.202D-03-0.633D-04
 Coeff:     -0.120D-02 0.909D-03 0.371D-02 0.485D-02-0.178D-01-0.126D+00
 Coeff:      0.263D-01 0.111D+01
 Gap=     0.067 Goal=   None    Shift=    0.000
 Gap=     0.118 Goal=   None    Shift=    0.000
 RMSDP=1.33D-08 MaxDP=1.54D-06 DE=-1.82D-11 OVMax= 4.05D-07

 Cycle  24  Pass 1  IDiag  1:
 E= -1920.32928245141     Delta-E=        0.000000000008 Rises=F Damp=F
 DIIS: error= 5.79D-09 at cycle  24 NSaved=  20.
 NSaved=20 IEnMin=17 EnMin= -1920.32928245142     IErMin=20 ErrMin= 5.79D-09
 ErrMax= 5.79D-09  0.00D+00 EMaxC= 1.00D-01 BMatC= 1.86D-14 BMatP= 3.71D-14
 IDIUse=1 WtCom= 1.00D+00 WtEn= 0.00D+00
 Large coefficients: NSaved= 20 BigCof=    0.00 CofMax=   10.00 Det=-1.31D-14
 Inversion failed.  Reducing to 19 matrices.
 Coeff-Com:  0.123D-07 0.176D-06-0.529D-06-0.241D-05-0.555D-05 0.201D-04
 Coeff-Com:  0.164D-04-0.794D-04-0.207D-03 0.626D-03-0.831D-04-0.142D-02
 Coeff-Com: -0.634D-03 0.264D-02 0.180D-01 0.177D-01-0.232D+00 0.334D+00
 Coeff-Com:  0.861D+00
 Coeff:      0.123D-07 0.176D-06-0.529D-06-0.241D-05-0.555D-05 0.201D-04
 Coeff:      0.164D-04-0.794D-04-0.207D-03 0.626D-03-0.831D-04-0.142D-02
 Coeff:     -0.634D-03 0.264D-02 0.180D-01 0.177D-01-0.232D+00 0.334D+00
 Coeff:      0.861D+00
 Gap=     0.067 Goal=   None    Shift=    0.000
 Gap=     0.118 Goal=   None    Shift=    0.000
 RMSDP=5.08D-09 MaxDP=5.67D-07 DE= 8.19D-12 OVMax= 1.02D-07

 SCF Done:  E(UB971) =  -1920.32928245     A.U. after   24 cycles
            NFock= 24  Conv=0.51D-08     -V/T= 2.0015
 <Sx>= 0.0000 <Sy>= 0.0000 <Sz>= 1.0000 <S**2>= 2.0395 S= 1.0131
 <L.S>= 0.000000000000E+00
 KE= 1.917406262136D+03 PE=-5.410949428742D+03 EE= 1.156371249379D+03
 Annihilation of the first spin contaminant:
 S**2 before annihilation     2.0395,   after     2.0004
 Leave Link  502 at Fri Feb 20 15:22:17 2015, MaxMem=   524288000 cpu:       200.5
 (Enter /opt/g09/l508.exe)
 QCSCF skips out because SCF is already converged.
 Leave Link  508 at Fri Feb 20 15:22:17 2015, MaxMem=   524288000 cpu:         0.0
 (Enter /opt/g09/l801.exe)
 DoSCS=F DFT=T ScalE2(SS,OS)=  1.000000  1.000000
 Range of M.O.s used for correlation:     1   162
 NBasis=   162 NAE=    38 NBE=    36 NFC=     0 NFV=     0
 NROrb=    162 NOA=    38 NOB=    36 NVA=   124 NVB=   126

 **** Warning!!: The smallest alpha delta epsilon is  0.67309267D-01


 **** Warning!!: The largest beta MO coefficient is  0.11188057D+02

 Leave Link  801 at Fri Feb 20 15:22:17 2015, MaxMem=   524288000 cpu:         0.3
 (Enter /opt/g09/l1101.exe)
 Using compressed storage, NAtomX=     5.
 Will process      6 centers per pass.
 Leave Link 1101 at Fri Feb 20 15:22:18 2015, MaxMem=   524288000 cpu:         2.4
 (Enter /opt/g09/l1102.exe)
 Symmetrizing basis deriv contribution to polar:
 IMax=3 JMax=2 DiffMx= 0.00D+00
 Leave Link 1102 at Fri Feb 20 15:22:18 2015, MaxMem=   524288000 cpu:         0.6
 (Enter /opt/g09/l1110.exe)
 Forming Gx(P) for the SCF density, NAtomX=     5.
 Integral derivatives from FoFJK, PRISM(SPDF).
 Do as many integral derivatives as possible in FoFJK.
 G2DrvN: MDV=     524287856.
 G2DrvN: will do     6 centers at a time, making    1 passes.
 Calling FoFCou, ICntrl=  3107 FMM=F I1Cent=   0 AccDes= 0.00D+00.
 FoFJK:  IHMeth= 1 ICntrl=    3107 DoSepK=F KAlg= 0 I1Cent=   0 FoldK=F
 IRaf=         0 NMat=   1 IRICut=       1 DoRegI=T DoRafI=F ISym2E= 0.
 FoFCou: FMM=F IPFlag=           0 FMFlag=      100000 FMFlg1=           0
         NFxFlg=           0 DoJE=F BraDBF=F KetDBF=F FulRan=T
         wScrn=  0.000000 ICntrl=    3107 IOpCl=  1 I1Cent=           0 NGrid=           0
         NMat0=    1 NMatS0=      1 NMatT0=    0 NMatD0=    1 NMtDS0=    0 NMtDT0=    0
 Symmetry not used in FoFCou.
 End of G2Drv F.D. properties file   721 does not exist.
 End of G2Drv F.D. properties file   722 does not exist.
 End of G2Drv F.D. properties file   788 does not exist.
 Leave Link 1110 at Fri Feb 20 15:22:37 2015, MaxMem=   524288000 cpu:       150.7
 (Enter /opt/g09/l1002.exe)
 Minotr:  UHF open shell wavefunction.
          IDoAtm=11111
          Direct CPHF calculation.
          Differentiating once with respect to electric field.
                with respect to dipole field.
          Differentiating once with respect to nuclear coordinates.
          Requested convergence is 1.0D-08 RMS, and 1.0D-07 maximum.
          Secondary convergence is 1.0D-12 RMS, and 1.0D-12 maximum.
          NewPWx=T KeepS1=F KeepF1=F KeepIn=T MapXYZ=F SortEE=F KeepMc=T.
          MDV=     524287622 using IRadAn=       1.
 Generate precomputed XC quadrature information.
 Keep R1 and R2 ints in memory in canonical form, NReq=176969536.
 FoFCou: FMM=F IPFlag=           0 FMFlag=           0 FMFlg1=           0
         NFxFlg=           0 DoJE=F BraDBF=F KetDBF=F FulRan=T
         wScrn=  0.000000 ICntrl=     600 IOpCl=  0 I1Cent=           0 NGrid=           0
         NMat0=    1 NMatS0=  13203 NMatT0=    0 NMatD0=    1 NMtDS0=    0 NMtDT0=    0
 Symmetry not used in FoFCou.
          Solving linear equations simultaneously, MaxMat=       0.
          There are    18 degrees of freedom in the 1st order CPHF.  IDoFFX=6 NUNeed=     3.
     15 vectors produced by pass  0 Test12= 5.14D-14 5.56D-09 XBig12= 1.10D+03 2.15D+01.
 AX will form    15 AO Fock derivatives at one time.
     15 vectors produced by pass  1 Test12= 5.14D-14 5.56D-09 XBig12= 1.56D+03 1.62D+01.
     15 vectors produced by pass  2 Test12= 5.14D-14 5.56D-09 XBig12= 1.41D+02 2.96D+00.
     15 vectors produced by pass  3 Test12= 5.14D-14 5.56D-09 XBig12= 9.02D+00 7.83D-01.
     15 vectors produced by pass  4 Test12= 5.14D-14 5.56D-09 XBig12= 3.39D-01 1.49D-01.
     15 vectors produced by pass  5 Test12= 5.14D-14 5.56D-09 XBig12= 6.67D-03 1.94D-02.
     15 vectors produced by pass  6 Test12= 5.14D-14 5.56D-09 XBig12= 1.08D-04 2.54D-03.
     15 vectors produced by pass  7 Test12= 5.14D-14 5.56D-09 XBig12= 1.52D-06 1.87D-04.
     10 vectors produced by pass  8 Test12= 5.14D-14 5.56D-09 XBig12= 2.09D-08 2.85D-05.
      4 vectors produced by pass  9 Test12= 5.14D-14 5.56D-09 XBig12= 1.65D-10 1.64D-06.
      3 vectors produced by pass 10 Test12= 5.14D-14 5.56D-09 XBig12= 1.16D-12 1.89D-07.
      2 vectors produced by pass 11 Test12= 5.14D-14 5.56D-09 XBig12= 1.20D-14 1.45D-08.
 InvSVY:  IOpt=1 It=  1 EMax= 2.00D-15
 Solved reduced A of dimension   139 with    15 vectors.
 FullF1:  Do perturbations    1 to     3.
 Isotropic polarizability for W=    0.000000      356.77 Bohr**3.
 End of Minotr F.D. properties file   721 does not exist.
 End of Minotr F.D. properties file   722 does not exist.
 End of Minotr F.D. properties file   788 does not exist.
 Leave Link 1002 at Fri Feb 20 15:23:20 2015, MaxMem=   524288000 cpu:       345.2
 (Enter /opt/g09/l701.exe)
 Compute integral second derivatives.
 ... and contract with generalized density number  0.
 Leave Link  701 at Fri Feb 20 15:23:21 2015, MaxMem=   524288000 cpu:         4.2
 (Enter /opt/g09/l702.exe)
 L702 exits ... SP integral derivatives will be done elsewhere.
 Leave Link  702 at Fri Feb 20 15:23:21 2015, MaxMem=   524288000 cpu:         0.3
 (Enter /opt/g09/l703.exe)
 Compute integral second derivatives, UseDBF=F ICtDFT=           0.
 Integral derivatives from FoFJK, PRISM(SPDF).
 Calling FoFJK, ICntrl=    100127 FMM=F ISym2X=0 I1Cent= 0 IOpClX= 1 NMat=1 NMatS=1 NMatT=0.
 FoFJK:  IHMeth= 1 ICntrl=  100127 DoSepK=F KAlg= 0 I1Cent=   0 FoldK=F
 IRaf=         0 NMat=   1 IRICut=       1 DoRegI=T DoRafI=F ISym2E= 0.
 FoFCou: FMM=F IPFlag=           0 FMFlag=      100000 FMFlg1=         800
         NFxFlg=           0 DoJE=F BraDBF=F KetDBF=F FulRan=T
         wScrn=  0.000000 ICntrl=  100127 IOpCl=  1 I1Cent=           0 NGrid=           0
         NMat0=    1 NMatS0=      1 NMatT0=    0 NMatD0=    1 NMtDS0=    0 NMtDT0=    0
 Symmetry not used in FoFCou.
 Leave Link  703 at Fri Feb 20 15:24:05 2015, MaxMem=   524288000 cpu:       349.5
 (Enter /opt/g09/l716.exe)
 Dipole        = 4.04008917D+00-5.82282559D-01 1.49951817D-01
 Polarizability= 2.97476311D+02-7.08998457D+00 3.46424691D+02
                -1.63215348D+01 8.06194009D+00 4.26417911D+02
 -------------------------------------------------------------------
 Center     Atomic                   Forces (Hartrees/Bohr)
 Number     Number              X              Y              Z
 -------------------------------------------------------------------
      1        8          -0.000001739    0.000002010   -0.000003614
      2       17           0.000005733   -0.000001177    0.000000006
      3       22           0.000000329    0.000000212    0.000000454
      4        8          -0.000001798   -0.000000699    0.000001756
      5       17          -0.000002525   -0.000000345    0.000001398
 -------------------------------------------------------------------
 Cartesian Forces:  Max     0.000005733 RMS     0.000002160
 Force constants in Cartesian coordinates: 
                1             2             3             4             5 
      1  0.971168D-01
      2 -0.339457D-01  0.257063D-01
      3 -0.553715D-01  0.230878D-01  0.487500D-01
      4  0.515554D-04 -0.175892D-02  0.427188D-02  0.529522D-02
      5 -0.471710D-02  0.352983D-02  0.299126D-03  0.147342D-02  0.187842D-01
      6  0.852609D-02 -0.253533D-02 -0.468990D-02 -0.419408D-02 -0.302890D-01
      7 -0.537183D-02  0.824608D-02  0.112320D-01 -0.773649D-02 -0.194830D-02
      8  0.938402D-01 -0.510914D-01 -0.548423D-01 -0.121988D-02 -0.261253D-01
      9  0.138114D+00 -0.498701D-01 -0.989844D-01  0.392084D-02  0.263355D-01
     10 -0.910220D-01  0.228989D-01  0.394571D-01  0.186218D-02  0.536537D-02
     11 -0.647715D-01  0.237756D-01  0.368956D-01  0.199768D-02  0.629951D-02
     12 -0.902424D-01  0.316851D-01  0.534581D-01 -0.354659D-02  0.116091D-02
     13 -0.774494D-03  0.455964D-02  0.410561D-03  0.527537D-03 -0.173376D-03
     14  0.959406D-02 -0.192043D-02 -0.544023D-02 -0.492302D-03 -0.248815D-02
     15 -0.102627D-02 -0.236744D-02  0.146626D-02 -0.452053D-03  0.249348D-02
                6             7             8             9            10 
      6  0.819027D-01
      7  0.520059D-02  0.483308D-01
      8  0.315090D-01 -0.179405D-01  0.242457D+00
      9 -0.693216D-01 -0.178913D-01  0.104924D+00  0.325514D+00
     10 -0.873839D-02 -0.263484D-01 -0.836766D-01 -0.123336D+00  0.112820D+00
     11 -0.550324D-02  0.100389D-02 -0.824900D-01 -0.896751D-01  0.655496D-01
     12 -0.912220D-02  0.203709D-02 -0.846337D-01 -0.146150D+00  0.906296D-01
     13 -0.794208D-03 -0.887414D-02  0.899681D-02 -0.807145D-03  0.268854D-02
     14  0.681858D-02  0.106389D-01 -0.827506D-01  0.828550D-02 -0.101373D-01
     15  0.123095D-02 -0.578373D-03  0.304271D-02 -0.110580D-01  0.198822D-02
               11            12            13            14            15 
     11  0.585476D-01
     12  0.615669D-01  0.995035D-01
     13 -0.377972D-02  0.112232D-02  0.643255D-02
     14 -0.613271D-02 -0.977927D-02 -0.960335D-02  0.932919D-01
     15 -0.328418D-02  0.231018D-02  0.684719D-04  0.115422D-03  0.605066D-02
 FormGI is forming the generalized inverse of G from B-inverse, IUseBI=4.
 Force constants in internal coordinates: 
                1             2             3             4             5 
      1  0.146671D+00
      2  0.112698D-01  0.943024D-01
      3  0.168129D+00  0.153248D-01  0.241085D+00
      4  0.112666D-01  0.730804D-02  0.153174D-01  0.943350D-01
      5  0.156885D-02 -0.583880D-03 -0.281113D-02  0.230787D-03  0.117147D-01
      6 -0.107591D-01  0.378834D-03  0.103218D-01  0.144945D-02 -0.414079D-02
      7  0.536340D-02  0.868540D-04 -0.672922D-02 -0.747687D-03 -0.782209D-02
      8 -0.101976D-02 -0.141546D-02 -0.169907D-02  0.105068D-02 -0.121819D-02
      9  0.651323D-03  0.604935D-03  0.551586D-02  0.548542D-03 -0.763309D-02
     10  0.315018D-02  0.843279D-03 -0.479913D-02 -0.250536D-02  0.102069D-01
     11  0.413765D-02  0.915911D-03 -0.163704D-02 -0.134925D-02 -0.107070D-01
     12  0.669494D-02 -0.233379D-03 -0.456069D-02  0.162190D-03  0.355033D-02
     13  0.835695D-02 -0.973000D-03 -0.615557D-02  0.326733D-04  0.379049D-02
     14  0.166201D-02 -0.739621D-03 -0.159488D-02 -0.129517D-03  0.240163D-03
                6             7             8             9            10 
      6  0.278040D-01
      7 -0.148779D-01  0.403141D-01
      8  0.263440D-02  0.110694D-01  0.305169D-01
      9  0.112212D-01 -0.176394D-01 -0.145500D-01  0.346403D-01
     10 -0.223972D-01 -0.864877D-02 -0.253105D-01 -0.118919D-01  0.581872D-01
     11 -0.105946D-01  0.130309D-01 -0.974340D-02  0.745547D-02  0.817572D-02
     12 -0.809835D-02  0.671538D-02 -0.451987D-02  0.348584D-02 -0.241176D-02
     13 -0.131874D-01  0.337097D-03  0.453465D-02  0.274419D-02  0.668997D-04
     14 -0.508908D-02 -0.637828D-02  0.905452D-02 -0.741652D-03  0.247866D-02
               11            12            13            14 
     11  0.207209D-01
     12  0.163444D-02  0.125723D-01
     13  0.111111D-02  0.742502D-02  0.158128D-01
     14 -0.523327D-03 -0.514725D-02  0.838780D-02  0.135350D-01
 Leave Link  716 at Fri Feb 20 15:24:05 2015, MaxMem=   524288000 cpu:         0.3
 (Enter /opt/g09/l103.exe)

 GradGradGradGradGradGradGradGradGradGradGradGradGradGradGradGradGradGrad
 Berny optimization.
 Red2BG is reusing G-inverse.
 Internal  Forces:  Max     0.000000300 RMS     0.000000184
 Search for a local minimum.
 Step number   1 out of a maximum of   24
 All quantities printed in internal units (Hartrees-Bohrs-Radians)
 RMS Force = .18435D-06 SwitMx=.10000D-02 MixMth= 2
 Mixed Optimization -- En-DIIS/RFO-DIIS
 Second derivative matrix not updated -- analytic derivatives used.
 The second derivative matrix:
                          R1        R2        R3        R4        A1
           R1           0.14667
           R2           0.01127   0.09430
           R3           0.16813   0.01532   0.24108
           R4           0.01127   0.00731   0.01532   0.09433
           A1           0.00157  -0.00058  -0.00281   0.00023   0.01171
           A2          -0.01076   0.00038   0.01032   0.00145  -0.00414
           A3           0.00536   0.00009  -0.00673  -0.00075  -0.00782
           A4          -0.00102  -0.00142  -0.00170   0.00105  -0.00122
           A5           0.00065   0.00060   0.00552   0.00055  -0.00763
           A6           0.00315   0.00084  -0.00480  -0.00251   0.01021
           D1           0.00414   0.00092  -0.00164  -0.00135  -0.01071
           D2           0.00669  -0.00023  -0.00456   0.00016   0.00355
           D3           0.00836  -0.00097  -0.00616   0.00003   0.00379
           D4           0.00166  -0.00074  -0.00159  -0.00013   0.00024
                          A2        A3        A4        A5        A6
           A2           0.02780
           A3          -0.01488   0.04031
           A4           0.00263   0.01107   0.03052
           A5           0.01122  -0.01764  -0.01455   0.03464
           A6          -0.02240  -0.00865  -0.02531  -0.01189   0.05819
           D1          -0.01059   0.01303  -0.00974   0.00746   0.00818
           D2          -0.00810   0.00672  -0.00452   0.00349  -0.00241
           D3          -0.01319   0.00034   0.00453   0.00274   0.00007
           D4          -0.00509  -0.00638   0.00905  -0.00074   0.00248
                          D1        D2        D3        D4
           D1           0.02072
           D2           0.00163   0.01257
           D3           0.00111   0.00743   0.01581
           D4          -0.00052  -0.00515   0.00839   0.01354
 ITU=  0
     Eigenvalues ---    0.00734   0.02414   0.03916   0.04961   0.07462
     Eigenvalues ---    0.08539   0.09137   0.09925   0.37133
 RFO step:  Lambda= 0.00000000D+00 EMin= 7.33655139D-03
 Linear search not attempted -- first point.
 Iteration  1 RMS(Cart)=  0.00001558 RMS(Int)=  0.00000000
 Iteration  2 RMS(Cart)=  0.00000000 RMS(Int)=  0.00000000
 ITry= 1 IFail=0 DXMaxC= 4.10D-05 DCOld= 1.00D+10 DXMaxT= 3.00D-01 DXLimC= 3.00D+00 Rises=F
 Variable       Old X    -DE/DX   Delta X   Delta X   Delta X     New X
                                 (Linear)    (Quad)   (Total)
    R1        3.31057   0.00000   0.00000   0.00004   0.00004   3.31061
    R2        4.40479   0.00000   0.00000   0.00000   0.00000   4.40478
    R3        3.17147   0.00000   0.00000  -0.00003  -0.00003   3.17144
    R4        4.40482   0.00000   0.00000   0.00000   0.00000   4.40482
    A1        1.95926   0.00000   0.00000  -0.00001  -0.00001   1.95925
    A2        1.66545   0.00000   0.00000   0.00002   0.00002   1.66547
    A3        1.95891   0.00000   0.00000   0.00000   0.00000   1.95890
    A4        1.96842   0.00000   0.00000   0.00000   0.00000   1.96842
    A5        1.93061   0.00000   0.00000  -0.00001  -0.00001   1.93060
    A6        1.96857   0.00000   0.00000   0.00000   0.00000   1.96858
    D1       -2.04040   0.00000   0.00000   0.00000   0.00000  -2.04040
    D2        2.20309   0.00000   0.00000  -0.00002  -0.00002   2.20307
    D3       -1.85724   0.00000   0.00000  -0.00002  -0.00002  -1.85726
    D4        2.22286   0.00000   0.00000   0.00000   0.00000   2.22285
         Item               Value     Threshold  Converged?
 Maximum Force            0.000000     0.000015     YES
 RMS     Force            0.000000     0.000010     YES
 Maximum Displacement     0.000041     0.000060     YES
 RMS     Displacement     0.000016     0.000040     YES
 Predicted change in Energy=-1.838373D-11
 Optimization completed.
    -- Stationary point found.
                           ----------------------------
                           !   Optimized Parameters   !
                           ! (Angstroms and Degrees)  !
 --------------------------                            --------------------------
 ! Name  Definition              Value          Derivative Info.                !
 --------------------------------------------------------------------------------
 ! R1    R(1,3)                  1.7519         -DE/DX =    0.0                 !
 ! R2    R(2,3)                  2.3309         -DE/DX =    0.0                 !
 ! R3    R(3,4)                  1.6783         -DE/DX =    0.0                 !
 ! R4    R(3,5)                  2.3309         -DE/DX =    0.0                 !
 ! A1    A(1,3,2)              112.2571         -DE/DX =    0.0                 !
 ! A2    A(1,3,4)               95.4233         -DE/DX =    0.0                 !
 ! A3    A(1,3,5)              112.237          -DE/DX =    0.0                 !
 ! A4    A(2,3,4)              112.7822         -DE/DX =    0.0                 !
 ! A5    A(2,3,5)              110.6157         -DE/DX =    0.0                 !
 ! A6    A(4,3,5)              112.7909         -DE/DX =    0.0                 !
 ! D1    D(1,3,4,2)           -116.9064         -DE/DX =    0.0                 !
 ! D2    D(1,3,5,2)            126.2278         -DE/DX =    0.0                 !
 ! D3    D(1,3,5,4)           -106.4119         -DE/DX =    0.0                 !
 ! D4    D(2,3,5,4)            127.3603         -DE/DX =    0.0                 !
 --------------------------------------------------------------------------------
 Lowest energy point so far.  Saving SCF results.
 GradGradGradGradGradGradGradGradGradGradGradGradGradGradGradGradGradGrad

 Largest change from initial coordinates is atom    0       0.000 Angstoms.
 Leave Link  103 at Fri Feb 20 15:24:05 2015, MaxMem=   524288000 cpu:         0.2
 (Enter /opt/g09/l202.exe)
                          Input orientation:                          
 ---------------------------------------------------------------------
 Center     Atomic      Atomic             Coordinates (Angstroms)
 Number     Number       Type             X           Y           Z
 ---------------------------------------------------------------------
      1          8           0       -2.523960    0.622240    0.736360
      2         17           0       -0.956260    0.968990   -2.266580
      3         22           0       -1.071260    0.114630   -0.100940
      4          8           0       -0.007610    0.871640    0.953660
      5         17           0       -0.828010   -2.203500   -0.119190
 ---------------------------------------------------------------------
                    Distance matrix (angstroms):
                    1          2          3          4          5
     1  O    0.000000
     2  Cl   3.405226   0.000000
     3  Ti   1.751878   2.330912   0.000000
     4  O    2.537999   3.358476   1.678272   0.000000
     5  Cl   3.404852   3.833070   2.330929   3.358653   0.000000
 Symmetry turned off by external request.
 Stoichiometry    Cl2O2Ti(2-,3)
 Framework group  C1[X(Cl2O2Ti)]
 Deg. of freedom     9
 Full point group                 C1      NOp   1
 Rotational constants (GHZ):      2.5733098      1.6388348      1.2578100
 Leave Link  202 at Fri Feb 20 15:24:05 2015, MaxMem=   524288000 cpu:         0.0
 (Enter /opt/g09/l716.exe)
 Dipole        = 4.04008917D+00-5.82282559D-01 1.49951817D-01
 Polarizability= 2.97476311D+02-7.08998457D+00 3.46424691D+02
                -1.63215348D+01 8.06194009D+00 4.26417911D+02
 Full mass-weighted force constant matrix:
 Low frequencies ---  -16.7532   -8.4949    0.0031    0.0053    0.0062    5.8044
 Low frequencies ---   99.8144  112.9063  147.4063
 Diagonal vibrational polarizability:
       96.8085427      16.2392955      41.5578513
 Harmonic frequencies (cm**-1), IR intensities (KM/Mole), Raman scattering
 activities (A**4/AMU), depolarization ratios for plane and unpolarized
 incident light, reduced masses (AMU), force constants (mDyne/A),
 and normal coordinates:
                      1                      2                      3
                      A                      A                      A
 Frequencies --     99.7777               112.8967               147.3616
 Red. masses --     32.8898                17.2337                25.7618
 Frc consts  --      0.1929                 0.1294                 0.3296
 IR Inten    --     12.7054                32.0342                26.2465
  Atom  AN      X      Y      Z        X      Y      Z        X      Y      Z
     1   8     0.11  -0.18  -0.25     0.74  -0.01  -0.04     0.13   0.44   0.47
     2  17    -0.07   0.60   0.01    -0.03  -0.01  -0.07     0.24   0.04   0.00
     3  22     0.04  -0.17  -0.26    -0.15  -0.06  -0.08    -0.45  -0.07  -0.07
     4   8     0.02  -0.15  -0.21    -0.18   0.33   0.51     0.04  -0.31  -0.32
     5  17    -0.04  -0.21   0.56    -0.03  -0.06  -0.03     0.30   0.00   0.03
                      4                      5                      6
                      A                      A                      A
 Frequencies --    148.3138               183.3233               269.3951
 Red. masses --     17.7946                20.8390                21.0716
 Frc consts  --      0.2306                 0.4126                 0.9010
 IR Inten    --      0.4507                 2.5919                30.2081
  Atom  AN      X      Y      Z        X      Y      Z        X      Y      Z
     1   8    -0.03   0.61  -0.49     0.00   0.36  -0.24    -0.13   0.34   0.51
     2  17    -0.23  -0.01   0.04     0.01   0.03   0.32     0.00   0.09  -0.28
     3  22     0.04  -0.03   0.03     0.00  -0.13   0.08     0.24   0.02   0.02
     4   8     0.02  -0.42   0.34    -0.03   0.63  -0.42    -0.61   0.02   0.07
     5  17     0.18  -0.03  -0.01     0.00  -0.30  -0.13     0.01  -0.29  -0.02
                      7                      8                      9
                      A                      A                      A
 Frequencies --    345.7526               391.3515               886.3464
 Red. masses --     29.7610                40.1131                19.0022
 Frc consts  --      2.0962                 3.6197                 8.7955
 IR Inten    --      6.0151                23.7700                21.5672
  Atom  AN      X      Y      Z        X      Y      Z        X      Y      Z
     1   8     0.14   0.14   0.19     0.00  -0.14   0.09     0.48  -0.17  -0.29
     2  17    -0.03  -0.16   0.42    -0.02  -0.21   0.40     0.00  -0.01   0.00
     3  22     0.20  -0.21  -0.34    -0.03   0.59  -0.39     0.00   0.17   0.25
     4   8    -0.55  -0.12  -0.14     0.02  -0.18   0.12    -0.47  -0.34  -0.48
     5  17    -0.06   0.43   0.01     0.05  -0.46   0.04     0.00   0.01   0.00

 -------------------
 - Thermochemistry -
 -------------------
 Temperature   298.150 Kelvin.  Pressure   1.00000 Atm.
 Atom     1 has atomic number  8 and mass  15.99491
 Atom     2 has atomic number 17 and mass  34.96885
 Atom     3 has atomic number 22 and mass  47.94795
 Atom     4 has atomic number  8 and mass  15.99491
 Atom     5 has atomic number 17 and mass  34.96885
 Molecular mass:   149.87548 amu.
 Principal axes and moments of inertia in atomic units:
                           1         2         3
     Eigenvalues --   701.330711101.234361434.82819
           X           -0.03340  -0.16026   0.98651
           Y            0.82765   0.54888   0.11719
           Z           -0.56025   0.82040   0.11431
 This molecule is an asymmetric top.
 Rotational symmetry number  1.
 Warning -- assumption of classical behavior for rotation
           may cause significant error
 Rotational temperatures (Kelvin)      0.12350     0.07865     0.06037
 Rotational constants (GHZ):           2.57331     1.63883     1.25781
 Zero-point vibrational energy      15458.9 (Joules/Mol)
                                    3.69475 (Kcal/Mol)
 Warning -- explicit consideration of   8 degrees of freedom as
           vibrations may cause significant error
 Vibrational temperatures:    143.56   162.43   212.02   213.39   263.76
          (Kelvin)            387.60   497.46   563.07  1275.25
 
 Zero-point correction=                           0.005888 (Hartree/Particle)
 Thermal correction to Energy=                    0.013248
 Thermal correction to Enthalpy=                  0.014192
 Thermal correction to Gibbs Free Energy=        -0.028523
 Sum of electronic and zero-point Energies=          -1920.323394
 Sum of electronic and thermal Energies=             -1920.316035
 Sum of electronic and thermal Enthalpies=           -1920.315090
 Sum of electronic and thermal Free Energies=        -1920.357806
 
                     E (Thermal)             CV                S
                      KCal/Mol        Cal/Mol-Kelvin    Cal/Mol-Kelvin
 Total                    8.313             20.843             89.902
 Electronic               0.000              0.000              2.183
 Translational            0.889              2.981             40.924
 Rotational               0.889              2.981             28.496
 Vibrational              6.536             14.882             18.299
 Vibration     1          0.604              1.949              3.459
 Vibration     2          0.607              1.939              3.218
 Vibration     3          0.617              1.906              2.706
 Vibration     4          0.618              1.905              2.694
 Vibration     5          0.631              1.863              2.294
 Vibration     6          0.674              1.729              1.600
 Vibration     7          0.724              1.584              1.185
 Vibration     8          0.759              1.489              0.995
                       Q            Log10(Q)             Ln(Q)
 Total Bot       0.131771D+14         13.119819         30.209499
 Total V=0       0.673116D+16         15.828090         36.445524
 Vib (Bot)       0.161621D+00         -0.791501         -1.822499
 Vib (Bot)    1  0.205694D+01          0.313221          0.721218
 Vib (Bot)    2  0.181302D+01          0.258403          0.594994
 Vib (Bot)    3  0.137703D+01          0.138945          0.319933
 Vib (Bot)    4  0.136782D+01          0.136030          0.313221
 Vib (Bot)    5  0.109434D+01          0.039154          0.090154
 Vib (Bot)    6  0.717612D+00         -0.144111         -0.331827
 Vib (Bot)    7  0.535082D+00         -0.271580         -0.625335
 Vib (Bot)    8  0.458302D+00         -0.338848         -0.780226
 Vib (V=0)       0.825600D+02          1.916770          4.413526
 Vib (V=0)    1  0.261684D+01          0.417776          0.961966
 Vib (V=0)    2  0.238070D+01          0.376705          0.867396
 Vib (V=0)    3  0.196500D+01          0.293363          0.675492
 Vib (V=0)    4  0.195635D+01          0.291446          0.671078
 Vib (V=0)    5  0.170316D+01          0.231255          0.532484
 Vib (V=0)    6  0.137462D+01          0.138184          0.318180
 Vib (V=0)    7  0.123233D+01          0.090728          0.208910
 Vib (V=0)    8  0.117826D+01          0.071242          0.164042
 Electronic      0.300000D+01          0.477121          1.098612
 Translational   0.721192D+08          7.858051         18.093831
 Rotational      0.376832D+06          5.576148         12.839554
 
                                           W:\Data\TiCl\monomer\fine\0fine-28_Ti(
 OCl)2.g09
                                                             IR Spectrum
 
                                                                                                                                     
     8                                                                      3      3          2           1   11    1 1              
     8                                                                      9      4          6           8   44    1 0              
     6                                                                      1      6          9           3   87    3 0              
 
     X                                                                      X      X          X           X   XX    X X              
     X                                                                      X      X          X           X    X    X X              
     X                                                                      X      X          X                X    X X              
     X                                                                      X      X          X                X    X X              
     X                                                                      X                 X                X    X X              
     X                                                                      X                 X                X    X X              
     X                                                                      X                 X                X    X X              
     X                                                                      X                 X                X    X X              
     X                                                                      X                 X                X    X                
     X                                                                      X                 X                X    X                
     X                                                                      X                 X                X    X                
     X                                                                      X                 X                X    X                
     X                                                                      X                 X                X    X                
                                                                            X                 X                X    X                
                                                                            X                 X                X    X                
                                                                                              X                X    X                
                                                                                              X                     X                
                                                                                              X                     X                
                                                                                              X                     X                
                                                                                                                    X                
 
 -------------------------------------------------------------------
 Center     Atomic                   Forces (Hartrees/Bohr)
 Number     Number              X              Y              Z
 -------------------------------------------------------------------
      1        8          -0.000001739    0.000002010   -0.000003614
      2       17           0.000005733   -0.000001177    0.000000006
      3       22           0.000000329    0.000000212    0.000000454
      4        8          -0.000001798   -0.000000699    0.000001756
      5       17          -0.000002525   -0.000000345    0.000001398
 -------------------------------------------------------------------
 Cartesian Forces:  Max     0.000005733 RMS     0.000002160
 Force constants in Cartesian coordinates: 
                1             2             3             4             5 
      1  0.971168D-01
      2 -0.339457D-01  0.257063D-01
      3 -0.553715D-01  0.230878D-01  0.487500D-01
      4  0.515554D-04 -0.175892D-02  0.427188D-02  0.529522D-02
      5 -0.471710D-02  0.352983D-02  0.299126D-03  0.147342D-02  0.187842D-01
      6  0.852609D-02 -0.253533D-02 -0.468990D-02 -0.419408D-02 -0.302890D-01
      7 -0.537183D-02  0.824608D-02  0.112320D-01 -0.773649D-02 -0.194830D-02
      8  0.938402D-01 -0.510914D-01 -0.548423D-01 -0.121988D-02 -0.261253D-01
      9  0.138114D+00 -0.498701D-01 -0.989844D-01  0.392084D-02  0.263355D-01
     10 -0.910220D-01  0.228989D-01  0.394571D-01  0.186218D-02  0.536537D-02
     11 -0.647715D-01  0.237756D-01  0.368956D-01  0.199768D-02  0.629951D-02
     12 -0.902424D-01  0.316851D-01  0.534581D-01 -0.354659D-02  0.116091D-02
     13 -0.774494D-03  0.455964D-02  0.410561D-03  0.527537D-03 -0.173376D-03
     14  0.959406D-02 -0.192043D-02 -0.544023D-02 -0.492302D-03 -0.248815D-02
     15 -0.102627D-02 -0.236744D-02  0.146626D-02 -0.452053D-03  0.249348D-02
                6             7             8             9            10 
      6  0.819027D-01
      7  0.520059D-02  0.483308D-01
      8  0.315090D-01 -0.179405D-01  0.242457D+00
      9 -0.693216D-01 -0.178913D-01  0.104924D+00  0.325514D+00
     10 -0.873839D-02 -0.263484D-01 -0.836766D-01 -0.123336D+00  0.112820D+00
     11 -0.550324D-02  0.100389D-02 -0.824900D-01 -0.896751D-01  0.655496D-01
     12 -0.912220D-02  0.203709D-02 -0.846337D-01 -0.146150D+00  0.906296D-01
     13 -0.794208D-03 -0.887414D-02  0.899681D-02 -0.807145D-03  0.268854D-02
     14  0.681858D-02  0.106389D-01 -0.827506D-01  0.828550D-02 -0.101373D-01
     15  0.123095D-02 -0.578373D-03  0.304271D-02 -0.110580D-01  0.198822D-02
               11            12            13            14            15 
     11  0.585476D-01
     12  0.615669D-01  0.995035D-01
     13 -0.377972D-02  0.112232D-02  0.643255D-02
     14 -0.613271D-02 -0.977927D-02 -0.960335D-02  0.932919D-01
     15 -0.328418D-02  0.231018D-02  0.684719D-04  0.115422D-03  0.605066D-02
 Red2BG is reusing G-inverse.
 Force constants in internal coordinates: 
                1             2             3             4             5 
      1  0.146671D+00
      2  0.112698D-01  0.943024D-01
      3  0.168129D+00  0.153248D-01  0.241085D+00
      4  0.112666D-01  0.730804D-02  0.153174D-01  0.943350D-01
      5  0.156885D-02 -0.583880D-03 -0.281113D-02  0.230787D-03  0.117147D-01
      6 -0.107591D-01  0.378834D-03  0.103218D-01  0.144945D-02 -0.414079D-02
      7  0.536340D-02  0.868540D-04 -0.672922D-02 -0.747687D-03 -0.782209D-02
      8 -0.101976D-02 -0.141546D-02 -0.169907D-02  0.105068D-02 -0.121819D-02
      9  0.651323D-03  0.604935D-03  0.551586D-02  0.548542D-03 -0.763309D-02
     10  0.315018D-02  0.843279D-03 -0.479913D-02 -0.250536D-02  0.102069D-01
     11  0.413765D-02  0.915911D-03 -0.163704D-02 -0.134925D-02 -0.107070D-01
     12  0.669494D-02 -0.233379D-03 -0.456069D-02  0.162190D-03  0.355033D-02
     13  0.835695D-02 -0.973000D-03 -0.615557D-02  0.326733D-04  0.379049D-02
     14  0.166201D-02 -0.739621D-03 -0.159488D-02 -0.129517D-03  0.240163D-03
                6             7             8             9            10 
      6  0.278040D-01
      7 -0.148779D-01  0.403141D-01
      8  0.263440D-02  0.110694D-01  0.305169D-01
      9  0.112212D-01 -0.176394D-01 -0.145500D-01  0.346403D-01
     10 -0.223972D-01 -0.864877D-02 -0.253105D-01 -0.118919D-01  0.581872D-01
     11 -0.105946D-01  0.130309D-01 -0.974340D-02  0.745547D-02  0.817572D-02
     12 -0.809835D-02  0.671538D-02 -0.451987D-02  0.348584D-02 -0.241176D-02
     13 -0.131874D-01  0.337097D-03  0.453465D-02  0.274419D-02  0.668997D-04
     14 -0.508908D-02 -0.637828D-02  0.905452D-02 -0.741652D-03  0.247866D-02
               11            12            13            14 
     11  0.207209D-01
     12  0.163444D-02  0.125723D-01
     13  0.111111D-02  0.742502D-02  0.158128D-01
     14 -0.523327D-03 -0.514725D-02  0.838780D-02  0.135350D-01
 Leave Link  716 at Fri Feb 20 15:24:05 2015, MaxMem=   524288000 cpu:         0.3
 (Enter /opt/g09/l9999.exe)
 1\1\GINC-CARAVAGGIO\Freq\UB971\6-311+G(d,p)\Cl2O2Ti1(2-,3)\PB556\20-Fe
 b-2015\0\\#p uB971/6-311+G(d,p) Opt=(Tight, CalcAll) Freq GFInput Popu
 lation=None Integral(Grid=UltraFine) SCF=XQC Guess=MIX NoSymmetry\\W:\
 Data\TiCl\monomer\fine\0fine-28_Ti(OCl)2.g09\\-2,3\O,-2.52396,0.62224,
 0.73636\Cl,-0.95626,0.96899,-2.26658\Ti,-1.07126,0.11463,-0.10094\O,-0
 .00761,0.87164,0.95366\Cl,-0.82801,-2.2035,-0.11919\\Version=ES64L-G09
 RevD.01\HF=-1920.3292825\S2=2.039485\S2-1=0.\S2A=2.000407\RMSD=5.077e-
 09\RMSF=2.160e-06\ZeroPoint=0.005888\Thermal=0.0132479\Dipole=0.147627
 6,-0.9242059,-1.3859026\DipoleDeriv=0.15805,0.281999,0.3568355,-0.0671
 786,-0.3000344,-0.0462087,-0.1532835,-0.0989426,-0.2574576,0.0030076,0
 .0321783,0.0442176,0.0247763,-0.267483,0.3812235,0.0578898,0.3262312,-
 0.9053719,-2.226652,-0.3324465,-0.0565277,-0.3608324,0.0487069,-0.2639
 293,-0.1788654,-0.1215248,-0.5424519,0.1084653,-0.1665622,-0.3362875,0
 .2427851,-0.3680264,-0.0860582,0.2864946,-0.1244291,-0.3060274,-0.0428
 709,0.1848315,-0.0082379,0.1604497,-1.1131631,0.0149727,-0.0122356,0.0
 186653,0.0113087\Polar=297.4763112,-7.0899846,346.4246905,-16.3215348,
 8.0619401,426.4179114\PG=C01 [X(Cl2O2Ti1)]\NImag=0\\0.09711677,-0.0339
 4568,0.02570634,-0.05537152,0.02308775,0.04874999,0.00005156,-0.001758
 92,0.00427188,0.00529522,-0.00471710,0.00352983,0.00029913,0.00147342,
 0.01878416,0.00852609,-0.00253533,-0.00468990,-0.00419408,-0.03028904,
 0.08190274,-0.00537183,0.00824608,0.01123202,-0.00773649,-0.00194830,0
 .00520059,0.04833083,0.09384019,-0.05109136,-0.05484227,-0.00121988,-0
[...]
 Vibration     3          0.617              1.906              2.706
 Vibration     4          0.618              1.905              2.694
 Vibration     5          0.631              1.863              2.294
 Vibration     6          0.674              1.729              1.600
 Vibration     7          0.724              1.584              1.185
 Vibration     8          0.759              1.489              0.995
                       Q            Log10(Q)             Ln(Q)
 Total Bot       0.131770D+14         13.119818         30.209497
 Total V=0       0.673115D+16         15.828089         36.445522
 Vib (Bot)       0.161621D+00         -0.791502         -1.822501
 Vib (Bot)    1  0.205694D+01          0.313221          0.721218
 Vib (Bot)    2  0.181302D+01          0.258402          0.594992
 Vib (Bot)    3  0.137703D+01          0.138945          0.319933
 Vib (Bot)    4  0.136782D+01          0.136030          0.313221
 Vib (Bot)    5  0.109434D+01          0.039154          0.090154
 Vib (Bot)    6  0.717611D+00         -0.144111         -0.331827
 Vib (Bot)    7  0.535082D+00         -0.271580         -0.625335
 Vib (Bot)    8  0.458302D+00         -0.338848         -0.780226
 Vib (V=0)       0.825599D+02          1.916769          4.413524
 Vib (V=0)    1  0.261684D+01          0.417776          0.961966
 Vib (V=0)    2  0.238070D+01          0.376704          0.867394
 Vib (V=0)    3  0.196500D+01          0.293363          0.675492
 Vib (V=0)    4  0.195635D+01          0.291446          0.671078
 Vib (V=0)    5  0.170316D+01          0.231255          0.532484
 Vib (V=0)    6  0.137462D+01          0.138184          0.318180
 Vib (V=0)    7  0.123233D+01          0.090728          0.208910
 Vib (V=0)    8  0.117826D+01          0.071242          0.164042
 Electronic      0.300000D+01          0.477121          1.098612
 Translational   0.721192D+08          7.858051         18.093831
 Rotational      0.376832D+06          5.576148         12.839554
 
                                           W:\Data\TiCl\monomer\fine\0fine-28_Ti(
 OCl)2.g09
                                                             IR Spectrum
 
                                                                                                                                     
     8                                                                      3      3          2           1   11    1 1              
     8                                                                      9      4          6           8   44    1 0              
     6                                                                      1      6          9           3   87    3 0              
 
     X                                                                      X      X          X           X   XX    X X              
     X                                                                      X      X          X           X    X    X X              
     X                                                                      X      X          X                X    X X              
     X                                                                      X      X          X                X    X X              
     X                                                                      X                 X                X    X X              
     X                                                                      X                 X                X    X X              
     X                                                                      X                 X                X    X X              
     X                                                                      X                 X                X    X X              
     X                                                                      X                 X                X    X                
     X                                                                      X                 X                X    X                
     X                                                                      X                 X                X    X                
     X                                                                      X                 X                X    X                
     X                                                                      X                 X                X    X                
                                                                            X                 X                X    X                
                                                                            X                 X                X    X                
                                                                                              X                X    X                
                                                                                              X                     X                
                                                                                              X                     X                
                                                                                              X                     X                
                                                                                                                    X                
 
 -------------------------------------------------------------------
 Center     Atomic                   Forces (Hartrees/Bohr)
 Number     Number              X              Y              Z
 -------------------------------------------------------------------
      1        8          -0.000001739    0.000002007   -0.000003617
      2       17           0.000005733   -0.000001177    0.000000006
      3       22           0.000000323    0.000000208    0.000000449
      4        8          -0.000001790   -0.000000693    0.000001765
      5       17          -0.000002526   -0.000000345    0.000001398
 -------------------------------------------------------------------
 Cartesian Forces:  Max     0.000005733 RMS     0.000002160
 Force constants in Cartesian coordinates: 
                1             2             3             4             5 
      1  0.971168D-01
      2 -0.339457D-01  0.257063D-01
      3 -0.553715D-01  0.230878D-01  0.487500D-01
      4  0.515561D-04 -0.175892D-02  0.427188D-02  0.529522D-02
      5 -0.471710D-02  0.352983D-02  0.299126D-03  0.147342D-02  0.187842D-01
      6  0.852609D-02 -0.253533D-02 -0.468990D-02 -0.419408D-02 -0.302890D-01
      7 -0.537185D-02  0.824608D-02  0.112320D-01 -0.773649D-02 -0.194830D-02
      8  0.938402D-01 -0.510913D-01 -0.548423D-01 -0.121987D-02 -0.261253D-01
      9  0.138114D+00 -0.498701D-01 -0.989844D-01  0.392084D-02  0.263355D-01
     10 -0.910220D-01  0.228989D-01  0.394570D-01  0.186218D-02  0.536537D-02
     11 -0.647714D-01  0.237756D-01  0.368956D-01  0.199768D-02  0.629950D-02
     12 -0.902424D-01  0.316851D-01  0.534581D-01 -0.354659D-02  0.116091D-02
     13 -0.774493D-03  0.455964D-02  0.410561D-03  0.527537D-03 -0.173376D-03
     14  0.959406D-02 -0.192043D-02 -0.544023D-02 -0.492303D-03 -0.248815D-02
     15 -0.102627D-02 -0.236744D-02  0.146626D-02 -0.452053D-03  0.249348D-02
                6             7             8             9            10 
      6  0.819027D-01
      7  0.520059D-02  0.483309D-01
      8  0.315090D-01 -0.179405D-01  0.242457D+00
      9 -0.693216D-01 -0.178913D-01  0.104924D+00  0.325514D+00
     10 -0.873839D-02 -0.263484D-01 -0.836766D-01 -0.123337D+00  0.112820D+00
     11 -0.550324D-02  0.100387D-02 -0.824900D-01 -0.896751D-01  0.655496D-01
     12 -0.912220D-02  0.203706D-02 -0.846337D-01 -0.146150D+00  0.906296D-01
     13 -0.794209D-03 -0.887414D-02  0.899681D-02 -0.807143D-03  0.268854D-02
     14  0.681858D-02  0.106389D-01 -0.827506D-01  0.828550D-02 -0.101373D-01
     15  0.123095D-02 -0.578370D-03  0.304271D-02 -0.110580D-01  0.198822D-02
               11            12            13            14            15 
     11  0.585476D-01
     12  0.615669D-01  0.995036D-01
     13 -0.377972D-02  0.112232D-02  0.643255D-02
     14 -0.613271D-02 -0.977927D-02 -0.960335D-02  0.932919D-01
     15 -0.328418D-02  0.231018D-02  0.684714D-04  0.115421D-03  0.605066D-02
 FormGI is forming the generalized inverse of G from B-inverse, IUseBI=4.
 Force constants in internal coordinates: 
                1             2             3             4             5 
      1  0.146671D+00
      2  0.112698D-01  0.943024D-01
      3  0.168129D+00  0.153248D-01  0.241085D+00
      4  0.112666D-01  0.730804D-02  0.153174D-01  0.943350D-01
      5  0.156885D-02 -0.583880D-03 -0.281113D-02  0.230787D-03  0.117147D-01
      6 -0.107591D-01  0.378834D-03  0.103218D-01  0.144945D-02 -0.414079D-02
      7  0.536339D-02  0.868552D-04 -0.672922D-02 -0.747684D-03 -0.782209D-02
      8 -0.101976D-02 -0.141546D-02 -0.169907D-02  0.105068D-02 -0.121819D-02
      9  0.651326D-03  0.604936D-03  0.551586D-02  0.548543D-03 -0.763309D-02
     10  0.315017D-02  0.843279D-03 -0.479913D-02 -0.250536D-02  0.102069D-01
     11  0.413765D-02  0.915911D-03 -0.163704D-02 -0.134925D-02 -0.107070D-01
     12  0.669494D-02 -0.233377D-03 -0.456069D-02  0.162192D-03  0.355033D-02
     13  0.835695D-02 -0.973000D-03 -0.615557D-02  0.326736D-04  0.379049D-02
     14  0.166201D-02 -0.739624D-03 -0.159488D-02 -0.129519D-03  0.240162D-03
                6             7             8             9            10 
      6  0.278040D-01
      7 -0.148779D-01  0.403141D-01
      8  0.263440D-02  0.110694D-01  0.305169D-01
      9  0.112212D-01 -0.176394D-01 -0.145500D-01  0.346403D-01
     10 -0.223972D-01 -0.864877D-02 -0.253106D-01 -0.118919D-01  0.581872D-01
     11 -0.105946D-01  0.130309D-01 -0.974340D-02  0.745547D-02  0.817573D-02
     12 -0.809835D-02  0.671538D-02 -0.451987D-02  0.348584D-02 -0.241176D-02
     13 -0.131874D-01  0.337096D-03  0.453465D-02  0.274419D-02  0.668993D-04
     14 -0.508908D-02 -0.637828D-02  0.905452D-02 -0.741650D-03  0.247866D-02
               11            12            13            14 
     11  0.207209D-01
     12  0.163443D-02  0.125723D-01
     13  0.111111D-02  0.742502D-02  0.158128D-01
     14 -0.523325D-03 -0.514725D-02  0.838780D-02  0.135351D-01
 Leave Link  716 at Fri Feb 20 15:25:59 2015, MaxMem=   524288000 cpu:         0.3
 (Enter /opt/g09/l103.exe)

 GradGradGradGradGradGradGradGradGradGradGradGradGradGradGradGradGradGrad
 Berny optimization.
 Red2BG is reusing G-inverse.
 Internal  Forces:  Max     0.000000299 RMS     0.000000183
 Search for a local minimum.
 Step number   1 out of a maximum of    2
 All quantities printed in internal units (Hartrees-Bohrs-Radians)
 Second derivative matrix not updated -- analytic derivatives used.
 The second derivative matrix:
                          R1        R2        R3        R4        A1
           R1           0.14667
           R2           0.01127   0.09430
           R3           0.16813   0.01532   0.24108
           R4           0.01127   0.00731   0.01532   0.09433
           A1           0.00157  -0.00058  -0.00281   0.00023   0.01171
           A2          -0.01076   0.00038   0.01032   0.00145  -0.00414
           A3           0.00536   0.00009  -0.00673  -0.00075  -0.00782
           A4          -0.00102  -0.00142  -0.00170   0.00105  -0.00122
           A5           0.00065   0.00060   0.00552   0.00055  -0.00763
           A6           0.00315   0.00084  -0.00480  -0.00251   0.01021
           D1           0.00414   0.00092  -0.00164  -0.00135  -0.01071
           D2           0.00669  -0.00023  -0.00456   0.00016   0.00355
           D3           0.00836  -0.00097  -0.00616   0.00003   0.00379
           D4           0.00166  -0.00074  -0.00159  -0.00013   0.00024
                          A2        A3        A4        A5        A6
           A2           0.02780
           A3          -0.01488   0.04031
           A4           0.00263   0.01107   0.03052
           A5           0.01122  -0.01764  -0.01455   0.03464
           A6          -0.02240  -0.00865  -0.02531  -0.01189   0.05819
           D1          -0.01059   0.01303  -0.00974   0.00746   0.00818
           D2          -0.00810   0.00672  -0.00452   0.00349  -0.00241
           D3          -0.01319   0.00034   0.00453   0.00274   0.00007
           D4          -0.00509  -0.00638   0.00905  -0.00074   0.00248
                          D1        D2        D3        D4
           D1           0.02072
           D2           0.00163   0.01257
           D3           0.00111   0.00743   0.01581
           D4          -0.00052  -0.00515   0.00839   0.01354
 ITU=  0
     Eigenvalues ---    0.00734   0.02414   0.03916   0.04961   0.07462
     Eigenvalues ---    0.08539   0.09137   0.09925   0.37133
 Angle between quadratic step and forces=  37.65 degrees.
 Linear search not attempted -- first point.
 Iteration  1 RMS(Cart)=  0.00001539 RMS(Int)=  0.00000000
 Iteration  2 RMS(Cart)=  0.00000000 RMS(Int)=  0.00000000
 ITry= 1 IFail=0 DXMaxC= 4.05D-05 DCOld= 1.00D+10 DXMaxT= 3.00D-01 DXLimC= 3.00D+00 Rises=F
 Variable       Old X    -DE/DX   Delta X   Delta X   Delta X     New X
                                 (Linear)    (Quad)   (Total)
    R1        3.31057   0.00000   0.00000   0.00004   0.00004   3.31061
    R2        4.40479   0.00000   0.00000   0.00000   0.00000   4.40478
    R3        3.17147   0.00000   0.00000  -0.00003  -0.00003   3.17144
    R4        4.40482   0.00000   0.00000   0.00000   0.00000   4.40482
    A1        1.95926   0.00000   0.00000  -0.00001  -0.00001   1.95925
    A2        1.66545   0.00000   0.00000   0.00002   0.00002   1.66547
    A3        1.95891   0.00000   0.00000   0.00000   0.00000   1.95890
    A4        1.96842   0.00000   0.00000   0.00000   0.00000   1.96842
    A5        1.93061   0.00000   0.00000  -0.00001  -0.00001   1.93060
    A6        1.96857   0.00000   0.00000   0.00000   0.00000   1.96858
    D1       -2.04040   0.00000   0.00000   0.00000   0.00000  -2.04040
    D2        2.20309   0.00000   0.00000  -0.00002  -0.00002   2.20307
    D3       -1.85724   0.00000   0.00000  -0.00002  -0.00002  -1.85726
    D4        2.22286   0.00000   0.00000   0.00000   0.00000   2.22285
         Item               Value     Threshold  Converged?
 Maximum Force            0.000000     0.000015     YES
 RMS     Force            0.000000     0.000010     YES
 Maximum Displacement     0.000040     0.000060     YES
 RMS     Displacement     0.000015     0.000040     YES
 Predicted change in Energy=-1.801749D-11
 Optimization completed.
    -- Stationary point found.
                           ----------------------------
                           !   Optimized Parameters   !
                           ! (Angstroms and Degrees)  !
 --------------------------                            --------------------------
 ! Name  Definition              Value          Derivative Info.                !
 --------------------------------------------------------------------------------
 ! R1    R(1,3)                  1.7519         -DE/DX =    0.0                 !
 ! R2    R(2,3)                  2.3309         -DE/DX =    0.0                 !
 ! R3    R(3,4)                  1.6783         -DE/DX =    0.0                 !
 ! R4    R(3,5)                  2.3309         -DE/DX =    0.0                 !
 ! A1    A(1,3,2)              112.2571         -DE/DX =    0.0                 !
 ! A2    A(1,3,4)               95.4233         -DE/DX =    0.0                 !
 ! A3    A(1,3,5)              112.237          -DE/DX =    0.0                 !
 ! A4    A(2,3,4)              112.7822         -DE/DX =    0.0                 !
 ! A5    A(2,3,5)              110.6157         -DE/DX =    0.0                 !
 ! A6    A(4,3,5)              112.7909         -DE/DX =    0.0                 !
 ! D1    D(1,3,4,2)           -116.9064         -DE/DX =    0.0                 !
 ! D2    D(1,3,5,2)            126.2278         -DE/DX =    0.0                 !
 ! D3    D(1,3,5,4)           -106.4119         -DE/DX =    0.0                 !
 ! D4    D(2,3,5,4)            127.3603         -DE/DX =    0.0                 !
 --------------------------------------------------------------------------------
 GradGradGradGradGradGradGradGradGradGradGradGradGradGradGradGradGradGrad

 Leave Link  103 at Fri Feb 20 15:25:59 2015, MaxMem=   524288000 cpu:         0.1
 (Enter /opt/g09/l9999.exe)
 1\1\GINC-CARAVAGGIO\Freq\UB971\6-311+G(d,p)\Cl2O2Ti1(2-,3)\PB556\20-Fe
 b-2015\0\\#P Geom=AllCheck Guess=TCheck SCRF=Check GenChk UB971/6-311+
 G(d,p) Freq\\W:\Data\TiCl\monomer\fine\0fine-28_Ti(OCl)2.g09\\-2,3\O,-
 2.52396,0.62224,0.73636\Cl,-0.95626,0.96899,-2.26658\Ti,-1.07126,0.114
 63,-0.10094\O,-0.00761,0.87164,0.95366\Cl,-0.82801,-2.2035,-0.11919\\V
 ersion=ES64L-G09RevD.01\HF=-1920.3292825\S2=2.039485\S2-1=0.\S2A=2.000
 407\RMSD=1.120e-09\RMSF=2.160e-06\ZeroPoint=0.005888\Thermal=0.0132479
 \Dipole=0.1476272,-0.9242061,-1.3859028\DipoleDeriv=0.15805,0.281999,0
 .3568355,-0.0671786,-0.3000344,-0.0462087,-0.1532835,-0.0989427,-0.257
 4576,0.0030076,0.0321782,0.0442178,0.0247762,-0.267483,0.3812235,0.057
 8898,0.3262312,-0.9053719,-2.2266518,-0.3324466,-0.0565278,-0.3608323,
 0.048707,-0.2639293,-0.1788652,-0.1215247,-0.5424518,0.1084651,-0.1665
 622,-0.3362876,0.242785,-0.3680264,-0.0860582,0.2864944,-0.1244291,-0.
 3060274,-0.0428709,0.1848315,-0.0082379,0.1604497,-1.1131632,0.0149727
 ,-0.0122356,0.0186653,0.0113087\Polar=297.4763208,-7.0899986,346.42468
 11,-16.3215337,8.0619342,426.4179077\PG=C01 [X(Cl2O2Ti1)]\NImag=0\\0.0
 9711677,-0.03394569,0.02570634,-0.05537153,0.02308776,0.04874998,0.000
 05156,-0.00175892,0.00427188,0.00529522,-0.00471710,0.00352983,0.00029
 913,0.00147342,0.01878416,0.00852609,-0.00253533,-0.00468990,-0.004194
 08,-0.03028904,0.08190274,-0.00537185,0.00824608,0.01123203,-0.0077364
 9,-0.00194830,0.00520059,0.04833088,0.09384018,-0.05109135,-0.05484226
 ,-0.00121987,-0.02612535,0.03150904,-0.01794051,0.24245729,0.13811412,
 -0.04987011,-0.09898440,0.00392084,0.02633551,-0.06932159,-0.01789132,
 0.10492421,0.32551364,-0.09102199,0.02289888,0.03945705,0.00186218,0.0
 0536537,-0.00873839,-0.02634840,-0.08367661,-0.12333651,0.11281967,-0.
 06477145,0.02377562,0.03689561,0.00199768,0.00629950,-0.00550324,0.001
 00387,-0.08249004,-0.08967512,0.06554962,0.05854762,-0.09024242,0.0316
 8512,0.05345806,-0.00354659,0.00116091,-0.00912220,0.00203706,-0.08463
 369,-0.14614960,0.09062963,0.06156693,0.09950357,-0.00077449,0.0045596
 4,0.00041056,0.00052754,-0.00017338,-0.00079421,-0.00887414,0.00899681
 ,-0.00080714,0.00268854,-0.00377972,0.00112232,0.00643255,0.00959406,-
 0.00192043,-0.00544023,-0.00049230,-0.00248815,0.00681858,0.01063886,-
 0.08275056,0.00828550,-0.01013726,-0.00613271,-0.00977927,-0.00960335,
 0.09329185,-0.00102627,-0.00236744,0.00146626,-0.00045205,0.00249348,0
 .00123095,-0.00057837,0.00304271,-0.01105804,0.00198822,-0.00328418,0.
 00231018,0.00006847,0.00011542,0.00605066\\0.00000174,-0.00000201,0.00
 000362,-0.00000573,0.00000118,0.,-0.00000032,-0.00000021,-0.00000045,0
 .00000179,0.00000069,-0.00000176,0.00000253,0.00000034,-0.00000140\\\@


 BETTER TO HUNT IN FIELDS, FOR HEALTH UNBOUGHT
 THAN FEE THE DOCTOR FOR A NAUSEOUS DRAUGHT.
 THE WISE, FOR CURE, ON EXERCISE DEPEND;
 GOD NEVER MADE HIS WORK FOR MAN TO MEND.
     -- JOHN DRYDEN (1631-1700)
 Job cpu time:       0 days  0 hours 14 minutes 50.2 seconds.
 File lengths (MBytes):  RWF=     44 Int=      0 D2E=      0 Chk=      3 Scr=      1
 Normal termination of Gaussian 09 at Fri Feb 20 15:25:59 2015.
