 Entering Gaussian System, Link 0=g09
 Input=2_internal-freq-1687_trimer_type-a_o-o-branch-adj3.gau
 Output=2_internal-freq-1687_trimer_type-a_o-o-branch-adj3.log
 Initial command:
 /opt/g09/l1.exe "/scratch/pb556/g09_run/ti_runs//Gau-2169.inp" -scrdir="/scratch/pb556/g09_run/ti_runs//"
 Entering Link 1 = /opt/g09/l1.exe PID=      2170.
  
 Copyright (c) 1988,1990,1992,1993,1995,1998,2003,2009,2013,
            Gaussian, Inc.  All Rights Reserved.
  
 This is part of the Gaussian(R) 09 program.  It is based on
 the Gaussian(R) 03 system (copyright 2003, Gaussian, Inc.),
 the Gaussian(R) 98 system (copyright 1998, Gaussian, Inc.),
 the Gaussian(R) 94 system (copyright 1995, Gaussian, Inc.),
 the Gaussian 92(TM) system (copyright 1992, Gaussian, Inc.),
 the Gaussian 90(TM) system (copyright 1990, Gaussian, Inc.),
 the Gaussian 88(TM) system (copyright 1988, Gaussian, Inc.),
 the Gaussian 86(TM) system (copyright 1986, Carnegie Mellon
 University), and the Gaussian 82(TM) system (copyright 1983,
 Carnegie Mellon University). Gaussian is a federally registered
 trademark of Gaussian, Inc.
  
 This software contains proprietary and confidential information,
 including trade secrets, belonging to Gaussian, Inc.
  
 This software is provided under written license and may be
 used, copied, transmitted, or stored only in accord with that
 written license.
  
 The following legend is applicable only to US Government
 contracts under FAR:
  
                    RESTRICTED RIGHTS LEGEND
  
 Use, reproduction and disclosure by the US Government is
 subject to restrictions as set forth in subparagraphs (a)
 and (c) of the Commercial Computer Software - Restricted
 Rights clause in FAR 52.227-19.
  
 Gaussian, Inc.
 340 Quinnipiac St., Bldg. 40, Wallingford CT 06492
  
  
 ---------------------------------------------------------------
 Warning -- This program may not be used in any manner that
 competes with the business of Gaussian, Inc. or will provide
 assistance to any competitor of Gaussian, Inc.  The licensee
 of this program is prohibited from giving any competitor of
 Gaussian, Inc. access to this program.  By using this program,
 the user acknowledges that Gaussian, Inc. is engaged in the
 business of creating and licensing software in the field of
 computational chemistry and represents and warrants to the
 licensee that it is not a competitor of Gaussian, Inc. and that
 it will not use this program in any manner prohibited above.
 ---------------------------------------------------------------
  

 Cite this work as:
 Gaussian 09, Revision D.01,
 M. J. Frisch, G. W. Trucks, H. B. Schlegel, G. E. Scuseria, 
 M. A. Robb, J. R. Cheeseman, G. Scalmani, V. Barone, B. Mennucci, 
 G. A. Petersson, H. Nakatsuji, M. Caricato, X. Li, H. P. Hratchian, 
 A. F. Izmaylov, J. Bloino, G. Zheng, J. L. Sonnenberg, M. Hada, 
 M. Ehara, K. Toyota, R. Fukuda, J. Hasegawa, M. Ishida, T. Nakajima, 
 Y. Honda, O. Kitao, H. Nakai, T. Vreven, J. A. Montgomery, Jr., 
 J. E. Peralta, F. Ogliaro, M. Bearpark, J. J. Heyd, E. Brothers, 
 K. N. Kudin, V. N. Staroverov, T. Keith, R. Kobayashi, J. Normand, 
 K. Raghavachari, A. Rendell, J. C. Burant, S. S. Iyengar, J. Tomasi, 
 M. Cossi, N. Rega, J. M. Millam, M. Klene, J. E. Knox, J. B. Cross, 
 V. Bakken, C. Adamo, J. Jaramillo, R. Gomperts, R. E. Stratmann, 
 O. Yazyev, A. J. Austin, R. Cammi, C. Pomelli, J. W. Ochterski, 
 R. L. Martin, K. Morokuma, V. G. Zakrzewski, G. A. Voth, 
 P. Salvador, J. J. Dannenberg, S. Dapprich, A. D. Daniels, 
 O. Farkas, J. B. Foresman, J. V. Ortiz, J. Cioslowski, 
 and D. J. Fox, Gaussian, Inc., Wallingford CT, 2013.
 
 ******************************************
 Gaussian 09:  ES64L-G09RevD.01 24-Apr-2013
                23-Dec-2015 
 ******************************************
 %NProcShared=8
 Will use up to    8 processors via shared memory.
 %Mem=500MW
 ----------------------------------------------------------------------
 #p rB971/6-311+G(d,p) Opt=(Tight, CalcAll, MaxCycles=512, MaxStep=256)
  Freq GFInput Population=None Integral(Grid=UltraFine) Geom=Connectivi
 ty Guess=MIX NoSymmetry
 ----------------------------------------------------------------------
 1/6=512,7=10,8=256,10=4,14=-1,18=20,19=15,26=4,38=1,57=2/1,3;
 2/9=110,12=2,15=1,17=6,18=5,40=1/2;
 3/5=4,6=6,7=111,11=2,16=1,24=10,25=1,30=1,71=2,74=-20,75=-5,116=1,140=1/1,2,3;
 4/13=-1/1;
 5/5=2,38=5/2;
 8/6=4,10=90,11=11/1;
 11/6=1,8=1,9=11,15=111,16=1,31=1/1,2,10;
 10/6=1,31=1/2;
 7/10=1,25=1,30=1/1,2,3,16;
 1/6=512,7=10,8=256,10=4,14=-1,18=20,19=15,26=4/3(3);
 2/9=110,15=1/2;
 7/8=1,9=1,25=1,30=1,44=-1/16;
 99//99;
 2/9=110,15=1/2;
 3/5=4,6=6,7=111,11=2,16=1,25=1,30=1,71=2,74=-20,75=-5,116=1,140=1/1,2,3;
 4/5=5,16=3,69=1/1;
 5/5=2,38=5/2;
 8/6=4,10=90,11=11/1;
 11/6=1,8=1,9=11,15=111,16=1,31=1/1,2,10;
 10/6=1,31=1/2;
 7/10=1,25=1,30=1/1,2,3,16;
 1/6=512,7=10,8=256,10=4,14=-1,18=20,19=15,26=4/3(-8);
 2/9=110,15=1/2;
 7/8=1,9=1,25=1,30=1,44=-1/16;
 99//99;
 Leave Link    1 at Wed Dec 23 19:09:58 2015, MaxMem=   524288000 cpu:         0.6
 (Enter /opt/g09/l101.exe)
 --------------------------------------------------------
 ./1_internal-fine-1687_trimer_type-a_o-o-branch-adj3.g09
 --------------------------------------------------------
 Symbolic Z-matrix:
 Charge =  0 Multiplicity = 1
 Ti                   -3.44743  -0.20337  -0.47601 
 Ti                    1.65764   1.83914  -3.6847 
 Ti                   -1.94002   1.43358  -3.35084 
 O                    -2.60954   0.5338   -1.91316 
 O                    -0.13289   1.67033  -3.4092 
 O                    -3.91313  -1.96955  -0.69494 
 Cl                   -4.75563  -3.06813   0.26641 
 O                    -4.3308    0.86267   0.66612 
 O                    -3.0355    0.39787   1.16667 
 O                    -2.85302   1.37058  -4.89923 
 O                    -2.98831   2.636    -4.18251 
 O                     2.33472   3.49933  -3.27318 
 Cl                    3.86383   4.19203  -3.42388 
 O                     2.46618   0.76403  -4.87285 
 O                     2.7029    0.39197  -3.47661 
 
 NAtoms=     15 NQM=       15 NQMF=       0 NMMI=      0 NMMIF=      0
                NMic=       0 NMicF=      0.
                    Isotopes and Nuclear Properties:
 (Nuclear quadrupole moments (NQMom) in fm**2, nuclear magnetic moments (NMagM)
  in nuclear magnetons)

  Atom         1           2           3           4           5           6           7           8           9          10
 IAtWgt=          48          48          48          16          16          16          35          16          16          16
 AtmWgt=  47.9479467  47.9479467  47.9479467  15.9949146  15.9949146  15.9949146  34.9688527  15.9949146  15.9949146  15.9949146
 NucSpn=           0           0           0           0           0           0           3           0           0           0
 AtZEff=   0.0000000   0.0000000   0.0000000   0.0000000   0.0000000   0.0000000   0.0000000   0.0000000   0.0000000   0.0000000
 NQMom=    0.0000000   0.0000000   0.0000000   0.0000000   0.0000000   0.0000000  -8.1650000   0.0000000   0.0000000   0.0000000
 NMagM=    0.0000000   0.0000000   0.0000000   0.0000000   0.0000000   0.0000000   0.8218740   0.0000000   0.0000000   0.0000000
 AtZNuc=  22.0000000  22.0000000  22.0000000   8.0000000   8.0000000   8.0000000  17.0000000   8.0000000   8.0000000   8.0000000

  Atom        11          12          13          14          15
 IAtWgt=          16          16          35          16          16
 AtmWgt=  15.9949146  15.9949146  34.9688527  15.9949146  15.9949146
 NucSpn=           0           0           3           0           0
 AtZEff=   0.0000000   0.0000000   0.0000000   0.0000000   0.0000000
 NQMom=    0.0000000   0.0000000  -8.1650000   0.0000000   0.0000000
 NMagM=    0.0000000   0.0000000   0.8218740   0.0000000   0.0000000
 AtZNuc=   8.0000000   8.0000000  17.0000000   8.0000000   8.0000000
 Leave Link  101 at Wed Dec 23 19:09:58 2015, MaxMem=   524288000 cpu:         1.4
 (Enter /opt/g09/l103.exe)

 GradGradGradGradGradGradGradGradGradGradGradGradGradGradGradGradGradGrad
 Berny optimization.
 Initialization pass.
                           ----------------------------
                           !    Initial Parameters    !
                           ! (Angstroms and Degrees)  !
 --------------------------                            --------------------------
 ! Name  Definition              Value          Derivative Info.                !
 --------------------------------------------------------------------------------
 ! R1    R(1,4)                  1.8196         calculate D2E/DX2 analytically  !
 ! R2    R(1,6)                  1.8396         calculate D2E/DX2 analytically  !
 ! R3    R(1,8)                  1.7948         calculate D2E/DX2 analytically  !
 ! R4    R(1,9)                  1.7971         calculate D2E/DX2 analytically  !
 ! R5    R(2,5)                  1.8194         calculate D2E/DX2 analytically  !
 ! R6    R(2,12)                 1.8396         calculate D2E/DX2 analytically  !
 ! R7    R(2,14)                 1.7948         calculate D2E/DX2 analytically  !
 ! R8    R(2,15)                 1.7973         calculate D2E/DX2 analytically  !
 ! R9    R(3,4)                  1.8234         calculate D2E/DX2 analytically  !
 ! R10   R(3,5)                  1.8235         calculate D2E/DX2 analytically  !
 ! R11   R(3,10)                 1.7986         calculate D2E/DX2 analytically  !
 ! R12   R(3,11)                 1.799          calculate D2E/DX2 analytically  !
 ! R13   R(6,7)                  1.6855         calculate D2E/DX2 analytically  !
 ! R14   R(8,9)                  1.4644         calculate D2E/DX2 analytically  !
 ! R15   R(10,11)                1.4606         calculate D2E/DX2 analytically  !
 ! R16   R(12,13)                1.6854         calculate D2E/DX2 analytically  !
 ! R17   R(14,15)                1.4642         calculate D2E/DX2 analytically  !
 ! A1    A(4,1,6)              114.3013         calculate D2E/DX2 analytically  !
 ! A2    A(4,1,8)              119.2502         calculate D2E/DX2 analytically  !
 ! A3    A(4,1,9)              118.7418         calculate D2E/DX2 analytically  !
 ! A4    A(6,1,8)              121.4255         calculate D2E/DX2 analytically  !
 ! A5    A(6,1,9)              119.2101         calculate D2E/DX2 analytically  !
 ! A6    A(5,2,12)             114.3352         calculate D2E/DX2 analytically  !
 ! A7    A(5,2,14)             119.2087         calculate D2E/DX2 analytically  !
 ! A8    A(5,2,15)             118.6919         calculate D2E/DX2 analytically  !
 ! A9    A(12,2,14)            121.526          calculate D2E/DX2 analytically  !
 ! A10   A(12,2,15)            119.1257         calculate D2E/DX2 analytically  !
 ! A11   A(4,3,5)              116.9483         calculate D2E/DX2 analytically  !
 ! A12   A(4,3,10)             118.3656         calculate D2E/DX2 analytically  !
 ! A13   A(4,3,11)             118.7092         calculate D2E/DX2 analytically  !
 ! A14   A(5,3,10)             118.6885         calculate D2E/DX2 analytically  !
 ! A15   A(5,3,11)             118.418          calculate D2E/DX2 analytically  !
 ! A16   A(1,6,7)              133.1905         calculate D2E/DX2 analytically  !
 ! A17   A(2,12,13)            133.2227         calculate D2E/DX2 analytically  !
 ! A18   L(1,4,3,15,-1)        186.6592         calculate D2E/DX2 analytically  !
 ! A19   L(2,5,3,9,-1)         186.2696         calculate D2E/DX2 analytically  !
 ! A20   L(1,4,3,15,-2)        183.9795         calculate D2E/DX2 analytically  !
 ! A21   L(2,5,3,9,-2)         184.4504         calculate D2E/DX2 analytically  !
 ! D1    D(6,1,3,5)           -101.2878         calculate D2E/DX2 analytically  !
 ! D2    D(6,1,3,10)            54.2962         calculate D2E/DX2 analytically  !
 ! D3    D(6,1,3,11)           108.0076         calculate D2E/DX2 analytically  !
 ! D4    D(8,1,3,5)            105.87           calculate D2E/DX2 analytically  !
 ! D5    D(8,1,3,10)           -98.546          calculate D2E/DX2 analytically  !
 ! D6    D(8,1,3,11)           -44.8345         calculate D2E/DX2 analytically  !
 ! D7    D(9,1,3,5)             51.3155         calculate D2E/DX2 analytically  !
 ! D8    D(9,1,3,10)          -153.1004         calculate D2E/DX2 analytically  !
 ! D9    D(9,1,3,11)           -99.389          calculate D2E/DX2 analytically  !
 ! D10   D(4,1,6,7)           -176.2523         calculate D2E/DX2 analytically  !
 ! D11   D(8,1,6,7)            -21.5386         calculate D2E/DX2 analytically  !
 ! D12   D(9,1,6,7)             34.7724         calculate D2E/DX2 analytically  !
 ! D13   D(12,2,3,4)          -103.789          calculate D2E/DX2 analytically  !
 ! D14   D(12,2,3,10)          105.85           calculate D2E/DX2 analytically  !
 ! D15   D(12,2,3,11)           52.0296         calculate D2E/DX2 analytically  !
 ! D16   D(14,2,3,4)           102.9954         calculate D2E/DX2 analytically  !
 ! D17   D(14,2,3,10)          -47.3655         calculate D2E/DX2 analytically  !
 ! D18   D(14,2,3,11)         -101.1859         calculate D2E/DX2 analytically  !
 ! D19   D(15,2,3,4)            48.482          calculate D2E/DX2 analytically  !
 ! D20   D(15,2,3,10)         -101.879          calculate D2E/DX2 analytically  !
 ! D21   D(15,2,3,11)         -155.6994         calculate D2E/DX2 analytically  !
 ! D22   D(5,2,12,13)         -175.9465         calculate D2E/DX2 analytically  !
 ! D23   D(14,2,12,13)         -21.023          calculate D2E/DX2 analytically  !
 ! D24   D(15,2,12,13)          35.2742         calculate D2E/DX2 analytically  !
 --------------------------------------------------------------------------------
 Trust Radius=2.56D+00 FncErr=1.00D-07 GrdErr=1.00D-06
 Number of steps in this run=    100 maximum allowed number of steps=    100.
 GradGradGradGradGradGradGradGradGradGradGradGradGradGradGradGradGradGrad

 Leave Link  103 at Wed Dec 23 19:09:58 2015, MaxMem=   524288000 cpu:         0.1
 (Enter /opt/g09/l202.exe)
                          Input orientation:                          
 ---------------------------------------------------------------------
 Center     Atomic      Atomic             Coordinates (Angstroms)
 Number     Number       Type             X           Y           Z
 ---------------------------------------------------------------------
      1         22           0       -3.447430   -0.203370   -0.476010
      2         22           0        1.657640    1.839140   -3.684700
      3         22           0       -1.940020    1.433580   -3.350840
      4          8           0       -2.609540    0.533800   -1.913160
      5          8           0       -0.132890    1.670330   -3.409200
      6          8           0       -3.913130   -1.969550   -0.694940
      7         17           0       -4.755630   -3.068130    0.266410
      8          8           0       -4.330800    0.862670    0.666120
      9          8           0       -3.035500    0.397870    1.166670
     10          8           0       -2.853020    1.370580   -4.899230
     11          8           0       -2.988310    2.636000   -4.182510
     12          8           0        2.334720    3.499330   -3.273180
     13         17           0        3.863830    4.192030   -3.423880
     14          8           0        2.466180    0.764030   -4.872850
     15          8           0        2.702900    0.391970   -3.476610
 ---------------------------------------------------------------------
                    Distance matrix (angstroms):
                    1          2          3          4          5
     1  Ti   0.000000
     2  Ti   6.366261   0.000000
     3  Ti   3.635456   3.635808   0.000000
     4  O    1.819582   4.801155   1.823399   0.000000
     5  O    4.806301   1.819449   1.823506   3.108638   0.000000
     6  O    1.839619   7.380939   4.746395   3.074113   5.908143
     7  Cl   3.235649   8.990139   6.424761   4.725476   7.571845
     8  O    1.794783   7.466227   4.709324   3.118265   5.906183
     9  O    1.797101   6.902073   4.762423   3.112117   5.566227
    10  O    4.732390   4.694751   1.798624   3.110643   3.115950
    11  O    4.691583   4.740005   1.799000   3.116514   3.111905
    12  O    7.414001   1.839570   4.748342   5.923658   3.074547
    13  Cl   9.025741   3.235953   6.426434   7.587453   4.725776
    14  O    7.432284   1.794798   4.709502   5.880111   3.117502
    15  O    6.869104   1.797268   4.759987   5.539541   3.111343
                    6          7          8          9         10
     6  O    0.000000
     7  Cl   1.685490   0.000000
     8  O    3.169922   3.973844   0.000000
     9  O    3.136958   3.972716   1.464374   0.000000
    10  O    5.473240   7.071486   5.780565   6.146105   0.000000
    11  O    5.850601   7.446705   5.334435   5.798722   1.460575
    12  O    8.694343  10.292390   8.179194   7.626964   5.838515
    13  Cl  10.290446  11.858468   9.744983   9.114250   7.433257
    14  O    8.100802   9.656707   8.768629   8.177919   5.353736
    15  O    7.555549   9.033945   8.176595   7.381688   5.818056
                   11         12         13         14         15
    11  O    0.000000
    12  O    5.468717   0.000000
    13  Cl   7.067430   1.685444   0.000000
    14  O    5.807952   3.171449   3.975440   0.000000
    15  O    6.158233   3.135702   3.973788   1.464224   0.000000
 Symmetry turned off by external request.
 Stoichiometry    Cl2O10Ti3
 Framework group  C1[X(Cl2O10Ti3)]
 Deg. of freedom    39
 Full point group                 C1      NOp   1
 Rotational constants (GHZ):      0.5021145      0.0975742      0.0946040
 Leave Link  202 at Wed Dec 23 19:09:58 2015, MaxMem=   524288000 cpu:         0.1
 (Enter /opt/g09/l301.exe)
 Standard basis: 6-311+G(d,p) (5D, 7F)
 Ernie: Thresh=  0.10000D-02 Tol=  0.10000D-05 Strict=F.
 AO basis set in the form of general basis input (Overlap normalization):
      1 0
 S   6 1.00       0.000000000000
      0.2060820000D+06  0.5673151380D-03
      0.3122680000D+05  0.4379672866D-02
      0.7199320000D+04  0.2242029425D-01
      0.2048750000D+04  0.9063426645D-01
      0.6707900000D+03  0.2890357165D+00
      0.2436500000D+03  0.6803470061D+00
 S   1 1.00       0.000000000000
      0.9592500000D+02  0.1000000000D+01
 S   1 1.00       0.000000000000
      0.3981010000D+02  0.1000000000D+01
 S   1 1.00       0.000000000000
      0.1222050000D+02  0.1000000000D+01
 S   1 1.00       0.000000000000
      0.5008820000D+01  0.1000000000D+01
 S   1 1.00       0.000000000000
      0.1285690000D+01  0.1000000000D+01
 S   1 1.00       0.000000000000
      0.5128060000D+00  0.1000000000D+01
 S   1 1.00       0.000000000000
      0.8557600000D-01  0.1000000000D+01
 S   1 1.00       0.000000000000
      0.3330200000D-01  0.1000000000D+01
 S   1 1.00       0.000000000000
      0.9991000000D-02  0.1000000000D+01
 P   5 1.00       0.000000000000
      0.1264700000D+04  0.3122017423D-02
      0.3012300000D+03  0.2516579464D-01
      0.9697770000D+02  0.1184178291D+00
      0.3637270000D+02  0.3522190030D+00
      0.1478140000D+02  0.6219379661D+00
 P   1 1.00       0.000000000000
      0.6274650000D+01  0.1000000000D+01
 P   1 1.00       0.000000000000
      0.2478780000D+01  0.1000000000D+01
 P   1 1.00       0.000000000000
      0.1016180000D+01  0.1000000000D+01
 P   1 1.00       0.000000000000
      0.3981620000D+00  0.1000000000D+01
 P   1 1.00       0.000000000000
      0.1015610000D+00  0.1000000000D+01
 P   1 1.00       0.000000000000
      0.3405400000D-01  0.1000000000D+01
 D   3 1.00       0.000000000000
      0.2599240000D+02  0.5411706153D-01
      0.7086340000D+01  0.2873032281D+00
      0.2348710000D+01  0.7854540223D+00
 D   1 1.00       0.000000000000
      0.8001980000D+00  0.1000000000D+01
 D   1 1.00       0.000000000000
      0.2620490000D+00  0.1000000000D+01
 D   1 1.00       0.000000000000
      0.7200000000D-01  0.1000000000D+01
 F   1 1.00       0.000000000000
      0.6900000000D+00  0.1000000000D+01
 ****
      2 0
 S   6 1.00       0.000000000000
      0.2060820000D+06  0.5673151380D-03
      0.3122680000D+05  0.4379672866D-02
      0.7199320000D+04  0.2242029425D-01
      0.2048750000D+04  0.9063426645D-01
      0.6707900000D+03  0.2890357165D+00
      0.2436500000D+03  0.6803470061D+00
 S   1 1.00       0.000000000000
      0.9592500000D+02  0.1000000000D+01
 S   1 1.00       0.000000000000
      0.3981010000D+02  0.1000000000D+01
 S   1 1.00       0.000000000000
      0.1222050000D+02  0.1000000000D+01
 S   1 1.00       0.000000000000
      0.5008820000D+01  0.1000000000D+01
 S   1 1.00       0.000000000000
      0.1285690000D+01  0.1000000000D+01
 S   1 1.00       0.000000000000
      0.5128060000D+00  0.1000000000D+01
 S   1 1.00       0.000000000000
      0.8557600000D-01  0.1000000000D+01
 S   1 1.00       0.000000000000
      0.3330200000D-01  0.1000000000D+01
 S   1 1.00       0.000000000000
      0.9991000000D-02  0.1000000000D+01
 P   5 1.00       0.000000000000
      0.1264700000D+04  0.3122017423D-02
      0.3012300000D+03  0.2516579464D-01
      0.9697770000D+02  0.1184178291D+00
      0.3637270000D+02  0.3522190030D+00
      0.1478140000D+02  0.6219379661D+00
 P   1 1.00       0.000000000000
      0.6274650000D+01  0.1000000000D+01
 P   1 1.00       0.000000000000
      0.2478780000D+01  0.1000000000D+01
 P   1 1.00       0.000000000000
      0.1016180000D+01  0.1000000000D+01
 P   1 1.00       0.000000000000
      0.3981620000D+00  0.1000000000D+01
 P   1 1.00       0.000000000000
      0.1015610000D+00  0.1000000000D+01
 P   1 1.00       0.000000000000
      0.3405400000D-01  0.1000000000D+01
 D   3 1.00       0.000000000000
      0.2599240000D+02  0.5411706153D-01
      0.7086340000D+01  0.2873032281D+00
      0.2348710000D+01  0.7854540223D+00
 D   1 1.00       0.000000000000
      0.8001980000D+00  0.1000000000D+01
 D   1 1.00       0.000000000000
      0.2620490000D+00  0.1000000000D+01
 D   1 1.00       0.000000000000
      0.7200000000D-01  0.1000000000D+01
 F   1 1.00       0.000000000000
      0.6900000000D+00  0.1000000000D+01
 ****
      3 0
 S   6 1.00       0.000000000000
      0.2060820000D+06  0.5673151380D-03
      0.3122680000D+05  0.4379672866D-02
      0.7199320000D+04  0.2242029425D-01
      0.2048750000D+04  0.9063426645D-01
      0.6707900000D+03  0.2890357165D+00
      0.2436500000D+03  0.6803470061D+00
 S   1 1.00       0.000000000000
      0.9592500000D+02  0.1000000000D+01
 S   1 1.00       0.000000000000
      0.3981010000D+02  0.1000000000D+01
 S   1 1.00       0.000000000000
      0.1222050000D+02  0.1000000000D+01
 S   1 1.00       0.000000000000
      0.5008820000D+01  0.1000000000D+01
 S   1 1.00       0.000000000000
      0.1285690000D+01  0.1000000000D+01
 S   1 1.00       0.000000000000
      0.5128060000D+00  0.1000000000D+01
 S   1 1.00       0.000000000000
      0.8557600000D-01  0.1000000000D+01
 S   1 1.00       0.000000000000
      0.3330200000D-01  0.1000000000D+01
 S   1 1.00       0.000000000000
      0.9991000000D-02  0.1000000000D+01
 P   5 1.00       0.000000000000
      0.1264700000D+04  0.3122017423D-02
      0.3012300000D+03  0.2516579464D-01
      0.9697770000D+02  0.1184178291D+00
      0.3637270000D+02  0.3522190030D+00
      0.1478140000D+02  0.6219379661D+00
 P   1 1.00       0.000000000000
      0.6274650000D+01  0.1000000000D+01
 P   1 1.00       0.000000000000
      0.2478780000D+01  0.1000000000D+01
 P   1 1.00       0.000000000000
      0.1016180000D+01  0.1000000000D+01
 P   1 1.00       0.000000000000
      0.3981620000D+00  0.1000000000D+01
 P   1 1.00       0.000000000000
      0.1015610000D+00  0.1000000000D+01
 P   1 1.00       0.000000000000
      0.3405400000D-01  0.1000000000D+01
 D   3 1.00       0.000000000000
      0.2599240000D+02  0.5411706153D-01
      0.7086340000D+01  0.2873032281D+00
      0.2348710000D+01  0.7854540223D+00
 D   1 1.00       0.000000000000
      0.8001980000D+00  0.1000000000D+01
 D   1 1.00       0.000000000000
      0.2620490000D+00  0.1000000000D+01
 D   1 1.00       0.000000000000
      0.7200000000D-01  0.1000000000D+01
 F   1 1.00       0.000000000000
      0.6900000000D+00  0.1000000000D+01
 ****
      4 0
 S   6 1.00       0.000000000000
      0.8588500000D+04  0.1895150083D-02
      0.1297230000D+04  0.1438590063D-01
      0.2992960000D+03  0.7073200310D-01
      0.8737710000D+02  0.2400010105D+00
      0.2567890000D+02  0.5947970261D+00
      0.3740040000D+01  0.2808020123D+00
 SP   3 1.00       0.000000000000
      0.4211750000D+02  0.1138890124D+00  0.3651139738D-01
      0.9628370000D+01  0.9208111006D+00  0.2371529830D+00
      0.2853320000D+01 -0.3274470358D-02  0.8197019412D+00
 SP   1 1.00       0.000000000000
      0.9056610000D+00  0.1000000000D+01  0.1000000000D+01
 SP   1 1.00       0.000000000000
      0.2556110000D+00  0.1000000000D+01  0.1000000000D+01
 SP   1 1.00       0.000000000000
      0.8450000000D-01  0.1000000000D+01  0.1000000000D+01
 D   1 1.00       0.000000000000
      0.1292000000D+01  0.1000000000D+01
 ****
      5 0
 S   6 1.00       0.000000000000
      0.8588500000D+04  0.1895150083D-02
      0.1297230000D+04  0.1438590063D-01
      0.2992960000D+03  0.7073200310D-01
      0.8737710000D+02  0.2400010105D+00
      0.2567890000D+02  0.5947970261D+00
      0.3740040000D+01  0.2808020123D+00
 SP   3 1.00       0.000000000000
      0.4211750000D+02  0.1138890124D+00  0.3651139738D-01
      0.9628370000D+01  0.9208111006D+00  0.2371529830D+00
      0.2853320000D+01 -0.3274470358D-02  0.8197019412D+00
 SP   1 1.00       0.000000000000
      0.9056610000D+00  0.1000000000D+01  0.1000000000D+01
 SP   1 1.00       0.000000000000
      0.2556110000D+00  0.1000000000D+01  0.1000000000D+01
 SP   1 1.00       0.000000000000
      0.8450000000D-01  0.1000000000D+01  0.1000000000D+01
 D   1 1.00       0.000000000000
      0.1292000000D+01  0.1000000000D+01
 ****
      6 0
 S   6 1.00       0.000000000000
      0.8588500000D+04  0.1895150083D-02
      0.1297230000D+04  0.1438590063D-01
      0.2992960000D+03  0.7073200310D-01
      0.8737710000D+02  0.2400010105D+00
      0.2567890000D+02  0.5947970261D+00
      0.3740040000D+01  0.2808020123D+00
 SP   3 1.00       0.000000000000
      0.4211750000D+02  0.1138890124D+00  0.3651139738D-01
      0.9628370000D+01  0.9208111006D+00  0.2371529830D+00
      0.2853320000D+01 -0.3274470358D-02  0.8197019412D+00
 SP   1 1.00       0.000000000000
      0.9056610000D+00  0.1000000000D+01  0.1000000000D+01
 SP   1 1.00       0.000000000000
      0.2556110000D+00  0.1000000000D+01  0.1000000000D+01
 SP   1 1.00       0.000000000000
      0.8450000000D-01  0.1000000000D+01  0.1000000000D+01
 D   1 1.00       0.000000000000
      0.1292000000D+01  0.1000000000D+01
 ****
      7 0
 S   6 1.00       0.000000000000
      0.1058190000D+06  0.7380002465D-03
      0.1587200000D+05  0.5718001910D-02
      0.3619650000D+04  0.2949500985D-01
      0.1030800000D+04  0.1172860392D+00
      0.3399080000D+03  0.3629491212D+00
      0.1245380000D+03  0.5841491951D+00
 S   3 1.00       0.000000000000
      0.1245380000D+03  0.1341769734D+00
      0.4951350000D+02  0.6242498762D+00
      0.2080560000D+02  0.2917559421D+00
 S   1 1.00       0.000000000000
      0.6583460000D+01  0.1000000000D+01
 S   1 1.00       0.000000000000
      0.2564680000D+01  0.1000000000D+01
 S   1 1.00       0.000000000000
      0.5597630000D+00  0.1000000000D+01
 S   1 1.00       0.000000000000
      0.1832730000D+00  0.1000000000D+01
 SP   1 1.00       0.000000000000
      0.4830000000D-01  0.1000000000D+01  0.1000000000D+01
 P   5 1.00       0.000000000000
      0.5897760000D+03  0.3665569355D-02
      0.1398490000D+03  0.2836791942D-01
      0.4514130000D+02  0.1247566028D+00
      0.1687330000D+02  0.3396546305D+00
      0.2771520000D+01  0.7475859630D+00
 P   2 1.00       0.000000000000
      0.6741100000D+01 -0.1572243813D+01
      0.2771520000D+01  0.9923888817D+00
 P   1 1.00       0.000000000000
      0.1023870000D+01  0.1000000000D+01
 P   1 1.00       0.000000000000
      0.3813680000D+00  0.1000000000D+01
 P   1 1.00       0.000000000000
      0.1094370000D+00  0.1000000000D+01
 D   1 1.00       0.000000000000
      0.7500000000D+00  0.1000000000D+01
 ****
      8 0
 S   6 1.00       0.000000000000
      0.8588500000D+04  0.1895150083D-02
      0.1297230000D+04  0.1438590063D-01
      0.2992960000D+03  0.7073200310D-01
      0.8737710000D+02  0.2400010105D+00
      0.2567890000D+02  0.5947970261D+00
      0.3740040000D+01  0.2808020123D+00
 SP   3 1.00       0.000000000000
      0.4211750000D+02  0.1138890124D+00  0.3651139738D-01
      0.9628370000D+01  0.9208111006D+00  0.2371529830D+00
      0.2853320000D+01 -0.3274470358D-02  0.8197019412D+00
 SP   1 1.00       0.000000000000
      0.9056610000D+00  0.1000000000D+01  0.1000000000D+01
 SP   1 1.00       0.000000000000
      0.2556110000D+00  0.1000000000D+01  0.1000000000D+01
 SP   1 1.00       0.000000000000
      0.8450000000D-01  0.1000000000D+01  0.1000000000D+01
 D   1 1.00       0.000000000000
      0.1292000000D+01  0.1000000000D+01
 ****
      9 0
 S   6 1.00       0.000000000000
      0.8588500000D+04  0.1895150083D-02
      0.1297230000D+04  0.1438590063D-01
      0.2992960000D+03  0.7073200310D-01
      0.8737710000D+02  0.2400010105D+00
      0.2567890000D+02  0.5947970261D+00
      0.3740040000D+01  0.2808020123D+00
 SP   3 1.00       0.000000000000
      0.4211750000D+02  0.1138890124D+00  0.3651139738D-01
      0.9628370000D+01  0.9208111006D+00  0.2371529830D+00
      0.2853320000D+01 -0.3274470358D-02  0.8197019412D+00
 SP   1 1.00       0.000000000000
      0.9056610000D+00  0.1000000000D+01  0.1000000000D+01
 SP   1 1.00       0.000000000000
      0.2556110000D+00  0.1000000000D+01  0.1000000000D+01
 SP   1 1.00       0.000000000000
      0.8450000000D-01  0.1000000000D+01  0.1000000000D+01
 D   1 1.00       0.000000000000
      0.1292000000D+01  0.1000000000D+01
 ****
     10 0
 S   6 1.00       0.000000000000
      0.8588500000D+04  0.1895150083D-02
      0.1297230000D+04  0.1438590063D-01
      0.2992960000D+03  0.7073200310D-01
      0.8737710000D+02  0.2400010105D+00
      0.2567890000D+02  0.5947970261D+00
      0.3740040000D+01  0.2808020123D+00
 SP   3 1.00       0.000000000000
      0.4211750000D+02  0.1138890124D+00  0.3651139738D-01
      0.9628370000D+01  0.9208111006D+00  0.2371529830D+00
      0.2853320000D+01 -0.3274470358D-02  0.8197019412D+00
 SP   1 1.00       0.000000000000
      0.9056610000D+00  0.1000000000D+01  0.1000000000D+01
 SP   1 1.00       0.000000000000
      0.2556110000D+00  0.1000000000D+01  0.1000000000D+01
 SP   1 1.00       0.000000000000
      0.8450000000D-01  0.1000000000D+01  0.1000000000D+01
 D   1 1.00       0.000000000000
      0.1292000000D+01  0.1000000000D+01
 ****
     11 0
 S   6 1.00       0.000000000000
      0.8588500000D+04  0.1895150083D-02
      0.1297230000D+04  0.1438590063D-01
      0.2992960000D+03  0.7073200310D-01
      0.8737710000D+02  0.2400010105D+00
      0.2567890000D+02  0.5947970261D+00
      0.3740040000D+01  0.2808020123D+00
 SP   3 1.00       0.000000000000
      0.4211750000D+02  0.1138890124D+00  0.3651139738D-01
      0.9628370000D+01  0.9208111006D+00  0.2371529830D+00
      0.2853320000D+01 -0.3274470358D-02  0.8197019412D+00
 SP   1 1.00       0.000000000000
      0.9056610000D+00  0.1000000000D+01  0.1000000000D+01
 SP   1 1.00       0.000000000000
      0.2556110000D+00  0.1000000000D+01  0.1000000000D+01
 SP   1 1.00       0.000000000000
      0.8450000000D-01  0.1000000000D+01  0.1000000000D+01
 D   1 1.00       0.000000000000
      0.1292000000D+01  0.1000000000D+01
 ****
     12 0
 S   6 1.00       0.000000000000
      0.8588500000D+04  0.1895150083D-02
      0.1297230000D+04  0.1438590063D-01
      0.2992960000D+03  0.7073200310D-01
      0.8737710000D+02  0.2400010105D+00
      0.2567890000D+02  0.5947970261D+00
      0.3740040000D+01  0.2808020123D+00
 SP   3 1.00       0.000000000000
      0.4211750000D+02  0.1138890124D+00  0.3651139738D-01
      0.9628370000D+01  0.9208111006D+00  0.2371529830D+00
      0.2853320000D+01 -0.3274470358D-02  0.8197019412D+00
 SP   1 1.00       0.000000000000
      0.9056610000D+00  0.1000000000D+01  0.1000000000D+01
 SP   1 1.00       0.000000000000
      0.2556110000D+00  0.1000000000D+01  0.1000000000D+01
 SP   1 1.00       0.000000000000
      0.8450000000D-01  0.1000000000D+01  0.1000000000D+01
 D   1 1.00       0.000000000000
      0.1292000000D+01  0.1000000000D+01
 ****
     13 0
 S   6 1.00       0.000000000000
      0.1058190000D+06  0.7380002465D-03
      0.1587200000D+05  0.5718001910D-02
      0.3619650000D+04  0.2949500985D-01
      0.1030800000D+04  0.1172860392D+00
      0.3399080000D+03  0.3629491212D+00
      0.1245380000D+03  0.5841491951D+00
 S   3 1.00       0.000000000000
      0.1245380000D+03  0.1341769734D+00
      0.4951350000D+02  0.6242498762D+00
      0.2080560000D+02  0.2917559421D+00
 S   1 1.00       0.000000000000
      0.6583460000D+01  0.1000000000D+01
 S   1 1.00       0.000000000000
      0.2564680000D+01  0.1000000000D+01
 S   1 1.00       0.000000000000
      0.5597630000D+00  0.1000000000D+01
 S   1 1.00       0.000000000000
      0.1832730000D+00  0.1000000000D+01
 SP   1 1.00       0.000000000000
      0.4830000000D-01  0.1000000000D+01  0.1000000000D+01
 P   5 1.00       0.000000000000
      0.5897760000D+03  0.3665569355D-02
      0.1398490000D+03  0.2836791942D-01
      0.4514130000D+02  0.1247566028D+00
      0.1687330000D+02  0.3396546305D+00
      0.2771520000D+01  0.7475859630D+00
 P   2 1.00       0.000000000000
      0.6741100000D+01 -0.1572243813D+01
      0.2771520000D+01  0.9923888817D+00
 P   1 1.00       0.000000000000
      0.1023870000D+01  0.1000000000D+01
 P   1 1.00       0.000000000000
      0.3813680000D+00  0.1000000000D+01
 P   1 1.00       0.000000000000
      0.1094370000D+00  0.1000000000D+01
 D   1 1.00       0.000000000000
      0.7500000000D+00  0.1000000000D+01
 ****
     14 0
 S   6 1.00       0.000000000000
      0.8588500000D+04  0.1895150083D-02
      0.1297230000D+04  0.1438590063D-01
      0.2992960000D+03  0.7073200310D-01
      0.8737710000D+02  0.2400010105D+00
      0.2567890000D+02  0.5947970261D+00
      0.3740040000D+01  0.2808020123D+00
 SP   3 1.00       0.000000000000
      0.4211750000D+02  0.1138890124D+00  0.3651139738D-01
      0.9628370000D+01  0.9208111006D+00  0.2371529830D+00
      0.2853320000D+01 -0.3274470358D-02  0.8197019412D+00
 SP   1 1.00       0.000000000000
      0.9056610000D+00  0.1000000000D+01  0.1000000000D+01
 SP   1 1.00       0.000000000000
      0.2556110000D+00  0.1000000000D+01  0.1000000000D+01
 SP   1 1.00       0.000000000000
      0.8450000000D-01  0.1000000000D+01  0.1000000000D+01
 D   1 1.00       0.000000000000
      0.1292000000D+01  0.1000000000D+01
 ****
     15 0
 S   6 1.00       0.000000000000
      0.8588500000D+04  0.1895150083D-02
      0.1297230000D+04  0.1438590063D-01
      0.2992960000D+03  0.7073200310D-01
      0.8737710000D+02  0.2400010105D+00
      0.2567890000D+02  0.5947970261D+00
      0.3740040000D+01  0.2808020123D+00
 SP   3 1.00       0.000000000000
      0.4211750000D+02  0.1138890124D+00  0.3651139738D-01
      0.9628370000D+01  0.9208111006D+00  0.2371529830D+00
      0.2853320000D+01 -0.3274470358D-02  0.8197019412D+00
 SP   1 1.00       0.000000000000
      0.9056610000D+00  0.1000000000D+01  0.1000000000D+01
 SP   1 1.00       0.000000000000
      0.2556110000D+00  0.1000000000D+01  0.1000000000D+01
 SP   1 1.00       0.000000000000
      0.8450000000D-01  0.1000000000D+01  0.1000000000D+01
 D   1 1.00       0.000000000000
      0.1292000000D+01  0.1000000000D+01
 ****

   454 basis functions,   748 primitive gaussians,   487 cartesian basis functions
    90 alpha electrons       90 beta electrons
       nuclear repulsion energy      2019.6332630554 Hartrees.
 IExCor= 1614 DFT=T Ex+Corr=B971 ExCW=0 ScaHFX=  0.210000
 ScaDFX=  1.000000  1.000000  1.000000  1.000000 ScalE2=  1.000000  1.000000
 IRadAn=      5 IRanWt=     -1 IRanGd=            0 ICorTp=0 IEmpDi=  4
 NAtoms=   15 NActive=   15 NUniq=   15 SFac= 1.00D+00 NAtFMM=   60 NAOKFM=F Big=F
 Integral buffers will be    131072 words long.
 Raffenetti 2 integral format.
 Two-electron integral symmetry is turned off.
 Leave Link  301 at Wed Dec 23 19:09:58 2015, MaxMem=   524288000 cpu:         0.4
 (Enter /opt/g09/l302.exe)
 NPDir=0 NMtPBC=     1 NCelOv=     1 NCel=       1 NClECP=     1 NCelD=      1
         NCelK=      1 NCelE2=     1 NClLst=     1 CellRange=     0.0.
 One-electron integrals computed using PRISM.
 NBasis=   454 RedAO= T EigKep=  9.79D-05  NBF=   454
 NBsUse=   454 1.00D-06 EigRej= -1.00D+00 NBFU=   454
 Precomputing XC quadrature grid using
 IXCGrd= 4 IRadAn=           5 IRanWt=          -1 IRanGd=           0 AccXCQ= 0.00D+00.
 Generated NRdTot=       0 NPtTot=           0 NUsed=           0 NTot=          32
 NSgBfM=   435   436   440   440   440 MxSgAt=    15 MxSgA2=    15.
 Leave Link  302 at Wed Dec 23 19:09:58 2015, MaxMem=   524288000 cpu:         4.8
 (Enter /opt/g09/l303.exe)
 DipDrv:  MaxL=1.
 Leave Link  303 at Wed Dec 23 19:09:59 2015, MaxMem=   524288000 cpu:         0.5
 (Enter /opt/g09/l401.exe)
 ExpMin= 9.99D-03 ExpMax= 2.06D+05 ExpMxC= 7.20D+03 IAcc=3 IRadAn=         5 AccDes= 0.00D+00
 Harris functional with IExCor= 1614 and IRadAn=       5 diagonalized for initial guess.
 HarFok:  IExCor= 1614 AccDes= 0.00D+00 IRadAn=         5 IDoV= 1 UseB2=F ITyADJ=14
 ICtDFT=  3500011 ScaDFX=  1.000000  1.000000  1.000000  1.000000
 FoFCou: FMM=F IPFlag=           0 FMFlag=      100000 FMFlg1=           0
         NFxFlg=           0 DoJE=T BraDBF=F KetDBF=T FulRan=T
         wScrn=  0.000000 ICntrl=     500 IOpCl=  0 I1Cent=   200000004 NGrid=           0
         NMat0=    1 NMatS0=      1 NMatT0=    0 NMatD0=    1 NMtDS0=    0 NMtDT0=    0
 Symmetry not used in FoFCou.
 Harris En= -4166.86108788876    
 JPrj=0 DoOrth=F DoCkMO=T.
 Mixing orbitals, IMix= 1 IMixAn=  0 NRI=1 NE=   90 Coef=  7.07106781D-01  7.07106781D-01
 Leave Link  401 at Wed Dec 23 19:10:02 2015, MaxMem=   524288000 cpu:        24.4
 (Enter /opt/g09/l502.exe)
 Closed shell SCF:
 Using DIIS extrapolation, IDIIS=  1040.
 Two-electron integral symmetry not used.
 IVT=      736905 IEndB=      736905 NGot=   524288000 MDV=   523805392
 LenX=   523805392 LenY=   523567736
 Requested convergence on RMS density matrix=1.00D-08 within 128 cycles.
 Requested convergence on MAX density matrix=1.00D-06.
 Requested convergence on             energy=1.00D-06.
 No special actions if energy rises.
 Fock matrices will be formed incrementally for  20 cycles.

 Cycle   1  Pass 1  IDiag  1:
 FoFJK:  IHMeth= 1 ICntrl=       0 DoSepK=F KAlg= 0 I1Cent=   0 FoldK=F
 IRaf= 680000000 NMat=   1 IRICut=       1 DoRegI=T DoRafI=F ISym2E= 0.
 FoFCou: FMM=F IPFlag=           0 FMFlag=      100000 FMFlg1=           0
         NFxFlg=           0 DoJE=F BraDBF=F KetDBF=F FulRan=T
         wScrn=  0.000000 ICntrl=       0 IOpCl=  0 I1Cent=           0 NGrid=           0
         NMat0=    1 NMatS0=      1 NMatT0=    0 NMatD0=    1 NMtDS0=    0 NMtDT0=    0
 Symmetry not used in FoFCou.
 E= -4218.81378227871    
 DIIS: error= 1.68D-01 at cycle   1 NSaved=   1.
 NSaved= 1 IEnMin= 1 EnMin= -4218.81378227871     IErMin= 1 ErrMin= 1.68D-01
 ErrMax= 1.68D-01  0.00D+00 EMaxC= 1.00D-01 BMatC= 1.10D+01 BMatP= 1.10D+01
 IDIUse=3 WtCom= 0.00D+00 WtEn= 1.00D+00
 Coeff-Com:  0.100D+01
 Coeff-En:   0.100D+01
 Coeff:      0.100D+01
 Gap=     0.022 Goal=   None    Shift=    0.000
 GapD=    0.022 DampG=0.250 DampE=0.125 DampFc=0.1250 IDamp=-1.
 Damping current iteration by 1.25D-01
 RMSDP=1.00D-02 MaxDP=1.17D+00              OVMax= 7.88D-01

 Cycle   2  Pass 1  IDiag  1:
 RMSU=  1.25D-03    CP:  9.97D-01
 E= -4219.01900942774     Delta-E=       -0.205227149036 Rises=F Damp=T
 DIIS: error= 1.43D-01 at cycle   2 NSaved=   2.
 NSaved= 2 IEnMin= 2 EnMin= -4219.01900942774     IErMin= 2 ErrMin= 1.43D-01
 ErrMax= 1.43D-01  0.00D+00 EMaxC= 1.00D-01 BMatC= 6.74D+00 BMatP= 1.10D+01
 IDIUse=3 WtCom= 0.00D+00 WtEn= 1.00D+00
 Coeff-Com: -0.130D+01 0.230D+01
 Coeff-En:   0.370D+00 0.630D+00
 Coeff:      0.370D+00 0.630D+00
 Gap=    -0.010 Goal=   None    Shift=    0.000
 RMSDP=5.08D-03 MaxDP=5.25D-01 DE=-2.05D-01 OVMax= 9.69D-01

 Cycle   3  Pass 1  IDiag  1:
 RMSU=  4.06D-03    CP:  1.01D+00  3.00D+00
 E= -4218.25559219157     Delta-E=        0.763417236176 Rises=F Damp=F
 DIIS: error= 1.13D-01 at cycle   3 NSaved=   3.
 NSaved= 3 IEnMin= 2 EnMin= -4219.01900942774     IErMin= 3 ErrMin= 1.13D-01
 ErrMax= 1.13D-01  0.00D+00 EMaxC= 1.00D-01 BMatC= 4.42D+00 BMatP= 6.74D+00
 IDIUse=3 WtCom= 0.00D+00 WtEn= 1.00D+00
 EnCoef did   100 forward-backward iterations
 Coeff-Com:  0.522D+00-0.206D+00 0.684D+00
 Coeff-En:   0.546D+00 0.125D-01 0.441D+00
 Coeff:      0.546D+00 0.125D-01 0.441D+00
 Gap=     0.090 Goal=   None    Shift=    0.000
 RMSDP=5.05D-03 MaxDP=5.87D-01 DE= 7.63D-01 OVMax= 9.93D-01

 Cycle   4  Pass 1  IDiag  1:
 RMSU=  3.59D-03    CP:  1.00D+00  2.34D+00  1.87D-01
 E= -4211.84782250623     Delta-E=        6.407769685336 Rises=F Damp=F
 DIIS: error= 1.25D-01 at cycle   4 NSaved=   4.
 NSaved= 4 IEnMin= 2 EnMin= -4219.01900942774     IErMin= 3 ErrMin= 1.13D-01
 ErrMax= 1.25D-01  0.00D+00 EMaxC= 1.00D-01 BMatC= 7.42D+00 BMatP= 4.42D+00
 IDIUse=2 WtCom= 0.00D+00 WtEn= 1.00D+00
 EnCoef did   100 forward-backward iterations
 Coeff-En:   0.500D+00 0.470D-02 0.410D+00 0.859D-01
 Coeff:      0.500D+00 0.470D-02 0.410D+00 0.859D-01
 Gap=     0.000 Goal=   None    Shift=    0.000
 RMSDP=3.20D-03 MaxDP=3.53D-01 DE= 6.41D+00 OVMax= 9.98D-01

 Cycle   5  Pass 1  IDiag  1:
 RMSU=  1.45D-03    CP:  1.01D+00  1.55D+00  4.37D-01  3.11D-01
 E= -4220.54760243017     Delta-E=       -8.699779923941 Rises=F Damp=F
 DIIS: error= 3.09D-02 at cycle   5 NSaved=   5.
 NSaved= 5 IEnMin= 5 EnMin= -4220.54760243017     IErMin= 5 ErrMin= 3.09D-02
 ErrMax= 3.09D-02  0.00D+00 EMaxC= 1.00D-01 BMatC= 4.12D-01 BMatP= 4.42D+00
 IDIUse=3 WtCom= 6.91D-01 WtEn= 3.09D-01
 Coeff-Com: -0.397D-02 0.113D+00 0.176D+00 0.248D-01 0.689D+00
 Coeff-En:   0.000D+00 0.000D+00 0.100D+00 0.000D+00 0.900D+00
 Coeff:     -0.274D-02 0.784D-01 0.153D+00 0.171D-01 0.754D+00
 Gap=     0.261 Goal=   None    Shift=    0.000
 RMSDP=2.97D-03 MaxDP=5.36D-01 DE=-8.70D+00 OVMax= 2.32D-01

 Cycle   6  Pass 1  IDiag  1:
 RMSU=  2.42D-03    CP:  1.01D+00  2.25D+00  5.49D-01  1.12D-01  1.65D-01
 E= -4219.89113518969     Delta-E=        0.656467240480 Rises=F Damp=F
 DIIS: error= 8.24D-02 at cycle   6 NSaved=   6.
 NSaved= 6 IEnMin= 5 EnMin= -4220.54760243017     IErMin= 5 ErrMin= 3.09D-02
 ErrMax= 8.24D-02  0.00D+00 EMaxC= 1.00D-01 BMatC= 1.42D+00 BMatP= 4.12D-01
 IDIUse=2 WtCom= 0.00D+00 WtEn= 1.00D+00
 Coeff-En:   0.000D+00 0.000D+00 0.000D+00 0.000D+00 0.697D+00 0.303D+00
 Coeff:      0.000D+00 0.000D+00 0.000D+00 0.000D+00 0.697D+00 0.303D+00
 Gap=     0.164 Goal=   None    Shift=    0.000
 RMSDP=2.04D-03 MaxDP=2.84D-01 DE= 6.56D-01 OVMax= 2.29D-01

 Cycle   7  Pass 1  IDiag  1:
 RMSU=  1.13D-03    CP:  1.01D+00  2.34D+00  5.55D-01  2.15D-01  6.16D-01
                    CP:  3.69D-01
 E= -4220.51810354299     Delta-E=       -0.626968353296 Rises=F Damp=F
 DIIS: error= 4.56D-02 at cycle   7 NSaved=   7.
 NSaved= 7 IEnMin= 5 EnMin= -4220.54760243017     IErMin= 5 ErrMin= 3.09D-02
 ErrMax= 4.56D-02  0.00D+00 EMaxC= 1.00D-01 BMatC= 4.55D-01 BMatP= 4.12D-01
 IDIUse=2 WtCom= 0.00D+00 WtEn= 1.00D+00
 EnCoef did     2 forward-backward iterations
 Coeff-En:   0.000D+00 0.000D+00 0.000D+00 0.000D+00 0.522D+00 0.179D+00
 Coeff-En:   0.300D+00
 Coeff:      0.000D+00 0.000D+00 0.000D+00 0.000D+00 0.522D+00 0.179D+00
 Coeff:      0.300D+00
 Gap=     0.206 Goal=   None    Shift=    0.000
 RMSDP=1.26D-03 MaxDP=1.55D-01 DE=-6.27D-01 OVMax= 1.45D-01

 Cycle   8  Pass 1  IDiag  1:
 RMSU=  2.80D-04    CP:  1.01D+00  1.93D+00  5.27D-01  1.85D-01  6.01D-01
                    CP:  5.19D-01  7.41D-02
 E= -4220.77915918526     Delta-E=       -0.261055642275 Rises=F Damp=F
 DIIS: error= 2.08D-02 at cycle   8 NSaved=   8.
 NSaved= 8 IEnMin= 8 EnMin= -4220.77915918526     IErMin= 8 ErrMin= 2.08D-02
 ErrMax= 2.08D-02  0.00D+00 EMaxC= 1.00D-01 BMatC= 8.94D-02 BMatP= 4.12D-01
 IDIUse=3 WtCom= 7.92D-01 WtEn= 2.08D-01
 EnCoef did     3 forward-backward iterations
 Coeff-Com: -0.225D-01 0.291D-01-0.192D-01 0.221D-02 0.205D+00-0.353D-01
 Coeff-Com:  0.244D+00 0.597D+00
 Coeff-En:   0.000D+00 0.000D+00 0.000D+00 0.000D+00 0.165D+00 0.000D+00
 Coeff-En:   0.161D+00 0.674D+00
 Coeff:     -0.178D-01 0.231D-01-0.152D-01 0.175D-02 0.197D+00-0.280D-01
 Coeff:      0.227D+00 0.613D+00
 Gap=     0.175 Goal=   None    Shift=    0.000
 RMSDP=6.60D-04 MaxDP=8.88D-02 DE=-2.61D-01 OVMax= 6.83D-02

 Cycle   9  Pass 1  IDiag  1:
 RMSU=  1.88D-04    CP:  1.01D+00  1.98D+00  5.06D-01  2.47D-01  7.34D-01
                    CP:  3.73D-01  4.16D-01  4.00D-01
 E= -4220.83622659161     Delta-E=       -0.057067406351 Rises=F Damp=F
 DIIS: error= 6.74D-03 at cycle   9 NSaved=   9.
 NSaved= 9 IEnMin= 9 EnMin= -4220.83622659161     IErMin= 9 ErrMin= 6.74D-03
 ErrMax= 6.74D-03  0.00D+00 EMaxC= 1.00D-01 BMatC= 1.13D-02 BMatP= 8.94D-02
 IDIUse=3 WtCom= 9.33D-01 WtEn= 6.74D-02
 Coeff-Com: -0.232D-01 0.273D-01-0.850D-02-0.301D-03 0.873D-01-0.469D-01
 Coeff-Com:  0.126D+00 0.481D+00 0.357D+00
 Coeff-En:   0.000D+00 0.000D+00 0.000D+00 0.000D+00 0.000D+00 0.000D+00
 Coeff-En:   0.000D+00 0.172D+00 0.828D+00
 Coeff:     -0.216D-01 0.254D-01-0.792D-02-0.281D-03 0.815D-01-0.437D-01
 Coeff:      0.118D+00 0.461D+00 0.388D+00
 Gap=     0.163 Goal=   None    Shift=    0.000
 RMSDP=1.87D-04 MaxDP=2.03D-02 DE=-5.71D-02 OVMax= 1.98D-02

 Cycle  10  Pass 1  IDiag  1:
 RMSU=  7.37D-05    CP:  1.01D+00  1.97D+00  5.12D-01  2.30D-01  7.10D-01
                    CP:  3.99D-01  3.51D-01  6.57D-01  4.95D-01
 E= -4220.84390441440     Delta-E=       -0.007677822787 Rises=F Damp=F
 DIIS: error= 2.28D-03 at cycle  10 NSaved=  10.
 NSaved=10 IEnMin=10 EnMin= -4220.84390441440     IErMin=10 ErrMin= 2.28D-03
 ErrMax= 2.28D-03  0.00D+00 EMaxC= 1.00D-01 BMatC= 1.05D-03 BMatP= 1.13D-02
 IDIUse=3 WtCom= 9.77D-01 WtEn= 2.28D-02
 Coeff-Com: -0.201D-01 0.236D-01-0.226D-02 0.134D-03 0.221D-01-0.222D-01
 Coeff-Com:  0.377D-01 0.203D+00 0.274D+00 0.483D+00
 Coeff-En:   0.000D+00 0.000D+00 0.000D+00 0.000D+00 0.000D+00 0.000D+00
 Coeff-En:   0.000D+00 0.000D+00 0.912D-01 0.909D+00
 Coeff:     -0.196D-01 0.231D-01-0.221D-02 0.131D-03 0.216D-01-0.217D-01
 Coeff:      0.369D-01 0.199D+00 0.270D+00 0.493D+00
 Gap=     0.161 Goal=   None    Shift=    0.000
 RMSDP=4.51D-05 MaxDP=2.77D-03 DE=-7.68D-03 OVMax= 5.16D-03

 Cycle  11  Pass 1  IDiag  1:
 RMSU=  1.98D-05    CP:  1.01D+00  1.97D+00  5.14D-01  2.31D-01  7.13D-01
                    CP:  3.93D-01  3.46D-01  6.59D-01  5.26D-01  5.19D-01
 E= -4220.84453355292     Delta-E=       -0.000629138514 Rises=F Damp=F
 DIIS: error= 6.56D-04 at cycle  11 NSaved=  11.
 NSaved=11 IEnMin=11 EnMin= -4220.84453355292     IErMin=11 ErrMin= 6.56D-04
 ErrMax= 6.56D-04  0.00D+00 EMaxC= 1.00D-01 BMatC= 2.02D-04 BMatP= 1.05D-03
 IDIUse=3 WtCom= 9.93D-01 WtEn= 6.56D-03
 Coeff-Com: -0.126D-01 0.149D-01-0.256D-03 0.267D-03 0.505D-02-0.818D-03
 Coeff-Com:  0.862D-02 0.330D-01 0.812D-01 0.204D+00 0.667D+00
 Coeff-En:   0.000D+00 0.000D+00 0.000D+00 0.000D+00 0.000D+00 0.000D+00
 Coeff-En:   0.000D+00 0.000D+00 0.000D+00 0.000D+00 0.100D+01
 Coeff:     -0.126D-01 0.148D-01-0.255D-03 0.265D-03 0.501D-02-0.813D-03
 Coeff:      0.856D-02 0.328D-01 0.807D-01 0.203D+00 0.669D+00
 Gap=     0.160 Goal=   None    Shift=    0.000
 RMSDP=1.92D-05 MaxDP=2.79D-03 DE=-6.29D-04 OVMax= 9.95D-04

 Cycle  12  Pass 1  IDiag  1:
 RMSU=  9.29D-06    CP:  1.01D+00  1.98D+00  5.15D-01  2.31D-01  7.10D-01
                    CP:  3.96D-01  3.50D-01  6.58D-01  5.44D-01  6.12D-01
                    CP:  8.65D-01
 E= -4220.84460636673     Delta-E=       -0.000072813818 Rises=F Damp=F
 DIIS: error= 5.81D-04 at cycle  12 NSaved=  12.
 NSaved=12 IEnMin=12 EnMin= -4220.84460636673     IErMin=12 ErrMin= 5.81D-04
 ErrMax= 5.81D-04  0.00D+00 EMaxC= 1.00D-01 BMatC= 1.02D-04 BMatP= 2.02D-04
 IDIUse=3 WtCom= 9.94D-01 WtEn= 5.81D-03
 Coeff-Com: -0.771D-02 0.905D-02-0.228D-03 0.343D-03 0.129D-02 0.425D-02
 Coeff-Com:  0.293D-02-0.113D-01 0.685D-02 0.532D-02 0.260D+00 0.730D+00
 Coeff-En:   0.000D+00 0.000D+00 0.000D+00 0.000D+00 0.000D+00 0.000D+00
 Coeff-En:   0.000D+00 0.000D+00 0.000D+00 0.000D+00 0.000D+00 0.100D+01
 Coeff:     -0.767D-02 0.900D-02-0.227D-03 0.341D-03 0.128D-02 0.422D-02
 Coeff:      0.291D-02-0.112D-01 0.681D-02 0.529D-02 0.258D+00 0.731D+00
 Gap=     0.160 Goal=   None    Shift=    0.000
 RMSDP=1.01D-05 MaxDP=1.12D-03 DE=-7.28D-05 OVMax= 8.50D-04

 Cycle  13  Pass 1  IDiag  1:
 RMSU=  5.93D-06    CP:  1.01D+00  1.98D+00  5.15D-01  2.32D-01  7.10D-01
                    CP:  3.96D-01  3.54D-01  6.55D-01  5.50D-01  6.27D-01
                    CP:  1.00D+00  1.04D+00
 E= -4220.84464957160     Delta-E=       -0.000043204864 Rises=F Damp=F
 DIIS: error= 3.69D-04 at cycle  13 NSaved=  13.
 NSaved=13 IEnMin=13 EnMin= -4220.84464957160     IErMin=13 ErrMin= 3.69D-04
 ErrMax= 3.69D-04  0.00D+00 EMaxC= 1.00D-01 BMatC= 4.35D-05 BMatP= 1.02D-04
 IDIUse=3 WtCom= 9.96D-01 WtEn= 3.69D-03
 Coeff-Com: -0.278D-02 0.327D-02-0.426D-03 0.187D-03 0.375D-03 0.433D-02
 Coeff-Com:  0.135D-02-0.237D-01-0.373D-01-0.139D+00-0.240D+00 0.732D+00
 Coeff-Com:  0.702D+00
 Coeff-En:   0.000D+00 0.000D+00 0.000D+00 0.000D+00 0.000D+00 0.000D+00
 Coeff-En:   0.000D+00 0.000D+00 0.000D+00 0.000D+00 0.000D+00 0.000D+00
 Coeff-En:   0.100D+01
 Coeff:     -0.277D-02 0.326D-02-0.424D-03 0.186D-03 0.373D-03 0.431D-02
 Coeff:      0.135D-02-0.236D-01-0.372D-01-0.138D+00-0.239D+00 0.729D+00
 Coeff:      0.703D+00
 Gap=     0.160 Goal=   None    Shift=    0.000
 RMSDP=9.59D-06 MaxDP=9.79D-04 DE=-4.32D-05 OVMax= 8.39D-04

 Cycle  14  Pass 1  IDiag  1:
 RMSU=  4.71D-06    CP:  1.01D+00  1.98D+00  5.16D-01  2.32D-01  7.09D-01
                    CP:  3.97D-01  3.58D-01  6.54D-01  5.58D-01  6.35D-01
                    CP:  1.14D+00  1.33D+00  6.56D-01
 E= -4220.84467689957     Delta-E=       -0.000027327967 Rises=F Damp=F
 DIIS: error= 1.33D-04 at cycle  14 NSaved=  14.
 NSaved=14 IEnMin=14 EnMin= -4220.84467689957     IErMin=14 ErrMin= 1.33D-04
 ErrMax= 1.33D-04  0.00D+00 EMaxC= 1.00D-01 BMatC= 7.10D-06 BMatP= 4.35D-05
 IDIUse=3 WtCom= 9.99D-01 WtEn= 1.33D-03
 Coeff-Com: -0.284D-03 0.335D-03-0.291D-03 0.117D-03-0.139D-03 0.200D-02
 Coeff-Com:  0.902D-03-0.146D-01-0.296D-01-0.104D+00-0.247D+00 0.271D+00
 Coeff-Com:  0.549D+00 0.572D+00
 Coeff-En:   0.000D+00 0.000D+00 0.000D+00 0.000D+00 0.000D+00 0.000D+00
 Coeff-En:   0.000D+00 0.000D+00 0.000D+00 0.000D+00 0.000D+00 0.000D+00
 Coeff-En:   0.000D+00 0.100D+01
 Coeff:     -0.283D-03 0.335D-03-0.291D-03 0.116D-03-0.139D-03 0.200D-02
 Coeff:      0.901D-03-0.146D-01-0.296D-01-0.104D+00-0.246D+00 0.271D+00
 Coeff:      0.549D+00 0.572D+00
 Gap=     0.160 Goal=   None    Shift=    0.000
 RMSDP=5.68D-06 MaxDP=7.78D-04 DE=-2.73D-05 OVMax= 4.36D-04

 Cycle  15  Pass 1  IDiag  1:
 RMSU=  2.67D-06    CP:  1.01D+00  1.99D+00  5.16D-01  2.32D-01  7.08D-01
                    CP:  3.97D-01  3.58D-01  6.50D-01  5.59D-01  6.38D-01
                    CP:  1.14D+00  1.60D+00  8.41D-01  5.49D-01
 E= -4220.84468203856     Delta-E=       -0.000005138998 Rises=F Damp=F
 DIIS: error= 1.93D-05 at cycle  15 NSaved=  15.
 NSaved=15 IEnMin=15 EnMin= -4220.84468203856     IErMin=15 ErrMin= 1.93D-05
 ErrMax= 1.93D-05  0.00D+00 EMaxC= 1.00D-01 BMatC= 4.19D-07 BMatP= 7.10D-06
 IDIUse=1 WtCom= 1.00D+00 WtEn= 0.00D+00
 Coeff-Com: -0.568D-04 0.705D-04-0.134D-03 0.247D-04 0.247D-03 0.458D-03
 Coeff-Com:  0.863D-03-0.371D-02-0.975D-02-0.340D-01-0.906D-01 0.290D-01
 Coeff-Com:  0.216D+00 0.346D+00 0.545D+00
 Coeff:     -0.568D-04 0.705D-04-0.134D-03 0.247D-04 0.247D-03 0.458D-03
 Coeff:      0.863D-03-0.371D-02-0.975D-02-0.340D-01-0.906D-01 0.290D-01
 Coeff:      0.216D+00 0.346D+00 0.545D+00
 Gap=     0.160 Goal=   None    Shift=    0.000
 RMSDP=1.78D-06 MaxDP=2.15D-04 DE=-5.14D-06 OVMax= 1.59D-04

 Cycle  16  Pass 1  IDiag  1:
 RMSU=  1.01D-06    CP:  1.01D+00  1.99D+00  5.16D-01  2.32D-01  7.09D-01
                    CP:  3.97D-01  3.59D-01  6.50D-01  5.58D-01  6.39D-01
                    CP:  1.16D+00  1.56D+00  8.85D-01  7.41D-01  7.90D-01
 E= -4220.84468228473     Delta-E=       -0.000000246169 Rises=F Damp=F
 DIIS: error= 1.69D-05 at cycle  16 NSaved=  16.
 NSaved=16 IEnMin=16 EnMin= -4220.84468228473     IErMin=16 ErrMin= 1.69D-05
 ErrMax= 1.69D-05  0.00D+00 EMaxC= 1.00D-01 BMatC= 1.60D-07 BMatP= 4.19D-07
 IDIUse=1 WtCom= 1.00D+00 WtEn= 0.00D+00
 Coeff-Com:  0.440D-05-0.374D-05-0.495D-04 0.585D-05 0.171D-03 0.732D-04
 Coeff-Com:  0.469D-03-0.717D-03-0.235D-02-0.699D-02-0.212D-01-0.259D-01
 Coeff-Com:  0.676D-01 0.158D+00 0.427D+00 0.403D+00
 Coeff:      0.440D-05-0.374D-05-0.495D-04 0.585D-05 0.171D-03 0.732D-04
 Coeff:      0.469D-03-0.717D-03-0.235D-02-0.699D-02-0.212D-01-0.259D-01
 Coeff:      0.676D-01 0.158D+00 0.427D+00 0.403D+00
 Gap=     0.160 Goal=   None    Shift=    0.000
 RMSDP=5.88D-07 MaxDP=2.63D-05 DE=-2.46D-07 OVMax= 7.17D-05

 Cycle  17  Pass 1  IDiag  1:
 RMSU=  4.01D-07    CP:  1.01D+00  1.99D+00  5.16D-01  2.32D-01  7.09D-01
                    CP:  3.97D-01  3.59D-01  6.50D-01  5.57D-01  6.39D-01
                    CP:  1.16D+00  1.57D+00  8.98D-01  7.34D-01  8.04D-01
                    CP:  6.19D-01
 E= -4220.84468240157     Delta-E=       -0.000000116839 Rises=F Damp=F
 DIIS: error= 2.81D-06 at cycle  17 NSaved=  17.
 NSaved=17 IEnMin=17 EnMin= -4220.84468240157     IErMin=17 ErrMin= 2.81D-06
 ErrMax= 2.81D-06  0.00D+00 EMaxC= 1.00D-01 BMatC= 7.13D-09 BMatP= 1.60D-07
 IDIUse=1 WtCom= 1.00D+00 WtEn= 0.00D+00
 Coeff-Com: -0.232D-04 0.294D-04-0.138D-04-0.503D-05 0.979D-04-0.130D-05
 Coeff-Com:  0.183D-03 0.244D-05-0.247D-03-0.109D-02-0.431D-02-0.113D-01
 Coeff-Com:  0.199D-01 0.463D-01 0.168D+00 0.201D+00 0.581D+00
 Coeff:     -0.232D-04 0.294D-04-0.138D-04-0.503D-05 0.979D-04-0.130D-05
 Coeff:      0.183D-03 0.244D-05-0.247D-03-0.109D-02-0.431D-02-0.113D-01
 Coeff:      0.199D-01 0.463D-01 0.168D+00 0.201D+00 0.581D+00
 Gap=     0.160 Goal=   None    Shift=    0.000
 RMSDP=2.07D-07 MaxDP=1.85D-05 DE=-1.17D-07 OVMax= 2.52D-05

 Cycle  18  Pass 1  IDiag  1:
 RMSU=  1.45D-07    CP:  1.01D+00  1.99D+00  5.16D-01  2.32D-01  7.09D-01
                    CP:  3.97D-01  3.59D-01  6.50D-01  5.57D-01  6.39D-01
                    CP:  1.16D+00  1.56D+00  8.93D-01  7.34D-01  8.23D-01
                    CP:  6.34D-01  7.83D-01
 E= -4220.84468240640     Delta-E=       -0.000000004824 Rises=F Damp=F
 DIIS: error= 3.26D-06 at cycle  18 NSaved=  18.
 NSaved=18 IEnMin=18 EnMin= -4220.84468240640     IErMin=17 ErrMin= 2.81D-06
 ErrMax= 3.26D-06  0.00D+00 EMaxC= 1.00D-01 BMatC= 2.11D-09 BMatP= 7.13D-09
 IDIUse=1 WtCom= 1.00D+00 WtEn= 0.00D+00
 Coeff-Com: -0.135D-04 0.165D-04 0.573D-06-0.229D-05 0.293D-04-0.120D-04
 Coeff-Com:  0.687D-04 0.882D-04 0.240D-03 0.135D-03-0.613D-03-0.252D-02
 Coeff-Com:  0.658D-02 0.983D-02 0.524D-01 0.584D-01 0.331D+00 0.545D+00
 Coeff:     -0.135D-04 0.165D-04 0.573D-06-0.229D-05 0.293D-04-0.120D-04
 Coeff:      0.687D-04 0.882D-04 0.240D-03 0.135D-03-0.613D-03-0.252D-02
 Coeff:      0.658D-02 0.983D-02 0.524D-01 0.584D-01 0.331D+00 0.545D+00
 Gap=     0.160 Goal=   None    Shift=    0.000
 RMSDP=8.79D-08 MaxDP=4.45D-06 DE=-4.82D-09 OVMax= 1.21D-05

 Cycle  19  Pass 1  IDiag  1:
 RMSU=  7.14D-08    CP:  1.01D+00  1.99D+00  5.16D-01  2.32D-01  7.09D-01
                    CP:  3.97D-01  3.59D-01  6.50D-01  5.57D-01  6.39D-01
                    CP:  1.16D+00  1.56D+00  8.93D-01  7.30D-01  8.25D-01
                    CP:  6.34D-01  8.29D-01  9.50D-01
 E= -4220.84468240783     Delta-E=       -0.000000001438 Rises=F Damp=F
 DIIS: error= 1.32D-06 at cycle  19 NSaved=  19.
 NSaved=19 IEnMin=19 EnMin= -4220.84468240783     IErMin=19 ErrMin= 1.32D-06
 ErrMax= 1.32D-06  0.00D+00 EMaxC= 1.00D-01 BMatC= 7.70D-10 BMatP= 2.11D-09
 IDIUse=1 WtCom= 1.00D+00 WtEn= 0.00D+00
 Coeff-Com: -0.529D-05 0.598D-05 0.424D-05-0.297D-06-0.288D-05-0.977D-05
 Coeff-Com:  0.104D-04 0.806D-04 0.316D-03 0.428D-03 0.463D-03 0.130D-02
 Coeff-Com:  0.489D-03-0.485D-02-0.506D-02-0.156D-01 0.927D-01 0.443D+00
 Coeff-Com:  0.487D+00
 Coeff:     -0.529D-05 0.598D-05 0.424D-05-0.297D-06-0.288D-05-0.977D-05
 Coeff:      0.104D-04 0.806D-04 0.316D-03 0.428D-03 0.463D-03 0.130D-02
 Coeff:      0.489D-03-0.485D-02-0.506D-02-0.156D-01 0.927D-01 0.443D+00
 Coeff:      0.487D+00
 Gap=     0.160 Goal=   None    Shift=    0.000
 RMSDP=4.68D-08 MaxDP=2.09D-06 DE=-1.44D-09 OVMax= 5.99D-06

 Cycle  20  Pass 1  IDiag  1:
 RMSU=  2.90D-08    CP:  1.01D+00  1.99D+00  5.16D-01  2.32D-01  7.09D-01
                    CP:  3.97D-01  3.59D-01  6.50D-01  5.57D-01  6.39D-01
                    CP:  1.16D+00  1.56D+00  8.92D-01  7.29D-01  8.25D-01
                    CP:  6.31D-01  8.63D-01  1.09D+00  7.31D-01
 E= -4220.84468240845     Delta-E=       -0.000000000616 Rises=F Damp=F
 DIIS: error= 3.69D-07 at cycle  20 NSaved=  20.
 NSaved=20 IEnMin=20 EnMin= -4220.84468240845     IErMin=20 ErrMin= 3.69D-07
 ErrMax= 3.69D-07  0.00D+00 EMaxC= 1.00D-01 BMatC= 4.94D-11 BMatP= 7.70D-10
 IDIUse=1 WtCom= 1.00D+00 WtEn= 0.00D+00
 Coeff-Com: -0.123D-05 0.150D-05 0.167D-06-0.151D-06-0.812D-07-0.134D-05
 Coeff-Com: -0.383D-05 0.230D-04 0.925D-04 0.128D-03 0.528D-04 0.559D-03
 Coeff-Com: -0.598D-03-0.309D-02-0.957D-02-0.147D-01-0.710D-02 0.811D-01
 Coeff-Com:  0.199D+00 0.754D+00
 Coeff:     -0.123D-05 0.150D-05 0.167D-06-0.151D-06-0.812D-07-0.134D-05
 Coeff:     -0.383D-05 0.230D-04 0.925D-04 0.128D-03 0.528D-04 0.559D-03
 Coeff:     -0.598D-03-0.309D-02-0.957D-02-0.147D-01-0.710D-02 0.811D-01
 Coeff:      0.199D+00 0.754D+00
 Gap=     0.160 Goal=   None    Shift=    0.000
 RMSDP=2.04D-08 MaxDP=1.87D-06 DE=-6.16D-10 OVMax= 3.33D-06

 Cycle  21  Pass 1  IDiag  1:
 Restarting incremental Fock formation.
 E= -4220.84468240934     Delta-E=       -0.000000000888 Rises=F Damp=F
 DIIS: error= 1.13D-07 at cycle  21 NSaved=  20.
 NSaved=20 IEnMin=20 EnMin= -4220.84468240934     IErMin=20 ErrMin= 1.13D-07
 ErrMax= 1.13D-07  0.00D+00 EMaxC= 1.00D-01 BMatC= 6.21D-12 BMatP= 4.94D-11
 IDIUse=1 WtCom= 1.00D+00 WtEn= 0.00D+00
 Coeff-Com: -0.108D-06 0.127D-06-0.184D-06 0.233D-06-0.950D-06-0.182D-05
 Coeff-Com:  0.125D-04 0.363D-04 0.905D-04 0.109D-03 0.987D-05-0.542D-03
 Coeff-Com: -0.128D-02-0.420D-02-0.517D-02-0.867D-02-0.161D-02 0.560D-01
 Coeff-Com:  0.401D+00 0.565D+00
 Coeff:     -0.108D-06 0.127D-06-0.184D-06 0.233D-06-0.950D-06-0.182D-05
 Coeff:      0.125D-04 0.363D-04 0.905D-04 0.109D-03 0.987D-05-0.542D-03
 Coeff:     -0.128D-02-0.420D-02-0.517D-02-0.867D-02-0.161D-02 0.560D-01
 Coeff:      0.401D+00 0.565D+00
 Gap=     0.160 Goal=   None    Shift=    0.000
 RMSDP=9.36D-09 MaxDP=1.16D-06 DE=-8.88D-10 OVMax= 6.36D-07

 Cycle  22  Pass 1  IDiag  1:
 RMSU=  9.33D-09    CP:  1.00D+00
 E= -4220.84468240933     Delta-E=        0.000000000005 Rises=F Damp=F
 DIIS: error= 5.57D-08 at cycle  22 NSaved=  20.
 NSaved=20 IEnMin=19 EnMin= -4220.84468240934     IErMin=20 ErrMin= 5.57D-08
 ErrMax= 5.57D-08  0.00D+00 EMaxC= 1.00D-01 BMatC= 2.23D-12 BMatP= 6.21D-12
 IDIUse=1 WtCom= 1.00D+00 WtEn= 0.00D+00
 Coeff-Com:  0.106D-06-0.132D-06-0.424D-07-0.736D-06-0.128D-05 0.721D-05
 Coeff-Com:  0.171D-04 0.690D-04 0.132D-03-0.103D-03-0.430D-03-0.615D-03
 Coeff-Com: -0.170D-02-0.127D-02-0.448D-02-0.144D-01 0.636D-02 0.157D+00
 Coeff-Com:  0.418D+00 0.441D+00
 Coeff:      0.106D-06-0.132D-06-0.424D-07-0.736D-06-0.128D-05 0.721D-05
 Coeff:      0.171D-04 0.690D-04 0.132D-03-0.103D-03-0.430D-03-0.615D-03
 Coeff:     -0.170D-02-0.127D-02-0.448D-02-0.144D-01 0.636D-02 0.157D+00
 Coeff:      0.418D+00 0.441D+00
 Gap=     0.160 Goal=   None    Shift=    0.000
 RMSDP=4.67D-09 MaxDP=3.45D-07 DE= 5.46D-12 OVMax= 3.82D-07

 SCF Done:  E(RB971) =  -4220.84468241     A.U. after   22 cycles
            NFock= 22  Conv=0.47D-08     -V/T= 2.0014
 KE= 4.215040776580D+03 PE=-1.404068314085D+04 EE= 3.585164418806D+03
 Leave Link  502 at Wed Dec 23 19:15:19 2015, MaxMem=   524288000 cpu:      2532.6
 (Enter /opt/g09/l801.exe)
 DoSCS=F DFT=T ScalE2(SS,OS)=  1.000000  1.000000
 Range of M.O.s used for correlation:     1   454
 NBasis=   454 NAE=    90 NBE=    90 NFC=     0 NFV=     0
 NROrb=    454 NOA=    90 NOB=    90 NVA=   364 NVB=   364

 **** Warning!!: The largest alpha MO coefficient is  0.29300104D+02

 Leave Link  801 at Wed Dec 23 19:15:19 2015, MaxMem=   524288000 cpu:         0.2
 (Enter /opt/g09/l1101.exe)
 Using compressed storage, NAtomX=    15.
 Will process     16 centers per pass.
 Leave Link 1101 at Wed Dec 23 19:15:20 2015, MaxMem=   524288000 cpu:         7.5
 (Enter /opt/g09/l1102.exe)
 Symmetrizing basis deriv contribution to polar:
 IMax=3 JMax=2 DiffMx= 0.00D+00
 Leave Link 1102 at Wed Dec 23 19:15:20 2015, MaxMem=   524288000 cpu:         0.4
 (Enter /opt/g09/l1110.exe)
 Forming Gx(P) for the SCF density, NAtomX=    15.
 Integral derivatives from FoFJK, PRISM(SPDF).
 Do as many integral derivatives as possible in FoFJK.
 G2DrvN: MDV=     524287776.
 G2DrvN: will do    16 centers at a time, making    1 passes.
 Calling FoFCou, ICntrl=  3107 FMM=F I1Cent=   0 AccDes= 0.00D+00.
 FoFJK:  IHMeth= 1 ICntrl=    3107 DoSepK=F KAlg= 0 I1Cent=   0 FoldK=F
 IRaf=         0 NMat=   1 IRICut=       1 DoRegI=T DoRafI=F ISym2E= 0.
 FoFCou: FMM=F IPFlag=           0 FMFlag=      100000 FMFlg1=           0
         NFxFlg=           0 DoJE=F BraDBF=F KetDBF=F FulRan=T
         wScrn=  0.000000 ICntrl=    3107 IOpCl=  0 I1Cent=           0 NGrid=           0
         NMat0=    1 NMatS0=      1 NMatT0=    0 NMatD0=    1 NMtDS0=    0 NMtDT0=    0
 Symmetry not used in FoFCou.
 End of G2Drv F.D. properties file   721 does not exist.
 End of G2Drv F.D. properties file   722 does not exist.
 End of G2Drv F.D. properties file   788 does not exist.
 Leave Link 1110 at Wed Dec 23 19:19:27 2015, MaxMem=   524288000 cpu:      1971.3
 (Enter /opt/g09/l1002.exe)
 Minotr:  Closed shell wavefunction.
          IDoAtm=111111111111111
          Direct CPHF calculation.
          Differentiating once with respect to electric field.
                with respect to dipole field.
          Differentiating once with respect to nuclear coordinates.
          Requested convergence is 1.0D-08 RMS, and 1.0D-07 maximum.
          Secondary convergence is 1.0D-12 RMS, and 1.0D-12 maximum.
          NewPWx=T KeepS1=F KeepF1=F KeepIn=T MapXYZ=F SortEE=F KeepMc=T.
          MDV=     524287392 using IRadAn=       1.
 Generate precomputed XC quadrature information.
          Solving linear equations simultaneously, MaxMat=       0.
 FoFJK:  IHMeth= 1 ICntrl=       0 DoSepK=F KAlg= 0 I1Cent=   0 FoldK=F
 IRaf= 680000000 NMat=  48 IRICut=     120 DoRegI=T DoRafI=T ISym2E= 0.
 FoFCou: FMM=F IPFlag=           0 FMFlag=      100000 FMFlg1=           0
         NFxFlg=           0 DoJE=F BraDBF=F KetDBF=F FulRan=T
         wScrn=  0.000000 ICntrl=       0 IOpCl=  0 I1Cent=           0 NGrid=           0
         NMat0=   48 NMatS0=     48 NMatT0=    0 NMatD0=   48 NMtDS0=    0 NMtDT0=    0
 Symmetry not used in FoFCou.
          There are    48 degrees of freedom in the 1st order CPHF.  IDoFFX=6 NUNeed=     3.
     45 vectors produced by pass  0 Test12= 6.82D-14 2.08D-09 XBig12= 1.92D+02 4.36D+00.
 AX will form    45 AO Fock derivatives at one time.
     45 vectors produced by pass  1 Test12= 6.82D-14 2.08D-09 XBig12= 1.54D+02 1.43D+00.
     45 vectors produced by pass  2 Test12= 6.82D-14 2.08D-09 XBig12= 1.31D+01 3.40D-01.
     45 vectors produced by pass  3 Test12= 6.82D-14 2.08D-09 XBig12= 5.87D-01 9.97D-02.
     45 vectors produced by pass  4 Test12= 6.82D-14 2.08D-09 XBig12= 9.76D-03 1.41D-02.
     45 vectors produced by pass  5 Test12= 6.82D-14 2.08D-09 XBig12= 2.12D-04 1.42D-03.
     45 vectors produced by pass  6 Test12= 6.82D-14 2.08D-09 XBig12= 1.32D-06 1.15D-04.
     37 vectors produced by pass  7 Test12= 6.82D-14 2.08D-09 XBig12= 6.96D-09 8.45D-06.
      9 vectors produced by pass  8 Test12= 6.82D-14 2.08D-09 XBig12= 4.02D-11 6.43D-07.
      3 vectors produced by pass  9 Test12= 6.82D-14 2.08D-09 XBig12= 1.54D-13 4.93D-08.
      3 vectors produced by pass 10 Test12= 6.82D-14 2.08D-09 XBig12= 9.99D-15 1.26D-08.
      2 vectors produced by pass 11 Test12= 6.82D-14 2.08D-09 XBig12= 3.14D-15 6.40D-09.
 InvSVY:  IOpt=1 It=  1 EMax= 5.33D-15
 Solved reduced A of dimension   369 with    48 vectors.
 FullF1:  Do perturbations    1 to     3.
 Isotropic polarizability for W=    0.000000      173.73 Bohr**3.
 End of Minotr F.D. properties file   721 does not exist.
 End of Minotr F.D. properties file   722 does not exist.
 End of Minotr F.D. properties file   788 does not exist.
 Leave Link 1002 at Wed Dec 23 19:38:29 2015, MaxMem=   524288000 cpu:      9121.7
 (Enter /opt/g09/l701.exe)
 Compute integral second derivatives.
 ... and contract with generalized density number  0.
 Leave Link  701 at Wed Dec 23 19:38:29 2015, MaxMem=   524288000 cpu:         5.1
 (Enter /opt/g09/l702.exe)
 L702 exits ... SP integral derivatives will be done elsewhere.
 Leave Link  702 at Wed Dec 23 19:38:29 2015, MaxMem=   524288000 cpu:         0.2
 (Enter /opt/g09/l703.exe)
 Compute integral second derivatives, UseDBF=F ICtDFT=           0.
 Integral derivatives from FoFJK, PRISM(SPDF).
 Calling FoFJK, ICntrl=    100127 FMM=F ISym2X=0 I1Cent= 0 IOpClX= 0 NMat=1 NMatS=1 NMatT=0.
 FoFJK:  IHMeth= 1 ICntrl=  100127 DoSepK=F KAlg= 0 I1Cent=   0 FoldK=F
 IRaf=         0 NMat=   1 IRICut=       1 DoRegI=T DoRafI=F ISym2E= 0.
 FoFCou: FMM=F IPFlag=           0 FMFlag=      100000 FMFlg1=         800
         NFxFlg=           0 DoJE=F BraDBF=F KetDBF=F FulRan=T
         wScrn=  0.000000 ICntrl=  100127 IOpCl=  0 I1Cent=           0 NGrid=           0
         NMat0=    1 NMatS0=      1 NMatT0=    0 NMatD0=    1 NMtDS0=    0 NMtDT0=    0
 Symmetry not used in FoFCou.
 Leave Link  703 at Wed Dec 23 19:49:08 2015, MaxMem=   524288000 cpu:      5100.0
 (Enter /opt/g09/l716.exe)
 Dipole        = 1.55931608D-01-8.12659542D-02 1.60261451D-01
 Polarizability= 1.96160094D+02 3.82422704D+01 1.70876534D+02
                -2.59537812D+01-1.92571321D+01 1.54154715D+02
 -------------------------------------------------------------------
 Center     Atomic                   Forces (Hartrees/Bohr)
 Number     Number              X              Y              Z
 -------------------------------------------------------------------
      1       22          -0.000002646    0.000001606    0.000000982
      2       22          -0.000003651    0.000000559    0.000002774
      3       22          -0.000001488    0.000000149   -0.000000817
      4        8           0.000000686   -0.000000953   -0.000000766
      5        8           0.000003634    0.000000302   -0.000000582
      6        8           0.000000258   -0.000001121    0.000000071
      7       17           0.000000757   -0.000000047   -0.000000103
      8        8          -0.000000026   -0.000001660   -0.000003104
      9        8          -0.000001876    0.000001440   -0.000000407
     10        8           0.000001220   -0.000002450   -0.000001653
     11        8           0.000001003   -0.000002347   -0.000001591
     12        8           0.000000617    0.000001800    0.000000522
     13       17          -0.000001871    0.000001518    0.000001149
     14        8           0.000002215   -0.000000379    0.000000678
     15        8           0.000001170    0.000001583    0.000002847
 -------------------------------------------------------------------
 Cartesian Forces:  Max     0.000003651 RMS     0.000001621
 FormGI is forming the generalized inverse of G from B-inverse, IUseBI=4.
 GSVD:  received Info=                   1 from GESDD.
 Leave Link  716 at Wed Dec 23 19:49:08 2015, MaxMem=   524288000 cpu:         0.3
 (Enter /opt/g09/l103.exe)

 GradGradGradGradGradGradGradGradGradGradGradGradGradGradGradGradGradGrad
 Berny optimization.
 Red2BG is reusing G-inverse.
 Internal  Forces:  Max     0.000002612 RMS     0.000000609
 Search for a local minimum.
 Step number   1 out of a maximum of  100
 All quantities printed in internal units (Hartrees-Bohrs-Radians)
 RMS Force = .60911D-06 SwitMx=.10000D-02 MixMth= 2
 Mixed Optimization -- En-DIIS/RFO-DIIS
 Second derivative matrix not updated -- analytic derivatives used.
 ITU=  0
     Eigenvalues ---    0.00016   0.00026   0.00059   0.00066   0.00299
     Eigenvalues ---    0.00556   0.00575   0.00639   0.01254   0.01893
     Eigenvalues ---    0.02000   0.02202   0.02272   0.04421   0.04439
     Eigenvalues ---    0.04981   0.06071   0.06213   0.06390   0.09114
     Eigenvalues ---    0.09165   0.10877   0.15310   0.15727   0.16785
     Eigenvalues ---    0.16817   0.19642   0.21460   0.21528   0.21876
     Eigenvalues ---    0.21921   0.22069   0.24204   0.24986   0.25898
     Eigenvalues ---    0.26283   0.27481   0.27974   0.28608
 RFO step:  Lambda= 0.00000000D+00 EMin= 1.57183457D-04
 Linear search not attempted -- first point.
 Iteration  1 RMS(Cart)=  0.00003593 RMS(Int)=  0.00000000
 Iteration  2 RMS(Cart)=  0.00000000 RMS(Int)=  0.00000000
 ITry= 1 IFail=0 DXMaxC= 1.14D-04 DCOld= 1.00D+10 DXMaxT= 2.56D+00 DXLimC= 3.00D+00 Rises=F
 Variable       Old X    -DE/DX   Delta X   Delta X   Delta X     New X
                                 (Linear)    (Quad)   (Total)
    R1        3.43851   0.00000   0.00000   0.00000   0.00000   3.43852
    R2        3.47638   0.00000   0.00000   0.00000   0.00000   3.47638
    R3        3.39165   0.00000   0.00000  -0.00001  -0.00001   3.39164
    R4        3.39603   0.00000   0.00000   0.00000   0.00000   3.39603
    R5        3.43826   0.00000   0.00000  -0.00001  -0.00001   3.43825
    R6        3.47628   0.00000   0.00000   0.00000   0.00000   3.47628
    R7        3.39168   0.00000   0.00000   0.00001   0.00001   3.39168
    R8        3.39634   0.00000   0.00000   0.00000   0.00000   3.39634
    R9        3.44573   0.00000   0.00000   0.00000   0.00000   3.44573
   R10        3.44593   0.00000   0.00000   0.00001   0.00001   3.44593
   R11        3.39891   0.00000   0.00000   0.00000   0.00000   3.39891
   R12        3.39962   0.00000   0.00000   0.00000   0.00000   3.39961
   R13        3.18512   0.00000   0.00000   0.00000   0.00000   3.18511
   R14        2.76727   0.00000   0.00000   0.00000   0.00000   2.76726
   R15        2.76009   0.00000   0.00000   0.00000   0.00000   2.76009
   R16        3.18503   0.00000   0.00000   0.00000   0.00000   3.18502
   R17        2.76698   0.00000   0.00000   0.00000   0.00000   2.76698
    A1        1.99493   0.00000   0.00000   0.00000   0.00000   1.99493
    A2        2.08131   0.00000   0.00000   0.00001   0.00001   2.08131
    A3        2.07244   0.00000   0.00000   0.00000   0.00000   2.07243
    A4        2.11927   0.00000   0.00000   0.00000   0.00000   2.11928
    A5        2.08061   0.00000   0.00000   0.00000   0.00000   2.08061
    A6        1.99553   0.00000   0.00000   0.00000   0.00000   1.99553
    A7        2.08058   0.00000   0.00000   0.00000   0.00000   2.08059
    A8        2.07156   0.00000   0.00000   0.00001   0.00001   2.07157
    A9        2.12103   0.00000   0.00000   0.00000   0.00000   2.12103
   A10        2.07914   0.00000   0.00000  -0.00001  -0.00001   2.07912
   A11        2.04113   0.00000   0.00000   0.00000   0.00000   2.04113
   A12        2.06587   0.00000   0.00000   0.00000   0.00000   2.06587
   A13        2.07187   0.00000   0.00000   0.00001   0.00001   2.07188
   A14        2.07151   0.00000   0.00000  -0.00001  -0.00001   2.07150
   A15        2.06678   0.00000   0.00000   0.00000   0.00000   2.06678
   A16        2.32461   0.00000   0.00000   0.00000   0.00000   2.32461
   A17        2.32517   0.00000   0.00000   0.00000   0.00000   2.32518
   A18        3.25782   0.00000   0.00000   0.00002   0.00002   3.25783
   A19        3.25102   0.00000   0.00000  -0.00001  -0.00001   3.25101
   A20        3.21105   0.00000   0.00000   0.00001   0.00001   3.21106
   A21        3.21927   0.00000   0.00000  -0.00001  -0.00001   3.21925
    D1       -1.76781   0.00000   0.00000   0.00006   0.00006  -1.76775
    D2        0.94765   0.00000   0.00000   0.00006   0.00006   0.94770
    D3        1.88509   0.00000   0.00000   0.00006   0.00006   1.88515
    D4        1.84778   0.00000   0.00000   0.00005   0.00005   1.84783
    D5       -1.71995   0.00000   0.00000   0.00005   0.00005  -1.71990
    D6       -0.78251   0.00000   0.00000   0.00005   0.00005  -0.78246
    D7        0.89563   0.00000   0.00000   0.00005   0.00005   0.89568
    D8       -2.67211   0.00000   0.00000   0.00005   0.00005  -2.67205
    D9       -1.73467   0.00000   0.00000   0.00005   0.00005  -1.73461
   D10       -3.07618   0.00000   0.00000   0.00000   0.00000  -3.07619
   D11       -0.37592   0.00000   0.00000   0.00001   0.00001  -0.37591
   D12        0.60689   0.00000   0.00000   0.00001   0.00001   0.60690
   D13       -1.81146   0.00000   0.00000  -0.00001  -0.00001  -1.81147
   D14        1.84743   0.00000   0.00000  -0.00001  -0.00001   1.84742
   D15        0.90809   0.00000   0.00000  -0.00001  -0.00001   0.90808
   D16        1.79761   0.00000   0.00000  -0.00001  -0.00001   1.79759
   D17       -0.82668   0.00000   0.00000  -0.00001  -0.00001  -0.82670
   D18       -1.76603   0.00000   0.00000  -0.00001  -0.00001  -1.76604
   D19        0.84617   0.00000   0.00000  -0.00002  -0.00002   0.84615
   D20       -1.77812   0.00000   0.00000  -0.00002  -0.00002  -1.77814
   D21       -2.71747   0.00000   0.00000  -0.00002  -0.00002  -2.71748
   D22       -3.07085   0.00000   0.00000   0.00001   0.00001  -3.07083
   D23       -0.36692   0.00000   0.00000   0.00002   0.00002  -0.36690
   D24        0.61565   0.00000   0.00000   0.00001   0.00001   0.61566
         Item               Value     Threshold  Converged?
 Maximum Force            0.000003     0.000015     YES
 RMS     Force            0.000001     0.000010     YES
 Maximum Displacement     0.000114     0.000060     NO 
 RMS     Displacement     0.000036     0.000040     YES
 Predicted change in Energy=-7.187835D-11
 Lowest energy point so far.  Saving SCF results.
 GradGradGradGradGradGradGradGradGradGradGradGradGradGradGradGradGradGrad

 Leave Link  103 at Wed Dec 23 19:49:08 2015, MaxMem=   524288000 cpu:         0.2
 (Enter /opt/g09/l202.exe)
                          Input orientation:                          
 ---------------------------------------------------------------------
 Center     Atomic      Atomic             Coordinates (Angstroms)
 Number     Number       Type             X           Y           Z
 ---------------------------------------------------------------------
      1         22           0       -3.447442   -0.203368   -0.476013
      2         22           0        1.657637    1.839127   -3.684704
      3         22           0       -1.940023    1.433594   -3.350832
      4          8           0       -2.609534    0.533796   -1.913158
      5          8           0       -0.132888    1.670323   -3.409209
      6          8           0       -3.913082   -1.969567   -0.694925
      7         17           0       -4.755570   -3.068157    0.266423
      8          8           0       -4.330857    0.862661    0.666083
      9          8           0       -3.035554    0.397910    1.166666
     10          8           0       -2.853032    1.370620   -4.899218
     11          8           0       -2.988299    2.636035   -4.182483
     12          8           0        2.334726    3.499313   -3.273178
     13         17           0        3.863832    4.192014   -3.423889
     14          8           0        2.466180    0.764017   -4.872858
     15          8           0        2.702906    0.391963   -3.476616
 ---------------------------------------------------------------------
                    Distance matrix (angstroms):
                    1          2          3          4          5
     1  Ti   0.000000
     2  Ti   6.366264   0.000000
     3  Ti   3.635456   3.635806   0.000000
     4  O    1.819584   4.801147   1.823400   0.000000
     5  O    4.806311   1.819443   1.823509   3.108639   0.000000
     6  O    1.839620   7.380911   4.746399   3.074111   5.908130
     7  Cl   3.235649   8.990109   6.424764   4.725474   7.571832
     8  O    1.794777   7.466251   4.709316   3.118267   5.906206
     9  O    1.797103   6.902097   4.762417   3.112117   5.566249
    10  O    4.732389   4.694750   1.798625   3.110646   3.115948
    11  O    4.691582   4.739997   1.798997   3.116521   3.111901
    12  O    7.414003   1.839571   4.748337   5.923652   3.074545
    13  Cl   9.025745   3.235954   6.426426   7.587446   4.725771
    14  O    7.432295   1.794801   4.709514   5.880111   3.117501
    15  O    6.869120   1.797268   4.760000   5.539543   3.111346
                    6          7          8          9         10
     6  O    0.000000
     7  Cl   1.685490   0.000000
     8  O    3.169920   3.973844   0.000000
     9  O    3.136960   3.972720   1.464373   0.000000
    10  O    5.473265   7.071509   5.780533   6.146090   0.000000
    11  O    5.850628   7.446731   5.334408   5.798692   1.460575
    12  O    8.694317  10.292363   8.179225   7.626980   5.838508
    13  Cl  10.290418  11.858439   9.745019   9.114272   7.433244
    14  O    8.100777   9.656678   8.768655   8.177956   5.353754
    15  O    7.555523   9.033916   8.176634   7.381736   5.818076
                   11         12         13         14         15
    11  O    0.000000
    12  O    5.468701   0.000000
    13  Cl   7.067407   1.685442   0.000000
    14  O    5.807962   3.171450   3.975437   0.000000
    15  O    6.158240   3.135692   3.973778   1.464225   0.000000
 Symmetry turned off by external request.
 Stoichiometry    Cl2O10Ti3
 Framework group  C1[X(Cl2O10Ti3)]
 Deg. of freedom    39
 Full point group                 C1      NOp   1
 Rotational constants (GHZ):      0.5021116      0.0975744      0.0946041
 Leave Link  202 at Wed Dec 23 19:49:08 2015, MaxMem=   524288000 cpu:         0.1
 (Enter /opt/g09/l301.exe)
 Standard basis: 6-311+G(d,p) (5D, 7F)
[...]
   R14        2.76726   0.00000   0.00000   0.00000   0.00000   2.76726
   R15        2.76009   0.00000   0.00000   0.00000   0.00000   2.76009
   R16        3.18502   0.00000   0.00000   0.00000   0.00000   3.18502
   R17        2.76698   0.00000   0.00000   0.00000   0.00000   2.76698
    A1        1.99493   0.00000   0.00000   0.00000   0.00000   1.99493
    A2        2.08131   0.00000   0.00000   0.00000   0.00000   2.08132
    A3        2.07243   0.00000   0.00000   0.00000   0.00000   2.07243
    A4        2.11928   0.00000   0.00000   0.00000   0.00000   2.11928
    A5        2.08061   0.00000   0.00000   0.00000   0.00000   2.08061
    A6        1.99553   0.00000   0.00000   0.00000   0.00000   1.99553
    A7        2.08059   0.00000   0.00000   0.00000   0.00000   2.08058
    A8        2.07157   0.00000   0.00000   0.00000   0.00000   2.07157
    A9        2.12102   0.00000   0.00000   0.00000   0.00000   2.12102
   A10        2.07913   0.00000   0.00000   0.00000   0.00000   2.07912
   A11        2.04113   0.00000   0.00000   0.00000   0.00000   2.04113
   A12        2.06587   0.00000   0.00000   0.00000   0.00000   2.06587
   A13        2.07188   0.00000   0.00000   0.00000   0.00000   2.07188
   A14        2.07150   0.00000   0.00000   0.00000   0.00000   2.07150
   A15        2.06678   0.00000   0.00000   0.00000   0.00000   2.06678
   A16        2.32461   0.00000   0.00000   0.00000   0.00000   2.32461
   A17        2.32518   0.00000   0.00000   0.00000   0.00000   2.32518
   A18        3.25782   0.00000   0.00000   0.00001   0.00001   3.25783
   A19        3.25101   0.00000   0.00000   0.00000   0.00000   3.25101
   A20        3.21106   0.00000   0.00000  -0.00005  -0.00005   3.21101
   A21        3.21925   0.00000   0.00000   0.00005   0.00005   3.21931
    D1       -1.76787   0.00000   0.00000   0.00016   0.00016  -1.76771
    D2        0.94758   0.00000   0.00000   0.00014   0.00014   0.94771
    D3        1.88502   0.00000   0.00000   0.00013   0.00013   1.88515
    D4        1.84770   0.00000   0.00000   0.00017   0.00017   1.84787
    D5       -1.72003   0.00000   0.00000   0.00014   0.00014  -1.71989
    D6       -0.78259   0.00000   0.00000   0.00014   0.00014  -0.78245
    D7        0.89555   0.00000   0.00000   0.00016   0.00016   0.89571
    D8       -2.67219   0.00000   0.00000   0.00014   0.00014  -2.67205
    D9       -1.73474   0.00000   0.00000   0.00013   0.00013  -1.73461
   D10       -3.07619   0.00000   0.00000   0.00000   0.00000  -3.07618
   D11       -0.37591   0.00000   0.00000   0.00000   0.00000  -0.37591
   D12        0.60691   0.00000   0.00000   0.00000   0.00000   0.60691
   D13       -1.81145   0.00000   0.00000  -0.00007  -0.00007  -1.81152
   D14        1.84744   0.00000   0.00000  -0.00004  -0.00004   1.84740
   D15        0.90810   0.00000   0.00000  -0.00004  -0.00004   0.90806
   D16        1.79762   0.00000   0.00000  -0.00008  -0.00008   1.79754
   D17       -0.82667   0.00000   0.00000  -0.00005  -0.00005  -0.82672
   D18       -1.76602   0.00000   0.00000  -0.00005  -0.00005  -1.76607
   D19        0.84617   0.00000   0.00000  -0.00007  -0.00007   0.84611
   D20       -1.77812   0.00000   0.00000  -0.00004  -0.00004  -1.77816
   D21       -2.71746   0.00000   0.00000  -0.00004  -0.00004  -2.71750
   D22       -3.07084   0.00000   0.00000   0.00001   0.00001  -3.07083
   D23       -0.36692   0.00000   0.00000   0.00002   0.00002  -0.36690
   D24        0.61565   0.00000   0.00000   0.00002   0.00002   0.61567
         Item               Value     Threshold  Converged?
 Maximum Force            0.000000     0.000015     YES
 RMS     Force            0.000000     0.000010     YES
 Maximum Displacement     0.000473     0.000060     NO 
 RMS     Displacement     0.000149     0.000040     NO 
 Predicted change in Energy=-4.698053D-11
 GradGradGradGradGradGradGradGradGradGradGradGradGradGradGradGradGradGrad

 Leave Link  103 at Wed Dec 23 21:32:59 2015, MaxMem=   524288000 cpu:         0.2
 (Enter /opt/g09/l9999.exe)
 1\1\GINC-CONSTABLE\Freq\RB971\6-311+G(d,p)\Cl2O10Ti3\PB556\23-Dec-2015
 \0\\#P Geom=AllCheck Guess=TCheck SCRF=Check GenChk RB971/6-311+G(d,p)
  Freq\\./1_internal-fine-1687_trimer_type-a_o-o-branch-adj3.g09\\0,1\T
 i,-3.44742283,-0.2033697501,-0.4760063877\Ti,1.6576322431,1.839145659,
 -3.6846945735\Ti,-1.9400249089,1.4335589678,-3.3508566179\O,-2.6095378
 257,0.5337819438,-1.9131710286\O,-0.1328931399,1.6703162554,-3.4092172
 335\O,-3.9132125326,-1.9695244523,-0.6949549214\Cl,-4.7557341987,-3.06
 80842784,0.2663974173\O,-4.3306898489,0.8626899334,0.6661764328\O,-3.0
 35396296,0.3978157952,1.1666708835\O,-2.8530148946,1.3705364764,-4.899
 2520813\O,-2.9883127904,2.6359639641,-4.1825460223\O,2.3346923719,3.49
 93431847,-3.27316785\Cl,3.863792277,4.1920626458,-3.4238538167\O,2.466
 2033904,0.7640469857,-4.8728393616\O,2.7029189832,0.3919966694,-3.4765
 948391\\Version=ES64L-G09RevD.01\HF=-4220.8446824\RMSD=6.712e-09\RMSF=
 1.116e-06\ZeroPoint=0.0331906\Thermal=0.0542554\Dipole=0.1557971,-0.08
 12364,0.160291\DipoleDeriv=2.0546397,0.5612735,-0.8333403,0.802855,2.9
 533666,-0.4885534,-0.8035321,-0.1260685,3.080894,3.7712769,0.2337303,-
 0.4851485,0.5714394,2.7116365,0.2179071,-0.2522689,0.3310356,1.6054814
 ,3.936659,0.460719,-0.447629,0.5557283,1.9626673,-1.0080823,-0.4104085
 ,-0.9362962,3.0038923,-1.4584517,-0.769336,1.3687679,-0.9384958,-1.418
 8786,1.4853938,1.6475096,1.468507,-3.1205434,-4.7110718,-0.6259492,0.6
 934852,-0.5049231,-0.6317692,0.077536,0.3951246,0.0537507,-0.6576325,-
 0.6001417,-0.2818785,0.0405248,-0.6009073,-1.6717927,0.324544,-0.15510
 51,-0.2327043,-0.2919821,0.0989295,-0.0117489,-0.0393793,0.0543043,0.0
 945271,-0.102236,0.0097461,0.0276672,0.0857081,-0.5021108,0.3146417,0.
 4933205,0.1767989,-0.4806869,-0.3689716,0.1008082,-0.136626,-0.4441363
 ,-0.2316648,-0.177224,-0.4174186,-0.0052526,-0.2763005,-0.0682827,0.01
 86116,-0.2566315,-0.864485,-0.4285106,0.0452728,-0.2237088,-0.2302497,
 -0.1671431,-0.298346,-0.4377275,0.1517961,-0.8618726,-0.5109247,0.2037
 907,-0.2581144,0.4699509,-0.6381925,0.513034,-0.047622,0.0586468,-0.30
 72873,-0.6639021,-0.3572701,-0.044177,-0.9613713,-1.4203851,-0.0529036
 ,-0.2621168,-0.2459257,-0.4826803,0.1272914,-0.0390006,-0.02309,0.1032
 615,0.0705844,-0.0312988,0.0207454,0.0081651,0.0809195,-0.3686346,0.13
 80967,0.1199409,0.1468949,-0.4170864,-0.1282353,0.4445064,-0.4761515,-
 0.641402,-0.5133838,0.3048825,0.0559666,0.3599666,-0.6705469,-0.071505
 1,-0.2682711,0.3108353,-0.1848737\Polar=196.1602885,38.2438998,170.875
 4158,-25.9527479,-19.2565981,154.1556183\PG=C01 [X(Cl2O10Ti3)]\NImag=0
 \\0.17015331,0.05790825,0.40183695,-0.11028316,0.09339427,0.46966941,-
 0.00714935,-0.00790225,0.01320716,0.43624054,-0.00195610,0.00075778,0.
 00223874,-0.05704787,0.45170107,0.00186482,0.00171968,-0.00032294,-0.0
 6943812,0.11294518,0.15343047,-0.00648785,-0.01361005,0.02385844,-0.06
 200100,-0.00803339,0.00846591,0.43967319,-0.01496066,-0.00840038,0.026
 17220,-0.01064255,0.00507489,0.00090486,-0.01120074,0.21198858,0.02417
 024,0.02346606,-0.03593309,0.00671240,0.00063122,0.00610937,0.07968238
 ,-0.14885073,0.40585048,-0.05515066,-0.03498502,0.05858416,0.01236809,
 0.00187448,-0.00155084,-0.05368104,-0.02515729,0.03800490,0.09227295,-
 0.03085979,-0.05811896,0.04297895,0.01344527,-0.00046313,-0.00131765,-
 0.02653894,-0.05633557,0.06138769,0.06880431,0.10200788,0.05889636,0.0
 5048154,-0.11934874,-0.02214308,-0.00202476,0.00064862,0.03872461,0.05
 861667,-0.11458903,-0.12050476,-0.13075227,0.25782129,0.01056244,0.012
 64294,-0.02308816,-0.17462888,-0.02144530,0.02281872,-0.16770913,-0.01
 828494,0.00452669,-0.01797088,-0.02859214,0.04825561,0.38796365,0.0020
 9857,0.00059931,-0.00376227,-0.01431899,-0.03367814,-0.00201467,-0.020
 69590,-0.02506121,0.00756997,-0.00497922,0.00017971,0.00390521,0.04049
 671,0.03290439,-0.00208247,-0.00217270,0.00152814,0.02721167,-0.000549
 67,-0.02438795,0.00228480,0.00749401,-0.03180403,0.00577060,0.00015442
 ,0.00339184,-0.03388638,-0.00453829,0.03128031,-0.01758155,-0.05446761
 ,0.00090473,0.00076118,0.00040374,-0.00033039,0.00012057,0.00167908,-0
 .00285676,-0.00091595,-0.00326005,0.00327276,-0.00088683,-0.00031662,0
 .00031621,0.07576838,-0.04662821,-0.18608229,-0.02190083,0.00436579,0.
 00001822,-0.00089941,0.00601618,0.00568790,-0.01076573,-0.01233906,-0.
 00953972,0.02390443,-0.00698881,-0.00063010,0.00095848,0.13405515,0.30
 503293,0.00618949,-0.00680230,-0.02089589,0.00074122,-0.00011231,-0.00
 026917,0.00055925,0.00138961,-0.00280846,-0.00431873,-0.00084079,0.011
 85210,-0.00131107,-0.00001928,0.00023029,-0.06183636,-0.07221385,0.079
 99265,-0.00708510,-0.00107997,0.00563716,0.00014319,-0.00005355,-0.000
 01088,0.00020087,0.00013273,-0.00039519,0.00011060,-0.00063758,0.00050
 043,-0.00025603,-0.00000655,0.00002084,-0.05890699,-0.08280967,0.06252
 384,0.06264045,-0.00818128,-0.01138326,0.01171271,-0.00002922,-0.00008
 284,-0.00000369,-0.00004258,-0.00016447,-0.00027290,-0.00007226,0.0003
 4990,0.00002062,0.00000506,0.00003253,0.00000492,-0.07745052,-0.108800
 07,0.08376029,0.08465743,0.11885849,0.00023172,-0.00376034,-0.00672101
 ,-0.00027361,0.00001602,0.00004514,-0.00032929,-0.00054733,0.00075337,
 0.00089318,0.00154547,-0.00072354,0.00046621,0.00004214,-0.00004409,0.
 06641419,0.09502388,-0.07064317,-0.06760789,-0.09207824,0.07566657,-0.
 05935247,0.06253575,0.07378203,0.00197398,0.00065071,-0.00028909,0.002
 39873,0.00468278,-0.00531953,-0.00479682,-0.00790352,0.01261499,-0.003
 31191,-0.00071551,0.00030877,0.00209944,0.01063853,-0.00160680,0.00289
 264,0.00043574,0.00044666,0.22648031,0.06478407,-0.09890354,-0.0789363
 5,-0.00151346,-0.00058526,-0.00002144,-0.00267005,-0.00375493,0.003337
 96,0.00338342,0.01462359,-0.01376494,0.00295318,0.00060395,0.00007801,
 0.00081183,-0.00606538,-0.00203755,-0.00062957,0.00056188,-0.00018128,
 -0.12586532,0.11337589,0.07321252,-0.08396549,-0.10199054,-0.00137682,
 -0.00029940,0.00002202,-0.00223959,-0.00223855,0.00325658,0.00409816,0
 .00340150,-0.00769040,0.00227695,0.00039120,-0.00008986,-0.00100030,-0
 .00513128,0.00233855,-0.00268488,-0.00106381,-0.00017647,-0.00949788,0
 .06037184,0.12139006,-0.02474695,-0.02082194,-0.04418977,-0.00135983,-
 0.00025328,-0.00028041,-0.00263997,-0.00319881,0.00284436,0.01045915,0
 .00753739,-0.00669157,0.00283417,0.00051748,0.00007776,-0.00093585,-0.
 00675828,-0.00157590,0.00021168,0.00057745,-0.00011420,-0.16919297,0.0
 5929487,-0.06268981,0.18558021,-0.02592771,-0.04038632,-0.06627740,-0.
 00023688,-0.00026049,-0.00013245,0.00022412,-0.00149287,0.00145207,0.0
 0705408,0.00588044,-0.00302290,0.00049215,0.00024594,-0.00003096,-0.00
 091377,0.00099312,-0.00297434,0.00038216,0.00050035,-0.00013053,0.0570
 7023,-0.02113287,0.02790680,-0.03769524,0.05518825,-0.04617458,-0.0664
 8726,-0.19362384,-0.00276958,-0.00059175,-0.00004027,-0.00432594,-0.00
 502540,0.00685095,0.01120335,0.00898237,-0.01477397,0.00487950,0.00075
 101,-0.00032285,-0.00574483,-0.01190651,-0.00065610,0.00191142,-0.0021
 7190,0.00205317,-0.07169802,0.03185172,-0.01649225,0.11308204,0.043435
 15,0.21842592,-0.00236507,-0.00052701,0.00291521,0.00426315,0.00031322
 ,-0.00066669,-0.07302443,-0.01189791,-0.09396675,0.00912645,0.00918591
 ,-0.00598697,-0.00693529,-0.00087857,-0.00274344,0.00036980,0.00062404
 ,0.00008896,0.00004026,0.00008287,-0.00005500,0.00044358,-0.00042623,-
 0.00019149,-0.00016388,-0.00025999,-0.00058968,0.06998282,-0.00224929,
 -0.00154807,0.00130546,0.00309180,-0.00000738,-0.00142811,-0.00819735,
 -0.01017387,-0.00540262,0.00595470,0.00711040,-0.00377339,-0.00633370,
 -0.00000778,0.00045662,0.00033586,0.00092693,0.00042947,0.00006293,0.0
 0005807,-0.00008427,0.00034506,-0.00033456,-0.00031469,0.00006808,-0.0
 0001666,-0.00017694,-0.00852168,0.16649554,-0.00452610,-0.00399673,0.0
 0637705,0.00712436,0.00177883,-0.00250841,-0.09128594,-0.01132036,-0.1
 7949665,0.00812902,0.01114192,-0.01438329,-0.02297348,-0.00030308,0.00
 876233,0.00053536,0.00218142,0.00064604,0.00008744,0.00006143,-0.00018
 531,0.00090114,-0.00068957,-0.00047687,-0.00044759,-0.00031043,-0.0014
 0560,0.08564696,0.09903511,0.22820718,-0.00289119,-0.00192552,0.002331
 87,0.00532861,0.00089646,-0.00043405,-0.09129574,0.08662166,-0.0512749
 2,0.01148655,0.00226270,-0.01273506,-0.01010417,0.00072344,-0.00079604
 ,0.00036083,0.00107068,0.00073695,0.00004409,-0.00000238,-0.00014637,0
 .00092231,-0.00051651,-0.00029606,-0.00039889,-0.00023971,-0.00053757,
 -0.00078795,0.01620474,0.01819837,0.08860919,0.00496878,0.00268750,-0.
 00595101,-0.00752080,-0.00187935,0.00229314,0.08302465,-0.11427997,0.0
 6763863,-0.00891718,-0.00659044,0.01610797,0.02054105,0.00996910,-0.00
 262420,-0.00061955,-0.00180797,-0.00071856,-0.00007217,0.00000377,0.00
 018723,-0.00149171,0.00124974,0.00078049,0.00060915,0.00029861,0.00103
 169,0.01239388,-0.16266615,-0.09705234,-0.10477846,0.27212714,-0.00088
 998,-0.00131792,0.00192713,0.00216101,-0.00071859,-0.00089478,-0.05388
 581,0.07362337,-0.05521664,-0.00041148,0.00329744,-0.00308487,-0.00700
 678,-0.00390675,0.00189971,0.00017344,0.00046301,0.00008587,0.00001915
 ,0.00002594,-0.00001246,0.00033189,-0.00013044,-0.00017089,-0.00026802
 ,-0.00001009,-0.00023258,0.01524246,-0.09066924,-0.04664695,0.04506569
 ,0.01895269,0.10207654,0.00070353,0.00062205,-0.00106608,-0.05267427,-
 0.07419427,-0.01588064,0.00374254,0.00063686,-0.00078236,-0.00097664,-
 0.00094056,0.00154582,-0.00271997,-0.00355780,-0.00058775,-0.00010413,
 -0.00035892,-0.00004725,-0.00000423,0.00001241,0.00001740,-0.00018559,
 0.00012078,0.00012208,0.00008779,0.00001471,0.00022605,-0.00030069,-0.
 00018469,-0.00009160,-0.00030313,0.00045367,-0.00021961,0.23302762,0.0
 0208554,0.00129537,-0.00335122,-0.05786795,-0.15998625,-0.04306519,0.0
 1321199,0.00096105,-0.00085890,-0.00296778,-0.00263438,0.00514124,-0.0
 2956043,0.00127331,0.00438896,-0.00029233,-0.00086229,-0.00011273,-0.0
 0000579,0.00003536,0.00004672,-0.00063431,0.00050993,0.00037171,0.0003
 4986,0.00013556,0.00075140,-0.00083683,-0.00073969,-0.00218903,-0.0012
 9954,0.00222450,-0.00016635,0.16797872,0.21485447,0.00037533,0.0002404
 5,-0.00130049,-0.01036147,-0.03854537,-0.01197577,0.00330991,0.0007154
 2,-0.00165484,-0.00085261,-0.00092916,0.00206053,-0.00856825,0.0007716
 6,0.00281782,-0.00001969,-0.00017643,-0.00000223,-0.00000673,0.0000080
 7,0.00001309,-0.00017219,0.00019733,0.00014108,0.00022240,0.00007831,0
 .00031630,-0.00012562,-0.00009947,-0.00024189,-0.00041338,0.00033924,0
 .00005378,0.00127520,0.03249702,0.01273392,0.00009268,0.00004177,-0.00
 025323,-0.01294996,0.00262908,0.00324216,0.00103642,0.00002341,-0.0000
 0991,-0.00018746,-0.00019018,0.00038927,-0.00146967,-0.00096819,-0.000
 03728,-0.00000520,-0.00003168,-0.00000366,-0.00000138,0.00000073,0.000
 00382,-0.00003837,0.00004381,0.00002746,0.00004076,0.00001750,0.000062
 02,-0.00005746,-0.00006736,-0.00021131,-0.00010946,0.00023469,-0.00003
 575,-0.19162884,-0.10093121,0.01381934,0.20197860,-0.00007430,-0.00009
 392,0.00005342,-0.01402309,-0.00811744,0.00197731,-0.00019206,-0.00031
 375,-0.00005691,0.00006884,0.00008818,-0.00010330,0.00059282,0.0007127
 4,0.00001740,0.00001415,0.00004920,0.00000919,0.00000082,-0.00000020,-
 0.00000210,0.00001240,0.00000107,-0.00000606,0.00000701,0.00000561,-0.
 00000767,-0.00000796,0.00003851,0.00007926,0.00003756,0.00003675,-0.00
 003078,-0.08881908,-0.04514230,0.00711582,0.09990286,0.05241607,-0.000
 03659,-0.00004143,0.00010420,-0.00192380,-0.00181090,-0.00407488,-0.00
 025258,-0.00010360,0.00006709,0.00007372,0.00008597,-0.00015527,0.0005
 1103,0.00020943,0.00048934,0.00000173,0.00002173,0.00000146,0.00000095
 ,-0.00000042,-0.00000140,0.00001351,-0.00001185,-0.00001216,-0.0000144
 9,-0.00000349,-0.00002469,0.00001567,0.00002429,0.00004843,0.00002357,
 -0.00003146,-0.00001472,0.01771463,0.01002660,-0.00137990,-0.01660445,
 -0.00758957,0.00255069,0.00051995,0.00058389,-0.00088078,-0.06228382,0
 .05807382,0.06514198,0.00377909,0.00044841,-0.00029252,-0.00080358,-0.
 00083940,0.00133403,-0.00481673,0.00160507,0.00312961,-0.00006483,-0.0
 0032301,-0.00004787,-0.00001004,0.00000493,0.00001898,-0.00012913,0.00
 008159,0.00009484,0.00007491,0.00000991,0.00017544,-0.00031227,-0.0002
 3850,-0.00058382,-0.00021500,0.00044264,-0.00000437,0.00553522,0.00294
 841,0.00102842,0.00121125,0.00221118,-0.00195300,0.06072915,-0.0003704
 2,-0.00081309,0.00080427,0.05347396,-0.09351039,-0.09567585,-0.0035586
 9,-0.00155527,0.00079751,0.00069178,0.00129694,-0.00172811,0.01355855,
 0.00408084,0.00300221,0.00001356,0.00038567,0.00009055,0.00002058,0.00
 001172,-0.00002766,0.00008833,-0.00004988,-0.00006634,-0.00008202,0.00
 001841,-0.00014767,0.00032071,0.00050306,0.00055075,0.00018931,-0.0005
 7085,0.00010711,-0.00022836,-0.00277227,-0.00225341,-0.00014900,-0.000
 25945,0.00068827,-0.06613700,0.10171255,-0.00122026,-0.00150136,0.0015
 9051,0.06490769,-0.09271110,-0.10459788,-0.00843107,-0.00270044,-0.000
 33461,0.00175819,0.00229941,-0.00311793,0.02181780,0.00417558,0.002916
 38,0.00014679,0.00080180,0.00019068,0.00002699,0.00000699,-0.00004971,
 0.00027999,-0.00016240,-0.00014956,-0.00010177,0.00002294,-0.00029726,
 0.00076021,0.00081780,0.00181387,0.00057269,-0.00111025,0.00031819,-0.
 00550457,-0.00950382,-0.00440487,-0.00040101,-0.00127165,0.00233669,-0
 .03452781,0.04162735,0.29896833,0.00077827,0.00098472,-0.00145958,-0.0
 8803163,0.09814225,-0.01265247,0.00588775,0.00111797,-0.00104302,-0.00
 134076,-0.00147343,0.00252754,-0.01055077,0.00099609,0.00101310,-0.000
 07886,-0.00053274,-0.00009205,-0.00002003,0.00000163,0.00003419,-0.000
 20375,0.00014757,0.00014484,0.00014966,0.00000846,0.00030037,-0.000279
 04,-0.00027060,-0.00050282,-0.00064604,0.00073135,-0.00027184,0.005800
 79,0.00782167,0.00048933,0.00208810,0.00026885,0.00243011,-0.00321417,
 0.00216871,-0.04008385,0.08966047,-0.00063744,-0.00144709,0.00151906,0
 .09672624,-0.15898128,0.02471829,-0.00773720,-0.00218013,-0.00007333,0
 .00158620,0.00214516,-0.00300800,0.01992287,0.00877540,-0.00663921,0.0
 0000707,0.00069384,0.00015262,0.00003820,0.00001879,-0.00004971,0.0001
 5083,-0.00009962,-0.00013791,-0.00015171,0.00002292,-0.00028825,0.0004
 3554,0.00036166,0.00103282,0.00075557,-0.00080239,0.00048060,-0.001555
 52,-0.00915236,0.00004049,-0.00055622,0.00057894,-0.00146357,0.0011280
 5,-0.00847800,0.05920915,-0.11011250,0.16854415,0.00027264,0.00074352,
 -0.00105989,-0.01377902,0.01975385,-0.01118357,0.00386490,0.00187027,-
 0.00105049,-0.00087685,-0.00143526,0.00209266,-0.00871839,-0.00327187,
 0.00333264,0.00002313,-0.00036071,-0.00006260,-0.00002262,-0.00001002,
 0.00002582,-0.00009549,0.00009896,0.00010072,0.00014698,-0.00000268,0.
 00022308,-0.00034384,-0.00012003,-0.00050995,-0.00029567,0.00015675,-0
 .00008732,0.00327868,0.00602360,0.00282346,0.00001254,-0.00018435,0.00
 006511,-0.03263315,0.05223102,-0.19518282,0.04916616,-0.07549305,0.200
 47317\\0.00000044,-0.00000011,0.00000043,-0.00000013,-0.00000112,-0.00
 000128,-0.00000030,0.00000102,0.00000072,0.,0.00000042,0.00000060,-0.0
 0000029,0.,-0.00000018,-0.00000048,0.00000066,0.00000005,-0.00000049,0
 .00000033,-0.00000012,0.00000163,-0.00000004,0.00000176,0.00000189,-0.
 00000100,0.00000098,-0.00000125,0.00000222,0.00000118,-0.00000020,0.00
 000187,0.00000199,0.00000079,-0.00000087,-0.00000048,0.00000097,-0.000
 00188,-0.00000106,-0.00000157,-0.00000034,-0.00000194,-0.00000101,-0.0
 0000115,-0.00000263\\\@


 IF GOD HAD MEANT MAN TO SEE THE SUN RISE, HE
 WOULD HAVE SCHEDULED IT FOR A LATER HOUR.
 Job cpu time:       0 days  4 hours 31 minutes 31.9 seconds.
 File lengths (MBytes):  RWF=    382 Int=      0 D2E=      0 Chk=     15 Scr=      1
 Normal termination of Gaussian 09 at Wed Dec 23 21:32:59 2015.
