 Entering Gaussian System, Link 0=g09
 Input=0_0-freq-verify-ClOTi.gau
 Output=0_0-freq-verify-ClOTi.log
 Initial command:
 /opt/g09/l1.exe "/scratch/pb556/g09_run/ti_runs//Gau-11605.inp" -scrdir="/scratch/pb556/g09_run/ti_runs//"
 Entering Link 1 = /opt/g09/l1.exe PID=     11606.
  
 Copyright (c) 1988,1990,1992,1993,1995,1998,2003,2009,2013,
            Gaussian, Inc.  All Rights Reserved.
  
 This is part of the Gaussian(R) 09 program.  It is based on
 the Gaussian(R) 03 system (copyright 2003, Gaussian, Inc.),
 the Gaussian(R) 98 system (copyright 1998, Gaussian, Inc.),
 the Gaussian(R) 94 system (copyright 1995, Gaussian, Inc.),
 the Gaussian 92(TM) system (copyright 1992, Gaussian, Inc.),
 the Gaussian 90(TM) system (copyright 1990, Gaussian, Inc.),
 the Gaussian 88(TM) system (copyright 1988, Gaussian, Inc.),
 the Gaussian 86(TM) system (copyright 1986, Carnegie Mellon
 University), and the Gaussian 82(TM) system (copyright 1983,
 Carnegie Mellon University). Gaussian is a federally registered
 trademark of Gaussian, Inc.
  
 This software contains proprietary and confidential information,
 including trade secrets, belonging to Gaussian, Inc.
  
 This software is provided under written license and may be
 used, copied, transmitted, or stored only in accord with that
 written license.
  
 The following legend is applicable only to US Government
 contracts under FAR:
  
                    RESTRICTED RIGHTS LEGEND
  
 Use, reproduction and disclosure by the US Government is
 subject to restrictions as set forth in subparagraphs (a)
 and (c) of the Commercial Computer Software - Restricted
 Rights clause in FAR 52.227-19.
  
 Gaussian, Inc.
 340 Quinnipiac St., Bldg. 40, Wallingford CT 06492
  
  
 ---------------------------------------------------------------
 Warning -- This program may not be used in any manner that
 competes with the business of Gaussian, Inc. or will provide
 assistance to any competitor of Gaussian, Inc.  The licensee
 of this program is prohibited from giving any competitor of
 Gaussian, Inc. access to this program.  By using this program,
 the user acknowledges that Gaussian, Inc. is engaged in the
 business of creating and licensing software in the field of
 computational chemistry and represents and warrants to the
 licensee that it is not a competitor of Gaussian, Inc. and that
 it will not use this program in any manner prohibited above.
 ---------------------------------------------------------------
  

 Cite this work as:
 Gaussian 09, Revision D.01,
 M. J. Frisch, G. W. Trucks, H. B. Schlegel, G. E. Scuseria, 
 M. A. Robb, J. R. Cheeseman, G. Scalmani, V. Barone, B. Mennucci, 
 G. A. Petersson, H. Nakatsuji, M. Caricato, X. Li, H. P. Hratchian, 
 A. F. Izmaylov, J. Bloino, G. Zheng, J. L. Sonnenberg, M. Hada, 
 M. Ehara, K. Toyota, R. Fukuda, J. Hasegawa, M. Ishida, T. Nakajima, 
 Y. Honda, O. Kitao, H. Nakai, T. Vreven, J. A. Montgomery, Jr., 
 J. E. Peralta, F. Ogliaro, M. Bearpark, J. J. Heyd, E. Brothers, 
 K. N. Kudin, V. N. Staroverov, T. Keith, R. Kobayashi, J. Normand, 
 K. Raghavachari, A. Rendell, J. C. Burant, S. S. Iyengar, J. Tomasi, 
 M. Cossi, N. Rega, J. M. Millam, M. Klene, J. E. Knox, J. B. Cross, 
 V. Bakken, C. Adamo, J. Jaramillo, R. Gomperts, R. E. Stratmann, 
 O. Yazyev, A. J. Austin, R. Cammi, C. Pomelli, J. W. Ochterski, 
 R. L. Martin, K. Morokuma, V. G. Zakrzewski, G. A. Voth, 
 P. Salvador, J. J. Dannenberg, S. Dapprich, A. D. Daniels, 
 O. Farkas, J. B. Foresman, J. V. Ortiz, J. Cioslowski, 
 and D. J. Fox, Gaussian, Inc., Wallingford CT, 2013.
 
 ******************************************
 Gaussian 09:  ES64L-G09RevD.01 24-Apr-2013
                19-Jul-2016 
 ******************************************
 %NProcShared=8
 Will use up to    8 processors via shared memory.
 %Mem=500MW
 ----------------------------------------------------------------------
 #p uB971/6-311+G(d,p) Opt=(Tight, CalcAll, MaxCycles=512, MaxStep=256)
  Freq GFInput Population=None Integral(Grid=UltraFine) Geom=Connectivi
 ty SCF=XQC Guess=MIX NoSymmetry
 ----------------------------------------------------------------------
 1/6=512,7=10,8=256,10=4,14=-1,18=20,19=15,26=4,38=1,57=2/1,3;
 2/9=110,12=2,15=1,17=6,18=5,40=1/2;
 3/5=4,6=6,7=111,11=2,16=1,24=10,25=1,30=1,71=2,74=-20,75=-5,116=2,140=1/1,2,3;
 4/13=-1/1;
 5/5=2,8=3,13=1,38=5/2,8;
 8/6=4,10=90,11=11/1;
 11/6=1,8=1,9=11,15=111,16=1,31=1/1,2,10;
 10/6=1,31=1/2;
 7/10=1,25=1,30=1/1,2,3,16;
 1/6=512,7=10,8=256,10=4,14=-1,18=20,19=15,26=4/3(3);
 2/9=110,15=1/2;
 7/8=1,9=1,25=1,30=1,44=-1/16;
 99//99;
 2/9=110,15=1/2;
 3/5=4,6=6,7=111,11=2,16=1,25=1,30=1,71=2,74=-20,75=-5,116=2,140=1/1,2,3;
 4/5=5,16=3,69=1/1;
 5/5=2,8=3,13=1,38=5/2,8;
 8/6=4,10=90,11=11/1;
 11/6=1,8=1,9=11,15=111,16=1,31=1/1,2,10;
 10/6=1,31=1/2;
 7/10=1,25=1,30=1/1,2,3,16;
 1/6=512,7=10,8=256,10=4,14=-1,18=20,19=15,26=4/3(-8);
 2/9=110,15=1/2;
 7/8=1,9=1,25=1,30=1,44=-1/16;
 99//99;
 Leave Link    1 at Tue Jul 19 06:24:20 2016, MaxMem=   524288000 cpu:         0.8
 (Enter /opt/g09/l101.exe)
 ----------------------
 ./0_0-verify-ClOTi.g09
 ----------------------
 Symbolic Z-matrix:
 Charge =  0 Multiplicity = 2
 Ti                   -1.07419   0.01554   1.00124 
 O                    -1.86396   1.36105   0.5861 
 Cl                   -0.79966  -1.16009   2.98166 
 
 NAtoms=      3 NQM=        3 NQMF=       0 NMMI=      0 NMMIF=      0
                NMic=       0 NMicF=      0.
                    Isotopes and Nuclear Properties:
 (Nuclear quadrupole moments (NQMom) in fm**2, nuclear magnetic moments (NMagM)
  in nuclear magnetons)

  Atom         1           2           3
 IAtWgt=          48          16          35
 AtmWgt=  47.9479467  15.9949146  34.9688527
 NucSpn=           0           0           3
 AtZEff=   0.0000000   0.0000000   0.0000000
 NQMom=    0.0000000   0.0000000  -8.1650000
 NMagM=    0.0000000   0.0000000   0.8218740
 AtZNuc=  22.0000000   8.0000000  17.0000000
 Leave Link  101 at Tue Jul 19 06:24:21 2016, MaxMem=   524288000 cpu:         1.3
 (Enter /opt/g09/l103.exe)

 GradGradGradGradGradGradGradGradGradGradGradGradGradGradGradGradGradGrad
 Berny optimization.
 Initialization pass.
                           ----------------------------
                           !    Initial Parameters    !
                           ! (Angstroms and Degrees)  !
 --------------------------                            --------------------------
 ! Name  Definition              Value          Derivative Info.                !
 --------------------------------------------------------------------------------
 ! R1    R(1,2)                  1.6145         calculate D2E/DX2 analytically  !
 ! R2    R(1,3)                  2.3194         calculate D2E/DX2 analytically  !
 ! A1    A(2,1,3)              134.4186         calculate D2E/DX2 analytically  !
 --------------------------------------------------------------------------------
 Trust Radius=2.56D+00 FncErr=1.00D-07 GrdErr=1.00D-06
 Number of steps in this run=    100 maximum allowed number of steps=    100.
 GradGradGradGradGradGradGradGradGradGradGradGradGradGradGradGradGradGrad

 Leave Link  103 at Tue Jul 19 06:24:21 2016, MaxMem=   524288000 cpu:         0.1
 (Enter /opt/g09/l202.exe)
                          Input orientation:                          
 ---------------------------------------------------------------------
 Center     Atomic      Atomic             Coordinates (Angstroms)
 Number     Number       Type             X           Y           Z
 ---------------------------------------------------------------------
      1         22           0       -1.074190    0.015540    1.001240
      2          8           0       -1.863960    1.361050    0.586100
      3         17           0       -0.799660   -1.160090    2.981660
 ---------------------------------------------------------------------
                    Distance matrix (angstroms):
                    1          2          3
     1  Ti   0.000000
     2  O    1.614458   0.000000
     3  Cl   2.319383   3.636975   0.000000
 Symmetry turned off by external request.
 Stoichiometry    ClOTi(2)
 Framework group  CS[SG(ClOTi)]
 Deg. of freedom     3
 Full point group                 CS      NOp   2
 Rotational constants (GHZ):     45.6335305      2.8858315      2.7141882
 Leave Link  202 at Tue Jul 19 06:24:21 2016, MaxMem=   524288000 cpu:         0.0
 (Enter /opt/g09/l301.exe)
 Standard basis: 6-311+G(d,p) (5D, 7F)
 Ernie: Thresh=  0.10000D-02 Tol=  0.10000D-05 Strict=F.
 AO basis set in the form of general basis input (Overlap normalization):
      1 0
 S   6 1.00       0.000000000000
      0.2060820000D+06  0.5673151380D-03
      0.3122680000D+05  0.4379672866D-02
      0.7199320000D+04  0.2242029425D-01
      0.2048750000D+04  0.9063426645D-01
      0.6707900000D+03  0.2890357165D+00
      0.2436500000D+03  0.6803470061D+00
 S   1 1.00       0.000000000000
      0.9592500000D+02  0.1000000000D+01
 S   1 1.00       0.000000000000
      0.3981010000D+02  0.1000000000D+01
 S   1 1.00       0.000000000000
      0.1222050000D+02  0.1000000000D+01
 S   1 1.00       0.000000000000
      0.5008820000D+01  0.1000000000D+01
 S   1 1.00       0.000000000000
      0.1285690000D+01  0.1000000000D+01
 S   1 1.00       0.000000000000
      0.5128060000D+00  0.1000000000D+01
 S   1 1.00       0.000000000000
      0.8557600000D-01  0.1000000000D+01
 S   1 1.00       0.000000000000
      0.3330200000D-01  0.1000000000D+01
 S   1 1.00       0.000000000000
      0.9991000000D-02  0.1000000000D+01
 P   5 1.00       0.000000000000
      0.1264700000D+04  0.3122017423D-02
      0.3012300000D+03  0.2516579464D-01
      0.9697770000D+02  0.1184178291D+00
      0.3637270000D+02  0.3522190030D+00
      0.1478140000D+02  0.6219379661D+00
 P   1 1.00       0.000000000000
      0.6274650000D+01  0.1000000000D+01
 P   1 1.00       0.000000000000
      0.2478780000D+01  0.1000000000D+01
 P   1 1.00       0.000000000000
      0.1016180000D+01  0.1000000000D+01
 P   1 1.00       0.000000000000
      0.3981620000D+00  0.1000000000D+01
 P   1 1.00       0.000000000000
      0.1015610000D+00  0.1000000000D+01
 P   1 1.00       0.000000000000
      0.3405400000D-01  0.1000000000D+01
 D   3 1.00       0.000000000000
      0.2599240000D+02  0.5411706153D-01
      0.7086340000D+01  0.2873032281D+00
      0.2348710000D+01  0.7854540223D+00
 D   1 1.00       0.000000000000
      0.8001980000D+00  0.1000000000D+01
 D   1 1.00       0.000000000000
      0.2620490000D+00  0.1000000000D+01
 D   1 1.00       0.000000000000
      0.7200000000D-01  0.1000000000D+01
 F   1 1.00       0.000000000000
      0.6900000000D+00  0.1000000000D+01
 ****
      2 0
 S   6 1.00       0.000000000000
      0.8588500000D+04  0.1895150083D-02
      0.1297230000D+04  0.1438590063D-01
      0.2992960000D+03  0.7073200310D-01
      0.8737710000D+02  0.2400010105D+00
      0.2567890000D+02  0.5947970261D+00
      0.3740040000D+01  0.2808020123D+00
 SP   3 1.00       0.000000000000
      0.4211750000D+02  0.1138890124D+00  0.3651139738D-01
      0.9628370000D+01  0.9208111006D+00  0.2371529830D+00
      0.2853320000D+01 -0.3274470358D-02  0.8197019412D+00
 SP   1 1.00       0.000000000000
      0.9056610000D+00  0.1000000000D+01  0.1000000000D+01
 SP   1 1.00       0.000000000000
      0.2556110000D+00  0.1000000000D+01  0.1000000000D+01
 SP   1 1.00       0.000000000000
      0.8450000000D-01  0.1000000000D+01  0.1000000000D+01
 D   1 1.00       0.000000000000
      0.1292000000D+01  0.1000000000D+01
 ****
      3 0
 S   6 1.00       0.000000000000
      0.1058190000D+06  0.7380002465D-03
      0.1587200000D+05  0.5718001910D-02
      0.3619650000D+04  0.2949500985D-01
      0.1030800000D+04  0.1172860392D+00
      0.3399080000D+03  0.3629491212D+00
      0.1245380000D+03  0.5841491951D+00
 S   3 1.00       0.000000000000
      0.1245380000D+03  0.1341769734D+00
      0.4951350000D+02  0.6242498762D+00
      0.2080560000D+02  0.2917559421D+00
 S   1 1.00       0.000000000000
      0.6583460000D+01  0.1000000000D+01
 S   1 1.00       0.000000000000
      0.2564680000D+01  0.1000000000D+01
 S   1 1.00       0.000000000000
      0.5597630000D+00  0.1000000000D+01
 S   1 1.00       0.000000000000
      0.1832730000D+00  0.1000000000D+01
 SP   1 1.00       0.000000000000
      0.4830000000D-01  0.1000000000D+01  0.1000000000D+01
 P   5 1.00       0.000000000000
      0.5897760000D+03  0.3665569355D-02
      0.1398490000D+03  0.2836791942D-01
      0.4514130000D+02  0.1247566028D+00
      0.1687330000D+02  0.3396546305D+00
      0.2771520000D+01  0.7475859630D+00
 P   2 1.00       0.000000000000
      0.6741100000D+01 -0.1572243813D+01
      0.2771520000D+01  0.9923888817D+00
 P   1 1.00       0.000000000000
      0.1023870000D+01  0.1000000000D+01
 P   1 1.00       0.000000000000
      0.3813680000D+00  0.1000000000D+01
 P   1 1.00       0.000000000000
      0.1094370000D+00  0.1000000000D+01
 D   1 1.00       0.000000000000
      0.7500000000D+00  0.1000000000D+01
 ****

   110 basis functions,   183 primitive gaussians,   119 cartesian basis functions
    24 alpha electrons       23 beta electrons
       nuclear repulsion energy       162.8058235223 Hartrees.
 IExCor= 1614 DFT=T Ex+Corr=B971 ExCW=0 ScaHFX=  0.210000
 ScaDFX=  1.000000  1.000000  1.000000  1.000000 ScalE2=  1.000000  1.000000
 IRadAn=      5 IRanWt=     -1 IRanGd=            0 ICorTp=0 IEmpDi=  4
 NAtoms=    3 NActive=    3 NUniq=    3 SFac= 1.00D+00 NAtFMM=   60 NAOKFM=F Big=F
 Integral buffers will be    131072 words long.
 Raffenetti 2 integral format.
 Two-electron integral symmetry is turned off.
 Leave Link  301 at Tue Jul 19 06:24:21 2016, MaxMem=   524288000 cpu:         0.4
 (Enter /opt/g09/l302.exe)
 NPDir=0 NMtPBC=     1 NCelOv=     1 NCel=       1 NClECP=     1 NCelD=      1
         NCelK=      1 NCelE2=     1 NClLst=     1 CellRange=     0.0.
 One-electron integrals computed using PRISM.
 NBasis=   110 RedAO= T EigKep=  1.22D-03  NBF=   110
 NBsUse=   110 1.00D-06 EigRej= -1.00D+00 NBFU=   110
 Precomputing XC quadrature grid using
 IXCGrd= 4 IRadAn=           5 IRanWt=          -1 IRanGd=           0 AccXCQ= 0.00D+00.
 Generated NRdTot=       0 NPtTot=           0 NUsed=           0 NTot=          32
 NSgBfM=   116   116   116   116   116 MxSgAt=     3 MxSgA2=     3.
 Leave Link  302 at Tue Jul 19 06:24:21 2016, MaxMem=   524288000 cpu:         1.5
 (Enter /opt/g09/l303.exe)
 DipDrv:  MaxL=1.
 Leave Link  303 at Tue Jul 19 06:24:21 2016, MaxMem=   524288000 cpu:         0.2
 (Enter /opt/g09/l401.exe)
 ExpMin= 9.99D-03 ExpMax= 2.06D+05 ExpMxC= 7.20D+03 IAcc=3 IRadAn=         5 AccDes= 0.00D+00
 Harris functional with IExCor= 1614 and IRadAn=       5 diagonalized for initial guess.
 HarFok:  IExCor= 1614 AccDes= 0.00D+00 IRadAn=         5 IDoV= 1 UseB2=F ITyADJ=14
 ICtDFT=  3500011 ScaDFX=  1.000000  1.000000  1.000000  1.000000
 FoFCou: FMM=F IPFlag=           0 FMFlag=      100000 FMFlg1=           0
         NFxFlg=           0 DoJE=T BraDBF=F KetDBF=T FulRan=T
         wScrn=  0.000000 ICntrl=     500 IOpCl=  0 I1Cent=   200000004 NGrid=           0
         NMat0=    1 NMatS0=      1 NMatT0=    0 NMatD0=    1 NMtDS0=    0 NMtDT0=    0
 Symmetry not used in FoFCou.
 Harris En= -1368.86609760985    
 JPrj=0 DoOrth=F DoCkMO=T.
 Mixing orbitals, IMix= 1 IMixAn=  0 NRI=1 NE=   24 Coef=  7.07106781D-01  7.07106781D-01
 Mixing orbitals, IMix= 1 IMixAn=  0 NRI=1 NE=   23 Coef= -7.07106781D-01  7.07106781D-01
 Initial guess <Sx>= 0.0000 <Sy>= 0.0000 <Sz>= 0.5000 <S**2>= 1.0000 S= 0.6180
 Leave Link  401 at Tue Jul 19 06:24:21 2016, MaxMem=   524288000 cpu:         2.5
 (Enter /opt/g09/l502.exe)
 UHF open shell SCF:
 Using DIIS extrapolation, IDIIS=  1040.
 Two-electron integral symmetry not used.
 Keep R1 and R2 ints in memory in canonical form, NReq=39313205.
 IVT=       50097 IEndB=       50097 NGot=   524288000 MDV=   486960774
 LenX=   486960774 LenY=   486946172
 Requested convergence on RMS density matrix=1.00D-08 within  64 cycles.
 Requested convergence on MAX density matrix=1.00D-06.
 Requested convergence on             energy=1.00D-06.
 No special actions if energy rises.
 FoFCou: FMM=F IPFlag=           0 FMFlag=           0 FMFlg1=           0
         NFxFlg=           0 DoJE=F BraDBF=F KetDBF=F FulRan=T
         wScrn=  0.000000 ICntrl=     600 IOpCl=  0 I1Cent=           0 NGrid=           0
         NMat0=    1 NMatS0=   6105 NMatT0=    0 NMatD0=    1 NMtDS0=    0 NMtDT0=    0
 Symmetry not used in FoFCou.

 Cycle   1  Pass 1  IDiag  1:
 E= -1384.07629855436    
 DIIS: error= 1.84D-01 at cycle   1 NSaved=   1.
 NSaved= 1 IEnMin= 1 EnMin= -1384.07629855436     IErMin= 1 ErrMin= 1.84D-01
 ErrMax= 1.84D-01  0.00D+00 EMaxC= 1.00D-01 BMatC= 1.48D+01 BMatP= 1.48D+01
 IDIUse=3 WtCom= 0.00D+00 WtEn= 1.00D+00
 Coeff-Com:  0.100D+01
 Coeff-En:   0.100D+01
 Coeff:      0.100D+01
 Gap=     0.027 Goal=   None    Shift=    0.000
 Gap=     0.048 Goal=   None    Shift=    0.000
 GapD=    0.027 DampG=0.250 DampE=0.125 DampFc=0.1250 IDamp=-1.
 Damping current iteration by 1.25D-01
 RMSDP=1.55D-02 MaxDP=2.49D-01              OVMax= 9.37D-01

 Cycle   2  Pass 1  IDiag  1:
 E= -1384.22504593451     Delta-E=       -0.148747380145 Rises=F Damp=T
 DIIS: error= 1.60D-01 at cycle   2 NSaved=   2.
 NSaved= 2 IEnMin= 2 EnMin= -1384.22504593451     IErMin= 2 ErrMin= 1.60D-01
 ErrMax= 1.60D-01  0.00D+00 EMaxC= 1.00D-01 BMatC= 8.82D+00 BMatP= 1.48D+01
 IDIUse=3 WtCom= 0.00D+00 WtEn= 1.00D+00
 Coeff-Com: -0.126D+01 0.226D+01
 Coeff-En:   0.232D+00 0.768D+00
 Coeff:      0.232D+00 0.768D+00
 Gap=    -0.076 Goal=   None    Shift=    0.000
 Gap=     0.020 Goal=   None    Shift=    0.000
 RMSDP=8.84D-03 MaxDP=1.89D-01 DE=-1.49D-01 OVMax= 9.19D-01

 Cycle   3  Pass 1  IDiag  1:
 E= -1383.55679963236     Delta-E=        0.668246302152 Rises=F Damp=F
 DIIS: error= 1.94D-01 at cycle   3 NSaved=   3.
 NSaved= 3 IEnMin= 2 EnMin= -1384.22504593451     IErMin= 2 ErrMin= 1.60D-01
 ErrMax= 1.94D-01  0.00D+00 EMaxC= 1.00D-01 BMatC= 9.36D+00 BMatP= 8.82D+00
 IDIUse=3 WtCom= 0.00D+00 WtEn= 1.00D+00
 EnCoef did   100 forward-backward iterations
 Coeff-Com:  0.131D+01-0.110D+01 0.791D+00
 Coeff-En:   0.590D+00 0.113D-01 0.399D+00
 Coeff:      0.590D+00 0.113D-01 0.399D+00
 Gap=     0.099 Goal=   None    Shift=    0.000
 Gap=     0.273 Goal=   None    Shift=    0.000
 RMSDP=5.34D-03 MaxDP=8.62D-02 DE= 6.68D-01 OVMax= 3.83D-01

 Cycle   4  Pass 1  IDiag  1:
 E= -1384.72250128064     Delta-E=       -1.165701648285 Rises=F Damp=F
 DIIS: error= 4.40D-02 at cycle   4 NSaved=   4.
 NSaved= 4 IEnMin= 4 EnMin= -1384.72250128064     IErMin= 4 ErrMin= 4.40D-02
 ErrMax= 4.40D-02  0.00D+00 EMaxC= 1.00D-01 BMatC= 6.73D-01 BMatP= 8.82D+00
 IDIUse=3 WtCom= 5.60D-01 WtEn= 4.40D-01
 Coeff-Com: -0.329D+00 0.508D+00 0.508D-01 0.771D+00
 Coeff-En:   0.000D+00 0.000D+00 0.125D+00 0.875D+00
 Coeff:     -0.185D+00 0.285D+00 0.836D-01 0.816D+00
 Gap=     0.089 Goal=   None    Shift=    0.000
 Gap=     0.160 Goal=   None    Shift=    0.000
 RMSDP=3.46D-03 MaxDP=7.16D-02 DE=-1.17D+00 OVMax= 1.59D-01

 Cycle   5  Pass 1  IDiag  1:
 E= -1384.76003637809     Delta-E=       -0.037535097443 Rises=F Damp=F
 DIIS: error= 3.69D-02 at cycle   5 NSaved=   5.
 NSaved= 5 IEnMin= 5 EnMin= -1384.76003637809     IErMin= 5 ErrMin= 3.69D-02
 ErrMax= 3.69D-02  0.00D+00 EMaxC= 1.00D-01 BMatC= 4.54D-01 BMatP= 6.73D-01
 IDIUse=3 WtCom= 6.31D-01 WtEn= 3.69D-01
 Coeff-Com: -0.777D-01 0.112D+00-0.648D-02 0.477D+00 0.495D+00
 Coeff-En:   0.000D+00 0.000D+00 0.000D+00 0.432D+00 0.568D+00
 Coeff:     -0.491D-01 0.706D-01-0.409D-02 0.461D+00 0.522D+00
 Gap=     0.108 Goal=   None    Shift=    0.000
 Gap=     0.201 Goal=   None    Shift=    0.000
 RMSDP=1.76D-03 MaxDP=3.93D-02 DE=-3.75D-02 OVMax= 7.90D-02

 Cycle   6  Pass 1  IDiag  1:
 E= -1384.84130042260     Delta-E=       -0.081264044518 Rises=F Damp=F
 DIIS: error= 2.70D-03 at cycle   6 NSaved=   6.
 NSaved= 6 IEnMin= 6 EnMin= -1384.84130042260     IErMin= 6 ErrMin= 2.70D-03
 ErrMax= 2.70D-03  0.00D+00 EMaxC= 1.00D-01 BMatC= 3.18D-03 BMatP= 4.54D-01
 IDIUse=3 WtCom= 9.73D-01 WtEn= 2.70D-02
 Coeff-Com: -0.231D-02 0.187D-02-0.493D-02 0.436D-01 0.122D+00 0.840D+00
 Coeff-En:   0.000D+00 0.000D+00 0.000D+00 0.000D+00 0.000D+00 0.100D+01
 Coeff:     -0.225D-02 0.182D-02-0.480D-02 0.424D-01 0.119D+00 0.844D+00
 Gap=     0.108 Goal=   None    Shift=    0.000
 Gap=     0.198 Goal=   None    Shift=    0.000
 RMSDP=3.15D-04 MaxDP=6.74D-03 DE=-8.13D-02 OVMax= 3.98D-02

 Cycle   7  Pass 1  IDiag  1:
 E= -1384.84232924318     Delta-E=       -0.001028820573 Rises=F Damp=F
 DIIS: error= 1.00D-03 at cycle   7 NSaved=   7.
 NSaved= 7 IEnMin= 7 EnMin= -1384.84232924318     IErMin= 7 ErrMin= 1.00D-03
 ErrMax= 1.00D-03  0.00D+00 EMaxC= 1.00D-01 BMatC= 2.61D-04 BMatP= 3.18D-03
 IDIUse=3 WtCom= 9.90D-01 WtEn= 1.00D-02
 Coeff-Com:  0.219D-02-0.283D-02-0.256D-02 0.345D-02 0.905D-02 0.121D+00
 Coeff-Com:  0.869D+00
 Coeff-En:   0.000D+00 0.000D+00 0.000D+00 0.000D+00 0.000D+00 0.000D+00
 Coeff-En:   0.100D+01
 Coeff:      0.217D-02-0.280D-02-0.253D-02 0.342D-02 0.896D-02 0.120D+00
 Coeff:      0.871D+00
 Gap=     0.110 Goal=   None    Shift=    0.000
 Gap=     0.197 Goal=   None    Shift=    0.000
 RMSDP=2.18D-04 MaxDP=5.47D-03 DE=-1.03D-03 OVMax= 3.27D-02

 Cycle   8  Pass 1  IDiag  1:
 E= -1384.84262849211     Delta-E=       -0.000299248934 Rises=F Damp=F
 DIIS: error= 6.37D-04 at cycle   8 NSaved=   8.
 NSaved= 8 IEnMin= 8 EnMin= -1384.84262849211     IErMin= 8 ErrMin= 6.37D-04
 ErrMax= 6.37D-04  0.00D+00 EMaxC= 1.00D-01 BMatC= 1.42D-04 BMatP= 2.61D-04
 IDIUse=3 WtCom= 9.94D-01 WtEn= 6.37D-03
 Coeff-Com:  0.463D-02-0.537D-02-0.684D-03-0.397D-02-0.196D-01-0.150D+00
 Coeff-Com:  0.403D+00 0.773D+00
 Coeff-En:   0.000D+00 0.000D+00 0.000D+00 0.000D+00 0.000D+00 0.000D+00
 Coeff-En:   0.000D+00 0.100D+01
 Coeff:      0.460D-02-0.534D-02-0.679D-03-0.394D-02-0.195D-01-0.149D+00
 Coeff:      0.400D+00 0.774D+00
 Gap=     0.110 Goal=   None    Shift=    0.000
 Gap=     0.198 Goal=   None    Shift=    0.000
 RMSDP=1.93D-04 MaxDP=4.97D-03 DE=-2.99D-04 OVMax= 2.90D-02

 Cycle   9  Pass 1  IDiag  1:
 E= -1384.84282774677     Delta-E=       -0.000199254662 Rises=F Damp=F
 DIIS: error= 4.84D-04 at cycle   9 NSaved=   9.
 NSaved= 9 IEnMin= 9 EnMin= -1384.84282774677     IErMin= 9 ErrMin= 4.84D-04
 ErrMax= 4.84D-04  0.00D+00 EMaxC= 1.00D-01 BMatC= 7.84D-05 BMatP= 1.42D-04
 IDIUse=3 WtCom= 9.95D-01 WtEn= 4.84D-03
 Coeff-Com:  0.351D-04 0.466D-03-0.842D-03 0.646D-02-0.423D-02-0.123D+00
 Coeff-Com: -0.352D+00 0.133D+00 0.134D+01
 Coeff-En:   0.000D+00 0.000D+00 0.000D+00 0.000D+00 0.000D+00 0.000D+00
 Coeff-En:   0.000D+00 0.000D+00 0.100D+01
 Coeff:      0.349D-04 0.464D-03-0.837D-03 0.643D-02-0.421D-02-0.122D+00
 Coeff:     -0.351D+00 0.132D+00 0.134D+01
 Gap=     0.110 Goal=   None    Shift=    0.000
 Gap=     0.197 Goal=   None    Shift=    0.000
 RMSDP=2.78D-04 MaxDP=7.19D-03 DE=-1.99D-04 OVMax= 4.28D-02

 Cycle  10  Pass 1  IDiag  1:
 E= -1384.84301555322     Delta-E=       -0.000187806449 Rises=F Damp=F
 DIIS: error= 2.38D-04 at cycle  10 NSaved=  10.
 NSaved=10 IEnMin=10 EnMin= -1384.84301555322     IErMin=10 ErrMin= 2.38D-04
 ErrMax= 2.38D-04  0.00D+00 EMaxC= 1.00D-01 BMatC= 1.49D-05 BMatP= 7.84D-05
 IDIUse=3 WtCom= 9.98D-01 WtEn= 2.38D-03
 Coeff-Com: -0.206D-02 0.240D-02 0.534D-03 0.211D-02 0.985D-02 0.555D-01
 Coeff-Com: -0.252D+00-0.272D+00 0.275D+00 0.118D+01
 Coeff-En:   0.000D+00 0.000D+00 0.000D+00 0.000D+00 0.000D+00 0.000D+00
 Coeff-En:   0.000D+00 0.000D+00 0.000D+00 0.100D+01
 Coeff:     -0.206D-02 0.239D-02 0.533D-03 0.211D-02 0.983D-02 0.553D-01
 Coeff:     -0.251D+00-0.271D+00 0.274D+00 0.118D+01
 Gap=     0.111 Goal=   None    Shift=    0.000
 Gap=     0.198 Goal=   None    Shift=    0.000
 RMSDP=1.80D-04 MaxDP=4.56D-03 DE=-1.88D-04 OVMax= 2.81D-02

 Cycle  11  Pass 1  IDiag  1:
 E= -1384.84306928211     Delta-E=       -0.000053728887 Rises=F Damp=F
 DIIS: error= 1.93D-04 at cycle  11 NSaved=  11.
 NSaved=11 IEnMin=11 EnMin= -1384.84306928211     IErMin=11 ErrMin= 1.93D-04
 ErrMax= 1.93D-04  0.00D+00 EMaxC= 1.00D-01 BMatC= 9.11D-06 BMatP= 1.49D-05
 IDIUse=3 WtCom= 9.98D-01 WtEn= 1.93D-03
 Coeff-Com: -0.107D-02 0.120D-02 0.677D-03-0.244D-02-0.931D-03 0.150D-01
 Coeff-Com:  0.738D-01 0.962D-01-0.331D+00-0.174D+00 0.132D+01
 Coeff-En:   0.000D+00 0.000D+00 0.000D+00 0.000D+00 0.000D+00 0.000D+00
 Coeff-En:   0.000D+00 0.000D+00 0.000D+00 0.000D+00 0.100D+01
 Coeff:     -0.107D-02 0.120D-02 0.675D-03-0.243D-02-0.929D-03 0.150D-01
 Coeff:      0.737D-01 0.961D-01-0.330D+00-0.174D+00 0.132D+01
 Gap=     0.110 Goal=   None    Shift=    0.000
 Gap=     0.198 Goal=   None    Shift=    0.000
 RMSDP=5.86D-05 MaxDP=1.40D-03 DE=-5.37D-05 OVMax= 9.40D-03

 Cycle  12  Pass 1  IDiag  1:
 E= -1384.84307786414     Delta-E=       -0.000008582029 Rises=F Damp=F
 DIIS: error= 6.29D-05 at cycle  12 NSaved=  12.
 NSaved=12 IEnMin=12 EnMin= -1384.84307786414     IErMin=12 ErrMin= 6.29D-05
 ErrMax= 6.29D-05  0.00D+00 EMaxC= 1.00D-01 BMatC= 9.47D-07 BMatP= 9.11D-06
 IDIUse=1 WtCom= 1.00D+00 WtEn= 0.00D+00
 Coeff-Com: -0.699D-04 0.771D-04 0.123D-03-0.819D-03-0.141D-02-0.890D-02
 Coeff-Com:  0.304D-01 0.390D-01-0.556D-01-0.229D+00 0.154D+00 0.107D+01
 Coeff:     -0.699D-04 0.771D-04 0.123D-03-0.819D-03-0.141D-02-0.890D-02
 Coeff:      0.304D-01 0.390D-01-0.556D-01-0.229D+00 0.154D+00 0.107D+01
 Gap=     0.110 Goal=   None    Shift=    0.000
 Gap=     0.198 Goal=   None    Shift=    0.000
 RMSDP=3.43D-05 MaxDP=8.19D-04 DE=-8.58D-06 OVMax= 5.55D-03

 Cycle  13  Pass 1  IDiag  1:
 E= -1384.84307952326     Delta-E=       -0.000001659119 Rises=F Damp=F
 DIIS: error= 2.37D-05 at cycle  13 NSaved=  13.
 NSaved=13 IEnMin=13 EnMin= -1384.84307952326     IErMin=13 ErrMin= 2.37D-05
 ErrMax= 2.37D-05  0.00D+00 EMaxC= 1.00D-01 BMatC= 9.81D-08 BMatP= 9.47D-07
 IDIUse=1 WtCom= 1.00D+00 WtEn= 0.00D+00
 Coeff-Com:  0.739D-04-0.861D-04-0.602D-04 0.237D-03 0.358D-03-0.221D-03
 Coeff-Com: -0.126D-01-0.132D-01 0.449D-01 0.284D-01-0.171D+00-0.540D-01
 Coeff-Com:  0.118D+01
 Coeff:      0.739D-04-0.861D-04-0.602D-04 0.237D-03 0.358D-03-0.221D-03
 Coeff:     -0.126D-01-0.132D-01 0.449D-01 0.284D-01-0.171D+00-0.540D-01
 Coeff:      0.118D+01
 Gap=     0.110 Goal=   None    Shift=    0.000
 Gap=     0.198 Goal=   None    Shift=    0.000
 RMSDP=6.94D-06 MaxDP=1.38D-04 DE=-1.66D-06 OVMax= 1.18D-03

 Cycle  14  Pass 1  IDiag  1:
 E= -1384.84307967010     Delta-E=       -0.000000146840 Rises=F Damp=F
 DIIS: error= 1.41D-05 at cycle  14 NSaved=  14.
 NSaved=14 IEnMin=14 EnMin= -1384.84307967010     IErMin=14 ErrMin= 1.41D-05
 ErrMax= 1.41D-05  0.00D+00 EMaxC= 1.00D-01 BMatC= 1.50D-08 BMatP= 9.81D-08
 IDIUse=1 WtCom= 1.00D+00 WtEn= 0.00D+00
 Coeff-Com:  0.368D-04-0.422D-04-0.356D-04 0.165D-03 0.236D-03 0.183D-02
 Coeff-Com: -0.858D-03-0.287D-02 0.311D-02 0.297D-01-0.288D-01-0.201D+00
 Coeff-Com:  0.139D+00 0.106D+01
 Coeff:      0.368D-04-0.422D-04-0.356D-04 0.165D-03 0.236D-03 0.183D-02
 Coeff:     -0.858D-03-0.287D-02 0.311D-02 0.297D-01-0.288D-01-0.201D+00
 Coeff:      0.139D+00 0.106D+01
 Gap=     0.110 Goal=   None    Shift=    0.000
 Gap=     0.198 Goal=   None    Shift=    0.000
 RMSDP=2.40D-06 MaxDP=6.75D-05 DE=-1.47D-07 OVMax= 4.40D-04

 Cycle  15  Pass 1  IDiag  1:
 E= -1384.84307971656     Delta-E=       -0.000000046462 Rises=F Damp=F
 DIIS: error= 1.31D-05 at cycle  15 NSaved=  15.
 NSaved=15 IEnMin=15 EnMin= -1384.84307971656     IErMin=15 ErrMin= 1.31D-05
 ErrMax= 1.31D-05  0.00D+00 EMaxC= 1.00D-01 BMatC= 1.44D-08 BMatP= 1.50D-08
 IDIUse=1 WtCom= 1.00D+00 WtEn= 0.00D+00
 Coeff-Com:  0.121D-05-0.105D-05-0.172D-05 0.105D-04-0.308D-04 0.293D-03
 Coeff-Com:  0.315D-02 0.188D-03-0.966D-02 0.140D-03 0.440D-01-0.236D-01
 Coeff-Com: -0.250D+00 0.175D+00 0.106D+01
 Coeff:      0.121D-05-0.105D-05-0.172D-05 0.105D-04-0.308D-04 0.293D-03
 Coeff:      0.315D-02 0.188D-03-0.966D-02 0.140D-03 0.440D-01-0.236D-01
 Coeff:     -0.250D+00 0.175D+00 0.106D+01
 Gap=     0.110 Goal=   None    Shift=    0.000
 Gap=     0.198 Goal=   None    Shift=    0.000
 RMSDP=1.95D-06 MaxDP=5.65D-05 DE=-4.65D-08 OVMax= 3.94D-04

 Cycle  16  Pass 1  IDiag  1:
 E= -1384.84307975394     Delta-E=       -0.000000037384 Rises=F Damp=F
 DIIS: error= 1.28D-05 at cycle  16 NSaved=  16.
 NSaved=16 IEnMin=16 EnMin= -1384.84307975394     IErMin=16 ErrMin= 1.28D-05
 ErrMax= 1.28D-05  0.00D+00 EMaxC= 1.00D-01 BMatC= 4.90D-09 BMatP= 1.44D-08
 IDIUse=1 WtCom= 1.00D+00 WtEn= 0.00D+00
 Coeff-Com:  0.720D-06-0.862D-06 0.652D-06-0.183D-05-0.452D-05 0.247D-04
 Coeff-Com: -0.823D-04-0.474D-03 0.159D-03 0.116D-02 0.863D-03-0.920D-03
 Coeff-Com: -0.165D-01-0.145D-01 0.395D-01 0.991D+00
 Coeff:      0.720D-06-0.862D-06 0.652D-06-0.183D-05-0.452D-05 0.247D-04
 Coeff:     -0.823D-04-0.474D-03 0.159D-03 0.116D-02 0.863D-03-0.920D-03
 Coeff:     -0.165D-01-0.145D-01 0.395D-01 0.991D+00
 Gap=     0.110 Goal=   None    Shift=    0.000
 Gap=     0.198 Goal=   None    Shift=    0.000
 RMSDP=1.47D-06 MaxDP=3.96D-05 DE=-3.74D-08 OVMax= 3.04D-04

 Cycle  17  Pass 1  IDiag  1:
 E= -1384.84307978100     Delta-E=       -0.000000027052 Rises=F Damp=F
 DIIS: error= 1.28D-05 at cycle  17 NSaved=  17.
 NSaved=17 IEnMin=17 EnMin= -1384.84307978100     IErMin=17 ErrMin= 1.28D-05
 ErrMax= 1.28D-05  0.00D+00 EMaxC= 1.00D-01 BMatC= 4.87D-09 BMatP= 4.90D-09
 IDIUse=1 WtCom= 1.00D+00 WtEn= 0.00D+00
 Coeff-Com:  0.230D-05-0.274D-05-0.176D-06-0.133D-05-0.131D-05-0.365D-04
 Coeff-Com: -0.451D-03-0.241D-03 0.151D-02 0.992D-03-0.675D-02 0.557D-03
 Coeff-Com:  0.242D-01-0.116D-01-0.103D+00 0.303D+00 0.792D+00
 Coeff:      0.230D-05-0.274D-05-0.176D-06-0.133D-05-0.131D-05-0.365D-04
 Coeff:     -0.451D-03-0.241D-03 0.151D-02 0.992D-03-0.675D-02 0.557D-03
 Coeff:      0.242D-01-0.116D-01-0.103D+00 0.303D+00 0.792D+00
 Gap=     0.110 Goal=   None    Shift=    0.000
 Gap=     0.198 Goal=   None    Shift=    0.000
 RMSDP=1.24D-06 MaxDP=3.24D-05 DE=-2.71D-08 OVMax= 2.57D-04

 Cycle  18  Pass 1  IDiag  1:
 E= -1384.84307980384     Delta-E=       -0.000000022847 Rises=F Damp=F
 DIIS: error= 1.28D-05 at cycle  18 NSaved=  18.
 NSaved=18 IEnMin=18 EnMin= -1384.84307980384     IErMin=17 ErrMin= 1.28D-05
 ErrMax= 1.28D-05  0.00D+00 EMaxC= 1.00D-01 BMatC= 4.87D-09 BMatP= 4.87D-09
 IDIUse=1 WtCom= 1.00D+00 WtEn= 0.00D+00
 Coeff-Com:  0.231D-05-0.274D-05-0.179D-06-0.131D-05-0.131D-05-0.364D-04
 Coeff-Com: -0.450D-03-0.240D-03 0.150D-02 0.991D-03-0.672D-02 0.552D-03
 Coeff-Com:  0.241D-01-0.114D-01-0.103D+00 0.301D+00 0.787D+00 0.658D-02
 Coeff:      0.231D-05-0.274D-05-0.179D-06-0.131D-05-0.131D-05-0.364D-04
 Coeff:     -0.450D-03-0.240D-03 0.150D-02 0.991D-03-0.672D-02 0.552D-03
 Coeff:      0.241D-01-0.114D-01-0.103D+00 0.301D+00 0.787D+00 0.658D-02
 Gap=     0.110 Goal=   None    Shift=    0.000
 Gap=     0.198 Goal=   None    Shift=    0.000
 RMSDP=9.44D-09 MaxDP=2.44D-07 DE=-2.28D-08 OVMax= 1.95D-06

 Density matrix is not changing but DIIS error= 1.28D-05 CofLast= 6.58D-03.
 Cycle  19  Pass 1  IDiag  1:
 E= -1384.84307980402     Delta-E=       -0.000000000178 Rises=F Damp=F
 DIIS: error= 1.28D-05 at cycle   1 NSaved=   1.
 NSaved= 1 IEnMin= 1 EnMin= -1384.84307980402     IErMin= 1 ErrMin= 1.28D-05
 ErrMax= 1.28D-05  0.00D+00 EMaxC= 1.00D+00 BMatC= 4.87D-09 BMatP= 4.87D-09
 IDIUse=1 WtCom= 1.00D+00 WtEn= 0.00D+00
 Coeff-Com:  0.100D+01
 Coeff:      0.100D+01
 Gap=     0.110 Goal=   None    Shift=    0.000
 Gap=     0.198 Goal=   None    Shift=    0.000
 RMSDP=1.41D-06 MaxDP=3.63D-05 DE=-1.78D-10 OVMax= 2.92D-04

 Cycle  20  Pass 1  IDiag  1:
 E= -1384.84307982996     Delta-E=       -0.000000025935 Rises=F Damp=F
 DIIS: error= 1.29D-05 at cycle  20 NSaved=   2.
 NSaved= 2 IEnMin= 2 EnMin= -1384.84307982996     IErMin= 1 ErrMin= 1.28D-05
 ErrMax= 1.29D-05  0.00D+00 EMaxC= 1.00D+00 BMatC= 4.89D-09 BMatP= 4.87D-09
 IDIUse=1 WtCom= 1.00D+00 WtEn= 0.00D+00
 Coeff-Com:  0.933D+00 0.670D-01
 Coeff:      0.933D+00 0.670D-01
 Gap=     0.110 Goal=   None    Shift=    0.000
 Gap=     0.198 Goal=   None    Shift=    0.000
 RMSDP=9.49D-08 MaxDP=2.41D-06 DE=-2.59D-08 OVMax= 1.96D-05

 Cycle  21  Pass 1  IDiag  1:
 E= -1384.84307983169     Delta-E=       -0.000000001737 Rises=F Damp=F
 DIIS: error= 1.29D-05 at cycle  21 NSaved=   3.
 NSaved= 3 IEnMin= 3 EnMin= -1384.84307983169     IErMin= 1 ErrMin= 1.28D-05
 ErrMax= 1.29D-05  0.00D+00 EMaxC= 1.00D+00 BMatC= 4.88D-09 BMatP= 4.87D-09
 IDIUse=1 WtCom= 1.00D+00 WtEn= 0.00D+00
 Coeff-Com:  0.279D+01 0.581D+01-0.760D+01
 Coeff:      0.279D+01 0.581D+01-0.760D+01
 Gap=     0.110 Goal=   None    Shift=    0.000
 Gap=     0.198 Goal=   None    Shift=    0.000
 RMSDP=3.35D-06 MaxDP=8.57D-05 DE=-1.74D-09 OVMax= 6.91D-04

 Cycle  22  Pass 1  IDiag  1:
 E= -1384.84307977030     Delta-E=        0.000000061392 Rises=F Damp=F
 DIIS: error= 1.28D-05 at cycle  22 NSaved=   4.
 NSaved= 4 IEnMin= 3 EnMin= -1384.84307983169     IErMin= 4 ErrMin= 1.28D-05
 ErrMax= 1.28D-05  0.00D+00 EMaxC= 1.00D+00 BMatC= 4.85D-09 BMatP= 4.87D-09
 IDIUse=1 WtCom= 1.00D+00 WtEn= 0.00D+00
 Large coefficients: NSaved=  4 BigCof=   22.47 CofMax=   10.00 Det=-9.08D-14
 Inversion failed.  Reducing to  3 matrices.
 Coeff-Com:  0.371D+01-0.522D+01 0.251D+01
 Coeff:      0.371D+01-0.522D+01 0.251D+01
 Gap=     0.110 Goal=   None    Shift=    0.000
 Gap=     0.198 Goal=   None    Shift=    0.000
 RMSDP=3.99D-06 MaxDP=1.01D-04 DE= 6.14D-08 OVMax= 8.24D-04

 Cycle  23  Pass 1  IDiag  1:
 E= -1384.84307969743     Delta-E=        0.000000072876 Rises=F Damp=F
 DIIS: error= 1.27D-05 at cycle  23 NSaved=   4.
 NSaved= 4 IEnMin= 2 EnMin= -1384.84307983169     IErMin= 4 ErrMin= 1.27D-05
 ErrMax= 1.27D-05  0.00D+00 EMaxC= 1.00D+00 BMatC= 4.87D-09 BMatP= 4.85D-09
 IDIUse=1 WtCom= 1.00D+00 WtEn= 0.00D+00
 Large coefficients: NSaved=  4 BigCof=   27.47 CofMax=   10.00 Det=-1.79D-13
 Inversion failed.  Reducing to  3 matrices.
 Coeff-Com: -0.183D+01 0.194D+01 0.889D+00
 Coeff:     -0.183D+01 0.194D+01 0.889D+00
 Gap=     0.110 Goal=   None    Shift=    0.000
 Gap=     0.198 Goal=   None    Shift=    0.000
 RMSDP=4.29D-06 MaxDP=1.09D-04 DE= 7.29D-08 OVMax= 8.85D-04

 Cycle  24  Pass 1  IDiag  1:
 E= -1384.84307961931     Delta-E=        0.000000078114 Rises=F Damp=F
 DIIS: error= 1.27D-05 at cycle  24 NSaved=   4.
 NSaved= 4 IEnMin= 1 EnMin= -1384.84307983169     IErMin= 4 ErrMin= 1.27D-05
 ErrMax= 1.27D-05  0.00D+00 EMaxC= 1.00D+00 BMatC= 5.15D-09 BMatP= 4.85D-09
 IDIUse=1 WtCom= 1.00D+00 WtEn= 0.00D+00
 Large coefficients: NSaved=  4 BigCof=   11.92 CofMax=   10.00 Det=-1.74D-12
 Inversion failed.  Reducing to  3 matrices.
 Coeff-Com:  0.234D+00 0.673D+00 0.923D-01
 Coeff:      0.234D+00 0.673D+00 0.923D-01
 Gap=     0.110 Goal=   None    Shift=    0.000
 Gap=     0.198 Goal=   None    Shift=    0.000
 RMSDP=7.02D-06 MaxDP=1.79D-04 DE= 7.81D-08 OVMax= 1.45D-03

 Cycle  25  Pass 1  IDiag  1:
 E= -1384.84307974727     Delta-E=       -0.000000127957 Rises=F Damp=F
 DIIS: error= 1.28D-05 at cycle  25 NSaved=   4.
 NSaved= 4 IEnMin= 1 EnMin= -1384.84307983169     IErMin= 3 ErrMin= 1.27D-05
 ErrMax= 1.28D-05  0.00D+00 EMaxC= 1.00D+00 BMatC= 5.03D-09 BMatP= 4.87D-09
 IDIUse=1 WtCom= 1.00D+00 WtEn= 0.00D+00
 Large coefficients: NSaved=  4 BigCof=   11.92 CofMax=   10.00 Det=-2.63D-12
 Inversion failed.  Reducing to  3 matrices.
 Coeff-Com: -0.113D+01 0.102D+01 0.112D+01
 Coeff:     -0.113D+01 0.102D+01 0.112D+01
 Gap=     0.110 Goal=   None    Shift=    0.000
 Gap=     0.198 Goal=   None    Shift=    0.000
 RMSDP=1.10D-05 MaxDP=2.79D-04 DE=-1.28D-07 OVMax= 2.26D-03

 Cycle  26  Pass 1  IDiag  1:
 E= -1384.84307954776     Delta-E=        0.000000199511 Rises=F Damp=F
 DIIS: error= 1.27D-05 at cycle  26 NSaved=   4.
 NSaved= 4 IEnMin= 1 EnMin= -1384.84307983169     IErMin= 4 ErrMin= 1.27D-05
 ErrMax= 1.27D-05  0.00D+00 EMaxC= 1.00D+00 BMatC= 4.91D-09 BMatP= 4.88D-09
 IDIUse=1 WtCom= 1.00D+00 WtEn= 0.00D+00
 Large coefficients: NSaved=  4 BigCof=   28.49 CofMax=   10.00 Det=-1.50D-12
 Inversion failed.  Reducing to  3 matrices.
 Coeff-Com:  0.451D+00 0.162D+00 0.387D+00
 Coeff:      0.451D+00 0.162D+00 0.387D+00
 Gap=     0.110 Goal=   None    Shift=    0.000
 Gap=     0.198 Goal=   None    Shift=    0.000
 RMSDP=1.02D-05 MaxDP=2.60D-04 DE= 2.00D-07 OVMax= 2.11D-03

 Cycle  27  Pass 1  IDiag  1:
 E= -1384.84307973350     Delta-E=       -0.000000185744 Rises=F Damp=F
 DIIS: error= 1.28D-05 at cycle  27 NSaved=   4.
 NSaved= 4 IEnMin= 1 EnMin= -1384.84307983169     IErMin= 3 ErrMin= 1.27D-05
 ErrMax= 1.28D-05  0.00D+00 EMaxC= 1.00D+00 BMatC= 4.97D-09 BMatP= 4.88D-09
 IDIUse=1 WtCom= 1.00D+00 WtEn= 0.00D+00
 Large coefficients: NSaved=  4 BigCof=   55.65 CofMax=   10.00 Det=-6.32D-13
 Inversion failed.  Reducing to  3 matrices.
 Coeff-Com: -0.278D+01 0.162D+01 0.217D+01
 Coeff:     -0.278D+01 0.162D+01 0.217D+01
 Gap=     0.110 Goal=   None    Shift=    0.000
 Gap=     0.198 Goal=   None    Shift=    0.000
 RMSDP=3.01D-05 MaxDP=7.65D-04 DE=-1.86D-07 OVMax= 6.20D-03

 Cycle  28  Pass 1  IDiag  1:
 E= -1384.84307919194     Delta-E=        0.000000541565 Rises=F Damp=F
 DIIS: error= 1.24D-05 at cycle  28 NSaved=   4.
 NSaved= 4 IEnMin= 1 EnMin= -1384.84307983169     IErMin= 4 ErrMin= 1.24D-05
 ErrMax= 1.24D-05  0.00D+00 EMaxC= 1.00D+00 BMatC= 5.92D-09 BMatP= 4.88D-09
 IDIUse=1 WtCom= 1.00D+00 WtEn= 0.00D+00
 Large coefficients: NSaved=  4 BigCof=   48.61 CofMax=   10.00 Det=-9.61D-13
 Inversion failed.  Reducing to  3 matrices.
 Coeff-Com:  0.573D-01 0.678D+00 0.265D+00
 Coeff:      0.573D-01 0.678D+00 0.265D+00
 Gap=     0.110 Goal=   None    Shift=    0.000
 Gap=     0.198 Goal=   None    Shift=    0.000
 RMSDP=2.38D-05 MaxDP=6.06D-04 DE= 5.42D-07 OVMax= 4.91D-03

 Cycle  29  Pass 1  IDiag  1:
 E= -1384.84307961944     Delta-E=       -0.000000427505 Rises=F Damp=F
 DIIS: error= 1.27D-05 at cycle  29 NSaved=   4.
 NSaved= 4 IEnMin= 1 EnMin= -1384.84307983169     IErMin= 3 ErrMin= 1.24D-05
 ErrMax= 1.27D-05  0.00D+00 EMaxC= 1.00D+00 BMatC= 4.94D-09 BMatP= 4.88D-09
 IDIUse=1 WtCom= 1.00D+00 WtEn= 0.00D+00
 Large coefficients: NSaved=  4 BigCof=   59.35 CofMax=   10.00 Det=-8.87D-13
 Inversion failed.  Reducing to  3 matrices.
 Coeff-Com: -0.378D+00 0.356D+00 0.102D+01
 Coeff:     -0.378D+00 0.356D+00 0.102D+01
 Gap=     0.110 Goal=   None    Shift=    0.000
 Gap=     0.198 Goal=   None    Shift=    0.000
 RMSDP=1.15D-05 MaxDP=2.92D-04 DE=-4.28D-07 OVMax= 2.37D-03

 Cycle  30  Pass 1  IDiag  1:
 E= -1384.84307941188     Delta-E=        0.000000207561 Rises=F Damp=F
 DIIS: error= 1.26D-05 at cycle  30 NSaved=   4.
 NSaved= 4 IEnMin= 1 EnMin= -1384.84307983169     IErMin= 2 ErrMin= 1.24D-05
 ErrMax= 1.26D-05  0.00D+00 EMaxC= 1.00D+00 BMatC= 5.50D-09 BMatP= 4.88D-09
 IDIUse=1 WtCom= 1.00D+00 WtEn= 0.00D+00
 Large coefficients: NSaved=  4 BigCof=   39.87 CofMax=   10.00 Det=-2.23D-12
 Inversion failed.  Reducing to  3 matrices.
 Coeff-Com:  0.633D+00 0.316D+00 0.503D-01
 Coeff:      0.633D+00 0.316D+00 0.503D-01
 Gap=     0.110 Goal=   None    Shift=    0.000
 Gap=     0.198 Goal=   None    Shift=    0.000
 RMSDP=1.97D-05 MaxDP=5.00D-04 DE= 2.08D-07 OVMax= 4.06D-03

 Cycle  31  Pass 1  IDiag  1:
 E= -1384.84307976879     Delta-E=       -0.000000356910 Rises=F Damp=F
 DIIS: error= 1.28D-05 at cycle  31 NSaved=   4.
 NSaved= 4 IEnMin= 1 EnMin= -1384.84307983169     IErMin= 3 ErrMin= 1.26D-05
 ErrMax= 1.28D-05  0.00D+00 EMaxC= 1.00D+00 BMatC= 5.24D-09 BMatP= 4.88D-09
 IDIUse=1 WtCom= 1.00D+00 WtEn= 0.00D+00
 Large coefficients: NSaved=  4 BigCof=   26.81 CofMax=   10.00 Det=-1.96D-12
 Inversion failed.  Reducing to  3 matrices.
 Coeff-Com: -0.563D+00 0.703D+00 0.861D+00
 Coeff:     -0.563D+00 0.703D+00 0.861D+00
 Gap=     0.110 Goal=   None    Shift=    0.000
 Gap=     0.198 Goal=   None    Shift=    0.000
 RMSDP=1.44D-05 MaxDP=3.65D-04 DE=-3.57D-07 OVMax= 2.97D-03

 Cycle  32  Pass 1  IDiag  1:
 E= -1384.84307950764     Delta-E=        0.000000261150 Rises=F Damp=F
 DIIS: error= 1.27D-05 at cycle  32 NSaved=   4.
 NSaved= 4 IEnMin= 1 EnMin= -1384.84307983169     IErMin= 2 ErrMin= 1.26D-05
 ErrMax= 1.27D-05  0.00D+00 EMaxC= 1.00D+00 BMatC= 4.92D-09 BMatP= 4.88D-09
 IDIUse=1 WtCom= 1.00D+00 WtEn= 0.00D+00
 Large coefficients: NSaved=  4 BigCof=   32.89 CofMax=   10.00 Det=-2.03D-12
 Inversion failed.  Reducing to  3 matrices.
 Coeff-Com:  0.514D+00 0.972D-01 0.389D+00
 Coeff:      0.514D+00 0.972D-01 0.389D+00
 Gap=     0.110 Goal=   None    Shift=    0.000
 Gap=     0.198 Goal=   None    Shift=    0.000
 RMSDP=1.19D-05 MaxDP=3.04D-04 DE= 2.61D-07 OVMax= 2.47D-03

 Cycle  33  Pass 1  IDiag  1:
 E= -1384.84307972466     Delta-E=       -0.000000217018 Rises=F Damp=F
 DIIS: error= 1.28D-05 at cycle  33 NSaved=   4.
 NSaved= 4 IEnMin= 1 EnMin= -1384.84307983169     IErMin= 3 ErrMin= 1.27D-05
 ErrMax= 1.28D-05  0.00D+00 EMaxC= 1.00D+00 BMatC= 4.92D-09 BMatP= 4.88D-09
 IDIUse=1 WtCom= 1.00D+00 WtEn= 0.00D+00
 Large coefficients: NSaved=  4 BigCof=   23.49 CofMax=   10.00 Det=-1.78D-12
 Inversion failed.  Reducing to  3 matrices.
 Large coefficients: NSaved=  3 BigCof=   14.59 CofMax=   10.00 Det=-2.75D-12
 Inversion failed.  Reducing to  2 matrices.
 Coeff-Com:  0.497D+00 0.503D+00
 Coeff:      0.497D+00 0.503D+00
 Gap=     0.110 Goal=   None    Shift=    0.000
 Gap=     0.198 Goal=   None    Shift=    0.000
 RMSDP=4.54D-06 MaxDP=1.16D-04 DE=-2.17D-07 OVMax= 9.38D-04

 Cycle  34  Pass 1  IDiag  1:
 E= -1384.84307964189     Delta-E=        0.000000082763 Rises=F Damp=F
 DIIS: error= 1.28D-05 at cycle  34 NSaved=   3.
 NSaved= 3 IEnMin= 2 EnMin= -1384.84307972466     IErMin= 1 ErrMin= 1.27D-05
 ErrMax= 1.28D-05  0.00D+00 EMaxC= 1.00D+00 BMatC= 4.86D-09 BMatP= 4.92D-09
 IDIUse=1 WtCom= 1.00D+00 WtEn= 0.00D+00
 Coeff-Com:  0.394D+00 0.311D+00 0.295D+00
 Coeff:      0.394D+00 0.311D+00 0.295D+00
 Gap=     0.110 Goal=   None    Shift=    0.000
 Gap=     0.198 Goal=   None    Shift=    0.000
 RMSDP=1.08D-07 MaxDP=2.50D-06 DE= 8.28D-08 OVMax= 2.15D-05

 Cycle  35  Pass 1  IDiag  1:
 E= -1384.84307964001     Delta-E=        0.000000001884 Rises=F Damp=F
 DIIS: error= 1.28D-05 at cycle  35 NSaved=   4.
 NSaved= 4 IEnMin= 2 EnMin= -1384.84307972466     IErMin= 1 ErrMin= 1.27D-05
 ErrMax= 1.28D-05  0.00D+00 EMaxC= 1.00D+00 BMatC= 4.81D-09 BMatP= 4.86D-09
 IDIUse=1 WtCom= 1.00D+00 WtEn= 0.00D+00
 Large coefficients: NSaved=  4 BigCof=   53.54 CofMax=   10.00 Det=-2.91D-13
 Inversion failed.  Reducing to  3 matrices.
 Coeff-Com: -0.175D+01 0.247D+00 0.250D+01
 Coeff:     -0.175D+01 0.247D+00 0.250D+01
 Gap=     0.110 Goal=   None    Shift=    0.000
 Gap=     0.198 Goal=   None    Shift=    0.000
 RMSDP=6.70D-06 MaxDP=1.70D-04 DE= 1.88D-09 OVMax= 1.38D-03

 Cycle  36  Pass 1  IDiag  1:
 E= -1384.84307951847     Delta-E=        0.000000121536 Rises=F Damp=F
 DIIS: error= 1.27D-05 at cycle  36 NSaved=   4.
 NSaved= 4 IEnMin= 1 EnMin= -1384.84307972466     IErMin= 4 ErrMin= 1.27D-05
 ErrMax= 1.27D-05  0.00D+00 EMaxC= 1.00D+00 BMatC= 4.77D-09 BMatP= 4.81D-09
 IDIUse=1 WtCom= 1.00D+00 WtEn= 0.00D+00
 Large coefficients: NSaved=  4 BigCof=   30.79 CofMax=   10.00 Det=-2.45D-12
 Inversion failed.  Reducing to  3 matrices.
 Coeff-Com: -0.504D+01 0.728D+00 0.531D+01
 Coeff:     -0.504D+01 0.728D+00 0.531D+01
 Gap=     0.110 Goal=   None    Shift=    0.000
 Gap=     0.198 Goal=   None    Shift=    0.000
 RMSDP=5.10D-05 MaxDP=1.30D-03 DE= 1.22D-07 OVMax= 1.05D-02

 Cycle  37  Pass 1  IDiag  1:
 E= -1384.84307861863     Delta-E=        0.000000899842 Rises=F Damp=F
 DIIS: error= 1.22D-05 at cycle  37 NSaved=   4.
 NSaved= 4 IEnMin= 1 EnMin= -1384.84307972466     IErMin= 4 ErrMin= 1.22D-05
 ErrMax= 1.22D-05  0.00D+00 EMaxC= 1.00D+00 BMatC= 6.52D-09 BMatP= 4.77D-09
 IDIUse=1 WtCom= 1.00D+00 WtEn= 0.00D+00
 Large coefficients: NSaved=  4 BigCof=   14.63 CofMax=   10.00 Det=-5.46D-12
 Inversion failed.  Reducing to  3 matrices.
 Large coefficients: NSaved=  3 BigCof=   13.21 CofMax=   10.00 Det=-5.47D-12
 Inversion failed.  Reducing to  2 matrices.
 Coeff-Com:  0.953D+00 0.475D-01
 Coeff:      0.953D+00 0.475D-01
 Gap=     0.110 Goal=   None    Shift=    0.000
 Gap=     0.198 Goal=   None    Shift=    0.000
 RMSDP=4.99D-05 MaxDP=1.27D-03 DE= 9.00D-07 OVMax= 1.03D-02

 Cycle  38  Pass 1  IDiag  1:
 E= -1384.84307949975     Delta-E=       -0.000000881114 Rises=F Damp=F
 DIIS: error= 1.27D-05 at cycle  38 NSaved=   3.
 NSaved= 3 IEnMin= 1 EnMin= -1384.84307951847     IErMin= 2 ErrMin= 1.22D-05
 ErrMax= 1.27D-05  0.00D+00 EMaxC= 1.00D+00 BMatC= 5.27D-09 BMatP= 4.77D-09
 IDIUse=1 WtCom= 1.00D+00 WtEn= 0.00D+00
 Coeff-Com:  0.102D-01 0.366D+00 0.624D+00
 Coeff:      0.102D-01 0.366D+00 0.624D+00
 Gap=     0.110 Goal=   None    Shift=    0.000
 Gap=     0.198 Goal=   None    Shift=    0.000
 RMSDP=1.69D-05 MaxDP=4.30D-04 DE=-8.81D-07 OVMax= 3.49D-03

 Cycle  39  Pass 1  IDiag  1:
 E= -1384.84307919711     Delta-E=        0.000000302632 Rises=F Damp=F
 DIIS: error= 1.25D-05 at cycle  39 NSaved=   4.
 NSaved= 4 IEnMin= 1 EnMin= -1384.84307951847     IErMin= 2 ErrMin= 1.22D-05
 ErrMax= 1.25D-05  0.00D+00 EMaxC= 1.00D+00 BMatC= 4.72D-09 BMatP= 4.77D-09
 IDIUse=1 WtCom= 1.00D+00 WtEn= 0.00D+00
 Large coefficients: NSaved=  4 BigCof=   17.94 CofMax=   10.00 Det=-6.09D-12
 Inversion failed.  Reducing to  3 matrices.
 Coeff-Com:  0.314D+00-0.805D-01 0.766D+00
 Coeff:      0.314D+00-0.805D-01 0.766D+00
 Gap=     0.110 Goal=   None    Shift=    0.000
 Gap=     0.198 Goal=   None    Shift=    0.000
 RMSDP=5.65D-06 MaxDP=1.44D-04 DE= 3.03D-07 OVMax= 1.17D-03

 Cycle  40  Pass 1  IDiag  1:
 E= -1384.84307929774     Delta-E=       -0.000000100623 Rises=F Damp=F
 DIIS: error= 1.26D-05 at cycle  40 NSaved=   4.
 NSaved= 4 IEnMin= 1 EnMin= -1384.84307951847     IErMin= 3 ErrMin= 1.25D-05
 ErrMax= 1.26D-05  0.00D+00 EMaxC= 1.00D+00 BMatC= 5.15D-09 BMatP= 4.72D-09
 IDIUse=1 WtCom= 1.00D+00 WtEn= 0.00D+00
 Coeff-Com: -0.659D+01-0.232D+01 0.741D+01 0.250D+01
 Coeff:     -0.659D+01-0.232D+01 0.741D+01 0.250D+01
 Gap=     0.110 Goal=   None    Shift=    0.000
 Gap=     0.198 Goal=   None    Shift=    0.000
 RMSDP=1.48D-04 MaxDP=3.77D-03 DE=-1.01D-07 OVMax= 3.05D-02

 Cycle  41  Pass 1  IDiag  1:
 E= -1384.84307683812     Delta-E=        0.000002459612 Rises=F Damp=F
 DIIS: error= 1.37D-05 at cycle  41 NSaved=   5.
 NSaved= 5 IEnMin= 1 EnMin= -1384.84307951847     IErMin= 3 ErrMin= 1.25D-05
 ErrMax= 1.37D-05  0.00D+00 EMaxC= 1.00D+00 BMatC= 1.65D-08 BMatP= 4.72D-09
 IDIUse=1 WtCom= 1.00D+00 WtEn= 0.00D+00
 Large coefficients: NSaved=  5 BigCof=   32.96 CofMax=   10.00 Det=-3.20D-12
 Inversion failed.  Reducing to  4 matrices.
 Coeff-Com:  0.391D+00 0.238D+00 0.317D+00 0.538D-01
 Coeff:      0.391D+00 0.238D+00 0.317D+00 0.538D-01
 Gap=     0.110 Goal=   None    Shift=    0.000
 Gap=     0.198 Goal=   None    Shift=    0.000
 RMSDP=1.48D-04 MaxDP=3.80D-03 DE= 2.46D-06 OVMax= 3.07D-02

 Cycle  42  Pass 1  IDiag  1:
 E= -1384.84307931446     Delta-E=       -0.000002476338 Rises=F Damp=F
 DIIS: error= 1.26D-05 at cycle  42 NSaved=   5.
 NSaved= 5 IEnMin= 1 EnMin= -1384.84307951847     IErMin= 3 ErrMin= 1.26D-05
 ErrMax= 1.26D-05  0.00D+00 EMaxC= 1.00D+00 BMatC= 4.68D-09 BMatP= 4.77D-09
 IDIUse=1 WtCom= 1.00D+00 WtEn= 0.00D+00
 Large coefficients: NSaved=  5 BigCof=   13.94 CofMax=   10.00 Det=-8.37D-12
 Inversion failed.  Reducing to  4 matrices.
 Large coefficients: NSaved=  4 BigCof=   10.42 CofMax=   10.00 Det=-1.19D-11
 Inversion failed.  Reducing to  3 matrices.
 Coeff-Com: -0.694D+00 0.118D+00 0.158D+01
 Coeff:     -0.694D+00 0.118D+00 0.158D+01
 Gap=     0.110 Goal=   None    Shift=    0.000
 Gap=     0.198 Goal=   None    Shift=    0.000
 RMSDP=2.41D-05 MaxDP=6.13D-04 DE=-2.48D-06 OVMax= 4.97D-03

 Cycle  43  Pass 1  IDiag  1:
 E= -1384.84307888874     Delta-E=        0.000000425727 Rises=F Damp=F
 DIIS: error= 1.23D-05 at cycle  43 NSaved=   4.
 NSaved= 4 IEnMin= 1 EnMin= -1384.84307951847     IErMin= 4 ErrMin= 1.23D-05
 ErrMax= 1.23D-05  0.00D+00 EMaxC= 1.00D+00 BMatC= 6.16D-09 BMatP= 4.68D-09
 IDIUse=1 WtCom= 1.00D+00 WtEn= 0.00D+00
 Coeff-Com: -0.493D+01 0.448D+00 0.445D+01 0.103D+01
 Coeff:     -0.493D+01 0.448D+00 0.445D+01 0.103D+01
 Gap=     0.110 Goal=   None    Shift=    0.000
 Gap=     0.198 Goal=   None    Shift=    0.000
 RMSDP=1.22D-04 MaxDP=3.12D-03 DE= 4.26D-07 OVMax= 2.52D-02

 Cycle  44  Pass 1  IDiag  1:
 E= -1384.84307688085     Delta-E=        0.000002007890 Rises=F Damp=F
 DIIS: error= 1.09D-05 at cycle  44 NSaved=   5.
 NSaved= 5 IEnMin= 1 EnMin= -1384.84307951847     IErMin= 5 ErrMin= 1.09D-05
 ErrMax= 1.09D-05  0.00D+00 EMaxC= 1.00D+00 BMatC= 7.93D-09 BMatP= 4.68D-09
 IDIUse=1 WtCom= 1.00D+00 WtEn= 0.00D+00
 Large coefficients: NSaved=  5 BigCof=   14.58 CofMax=   10.00 Det=-9.45D-12
 Inversion failed.  Reducing to  4 matrices.
 Large coefficients: NSaved=  4 BigCof=   13.96 CofMax=   10.00 Det=-9.70D-12
 Inversion failed.  Reducing to  3 matrices.
 Coeff-Com:  0.553D+00 0.246D+00 0.201D+00
 Coeff:      0.553D+00 0.246D+00 0.201D+00
 Gap=     0.110 Goal=   None    Shift=    0.000
 Gap=     0.198 Goal=   None    Shift=    0.000
 RMSDP=1.18D-04 MaxDP=3.02D-03 DE= 2.01D-06 OVMax= 2.44D-02

 Cycle  45  Pass 1  IDiag  1:
 E= -1384.84307882576     Delta-E=       -0.000001944918 Rises=F Damp=F
 DIIS: error= 1.23D-05 at cycle  45 NSaved=   4.
 NSaved= 4 IEnMin= 1 EnMin= -1384.84307951847     IErMin= 3 ErrMin= 1.09D-05
 ErrMax= 1.23D-05  0.00D+00 EMaxC= 1.00D+00 BMatC= 5.96D-09 BMatP= 4.77D-09
 IDIUse=1 WtCom= 1.00D+00 WtEn= 0.00D+00
 Coeff-Com: -0.434D+01 0.226D+01 0.134D+01 0.174D+01
 Coeff:     -0.434D+01 0.226D+01 0.134D+01 0.174D+01
 Gap=     0.110 Goal=   None    Shift=    0.000
 Gap=     0.198 Goal=   None    Shift=    0.000
 RMSDP=3.16D-04 MaxDP=8.12D-03 DE=-1.94D-06 OVMax= 6.53D-02

 Cycle  46  Pass 1  IDiag  1:
 E= -1384.84307406917     Delta-E=        0.000004756596 Rises=F Damp=F
 DIIS: error= 5.14D-05 at cycle  46 NSaved=   5.
 NSaved= 5 IEnMin= 1 EnMin= -1384.84307951847     IErMin= 3 ErrMin= 1.09D-05
 ErrMax= 5.14D-05  0.00D+00 EMaxC= 1.00D+00 BMatC= 1.86D-07 BMatP= 4.77D-09
 IDIUse=1 WtCom= 1.00D+00 WtEn= 0.00D+00
 Large coefficients: NSaved=  5 BigCof=   10.78 CofMax=   10.00 Det=-3.04D-11
 Inversion failed.  Reducing to  4 matrices.
 Coeff-Com: -0.373D+00 0.691D+00 0.631D+00 0.510D-01
 Coeff:     -0.373D+00 0.691D+00 0.631D+00 0.510D-01
 Gap=     0.110 Goal=   None    Shift=    0.000
 Gap=     0.198 Goal=   None    Shift=    0.000
 RMSDP=2.90D-04 MaxDP=7.43D-03 DE= 4.76D-06 OVMax= 5.98D-02

 Cycle  47  Pass 1  IDiag  1:
 E= -1384.84307836443     Delta-E=       -0.000004295261 Rises=F Damp=F
 DIIS: error= 1.20D-05 at cycle  47 NSaved=   5.
 NSaved= 5 IEnMin= 1 EnMin= -1384.84307951847     IErMin= 5 ErrMin= 1.20D-05
 ErrMax= 1.20D-05  0.00D+00 EMaxC= 1.00D+00 BMatC= 4.56D-09 BMatP= 4.77D-09
 IDIUse=1 WtCom= 1.00D+00 WtEn= 0.00D+00
 Large coefficients: NSaved=  5 BigCof=   15.36 CofMax=   10.00 Det=-1.36D-11
 Inversion failed.  Reducing to  4 matrices.
 Coeff-Com: -0.363D+01 0.108D+01 0.155D+00 0.339D+01
 Coeff:     -0.363D+01 0.108D+01 0.155D+00 0.339D+01
 Gap=     0.110 Goal=   None    Shift=    0.000
 Gap=     0.198 Goal=   None    Shift=    0.000
 RMSDP=2.49D-04 MaxDP=6.38D-03 DE=-4.30D-06 OVMax= 5.13D-02

 Cycle  48  Pass 1  IDiag  1:
 E= -1384.84307461645     Delta-E=        0.000003747979 Rises=F Damp=F
 DIIS: error= 3.54D-05 at cycle  48 NSaved=   5.
 NSaved= 5 IEnMin= 1 EnMin= -1384.84307951847     IErMin= 4 ErrMin= 1.20D-05
 ErrMax= 3.54D-05  0.00D+00 EMaxC= 1.00D+00 BMatC= 9.77D-08 BMatP= 4.56D-09
 IDIUse=1 WtCom= 1.00D+00 WtEn= 0.00D+00
 Large coefficients: NSaved=  5 BigCof=   13.63 CofMax=   10.00 Det=-1.80D-11
 Inversion failed.  Reducing to  4 matrices.
 Large coefficients: NSaved=  4 BigCof=   11.31 CofMax=   10.00 Det=-2.01D-11
 Inversion failed.  Reducing to  3 matrices.
 Coeff-Com: -0.838D+00 0.175D+01 0.834D-01
 Coeff:     -0.838D+00 0.175D+01 0.834D-01
 Gap=     0.110 Goal=   None    Shift=    0.000
 Gap=     0.198 Goal=   None    Shift=    0.000
 RMSDP=1.74D-04 MaxDP=4.47D-03 DE= 3.75D-06 OVMax= 3.59D-02

 Cycle  49  Pass 1  IDiag  1:
 E= -1384.84307714245     Delta-E=       -0.000002526003 Rises=F Damp=F
 DIIS: error= 1.11D-05 at cycle  49 NSaved=   4.
 NSaved= 4 IEnMin= 1 EnMin= -1384.84307951847     IErMin= 4 ErrMin= 1.11D-05
 ErrMax= 1.11D-05  0.00D+00 EMaxC= 1.00D+00 BMatC= 7.11D-09 BMatP= 4.56D-09
 IDIUse=1 WtCom= 1.00D+00 WtEn= 0.00D+00
 Large coefficients: NSaved=  4 BigCof=   11.49 CofMax=   10.00 Det=-2.74D-11
 Inversion failed.  Reducing to  3 matrices.
 Coeff-Com:  0.823D+00 0.956D-02 0.167D+00
 Coeff:      0.823D+00 0.956D-02 0.167D+00
 Gap=     0.110 Goal=   None    Shift=    0.000
 Gap=     0.198 Goal=   None    Shift=    0.000
 RMSDP=1.15D-04 MaxDP=2.95D-03 DE=-2.53D-06 OVMax= 2.38D-02

 Cycle  50  Pass 1  IDiag  1:
 E= -1384.84307906958     Delta-E=       -0.000001927125 Rises=F Damp=F
 DIIS: error= 1.24D-05 at cycle  50 NSaved=   4.
 NSaved= 4 IEnMin= 1 EnMin= -1384.84307951847     IErMin= 3 ErrMin= 1.11D-05
 ErrMax= 1.24D-05  0.00D+00 EMaxC= 1.00D+00 BMatC= 6.26D-09 BMatP= 4.77D-09
 IDIUse=1 WtCom= 1.00D+00 WtEn= 0.00D+00
 Coeff-Com: -0.159D+00 0.141D-01 0.521D+00 0.624D+00
 Coeff:     -0.159D+00 0.141D-01 0.521D+00 0.624D+00
 Gap=     0.110 Goal=   None    Shift=    0.000
 Gap=     0.198 Goal=   None    Shift=    0.000
 RMSDP=6.70D-05 MaxDP=1.71D-03 DE=-1.93D-06 OVMax= 1.38D-02

 Cycle  51  Pass 1  IDiag  1:
 E= -1384.84307792543     Delta-E=        0.000001144147 Rises=F Damp=F
 DIIS: error= 1.17D-05 at cycle  51 NSaved=   5.
 NSaved= 5 IEnMin= 1 EnMin= -1384.84307951847     IErMin= 3 ErrMin= 1.11D-05
 ErrMax= 1.17D-05  0.00D+00 EMaxC= 1.00D+00 BMatC= 4.53D-09 BMatP= 4.77D-09
 IDIUse=1 WtCom= 1.00D+00 WtEn= 0.00D+00
 Large coefficients: NSaved=  5 BigCof=   10.26 CofMax=   10.00 Det=-3.65D-11
 Inversion failed.  Reducing to  4 matrices.
 Coeff-Com: -0.304D+01 0.111D+01 0.878D+00 0.204D+01
 Coeff:     -0.304D+01 0.111D+01 0.878D+00 0.204D+01
 Gap=     0.110 Goal=   None    Shift=    0.000
 Gap=     0.198 Goal=   None    Shift=    0.000
 RMSDP=2.72D-04 MaxDP=6.99D-03 DE= 1.14D-06 OVMax= 5.61D-02

 Cycle  52  Pass 1  IDiag  1:
 E= -1384.84307395850     Delta-E=        0.000003966931 Rises=F Damp=F
 DIIS: error= 5.46D-05 at cycle  52 NSaved=   5.
 NSaved= 5 IEnMin= 1 EnMin= -1384.84307951847     IErMin= 2 ErrMin= 1.11D-05
 ErrMax= 5.46D-05  0.00D+00 EMaxC= 1.00D+00 BMatC= 2.16D-07 BMatP= 4.53D-09
 IDIUse=1 WtCom= 1.00D+00 WtEn= 0.00D+00
 Large coefficients: NSaved=  5 BigCof=   10.59 CofMax=   10.00 Det=-3.42D-11
 Inversion failed.  Reducing to  4 matrices.
 Coeff-Com:  0.319D-01 0.496D-01 0.900D+00 0.182D-01
 Coeff:      0.319D-01 0.496D-01 0.900D+00 0.182D-01
 Gap=     0.110 Goal=   None    Shift=    0.000
 Gap=     0.198 Goal=   None    Shift=    0.000
 RMSDP=2.75D-04 MaxDP=7.05D-03 DE= 3.97D-06 OVMax= 5.67D-02

 Cycle  53  Pass 1  IDiag  1:
 E= -1384.84307796838     Delta-E=       -0.000004009877 Rises=F Damp=F
 DIIS: error= 1.17D-05 at cycle  53 NSaved=   5.
 NSaved= 5 IEnMin= 1 EnMin= -1384.84307951847     IErMin= 3 ErrMin= 1.17D-05
 ErrMax= 1.17D-05  0.00D+00 EMaxC= 1.00D+00 BMatC= 5.57D-09 BMatP= 4.53D-09
 IDIUse=1 WtCom= 1.00D+00 WtEn= 0.00D+00
 Coeff-Com: -0.963D+01-0.141D+00 0.686D+01 0.335D+00 0.358D+01
 Coeff:     -0.963D+01-0.141D+00 0.686D+01 0.335D+00 0.358D+01
 Gap=     0.111 Goal=   None    Shift=    0.000
 Gap=     0.198 Goal=   None    Shift=    0.000
 RMSDP=9.22D-04 MaxDP=2.37D-02 DE=-4.01D-06 OVMax= 1.90D-01

 Cycle  54  Pass 1  IDiag  1:
 E= -1384.84306270022     Delta-E=        0.000015268158 Rises=F Damp=F
 DIIS: error= 5.39D-04 at cycle  54 NSaved=   6.
 NSaved= 6 IEnMin= 1 EnMin= -1384.84307951847     IErMin= 3 ErrMin= 1.17D-05
 ErrMax= 5.39D-04  0.00D+00 EMaxC= 1.00D+00 BMatC= 2.06D-05 BMatP= 4.53D-09
 IDIUse=1 WtCom= 1.00D+00 WtEn= 0.00D+00
 Coeff-Com: -0.879D+01-0.218D+00 0.625D+01 0.440D+00 0.333D+01-0.138D-01
 Coeff:     -0.879D+01-0.218D+00 0.625D+01 0.440D+00 0.333D+01-0.138D-01
 Gap=     0.116 Goal=   None    Shift=    0.000
 Gap=     0.198 Goal=   None    Shift=    0.000
 RMSDP=4.78D-05 MaxDP=1.20D-03 DE= 1.53D-05 OVMax= 9.84D-03

 Cycle  55  Pass 1  IDiag  1:
 E= -1384.84306413119     Delta-E=       -0.000001430971 Rises=F Damp=F
 DIIS: error= 4.84D-04 at cycle  55 NSaved=   7.
 NSaved= 7 IEnMin= 1 EnMin= -1384.84307951847     IErMin= 3 ErrMin= 1.17D-05
 ErrMax= 4.84D-04  0.00D+00 EMaxC= 1.00D+00 BMatC= 1.66D-05 BMatP= 4.53D-09
 IDIUse=1 WtCom= 1.00D+00 WtEn= 0.00D+00
 Large coefficients: NSaved=  7 BigCof=   10.60 CofMax=   10.00 Det=-2.36D-11
 Inversion failed.  Reducing to  6 matrices.
 Large coefficients: NSaved=  6 BigCof=   10.04 CofMax=   10.00 Det=-3.08D-11
 Inversion failed.  Reducing to  5 matrices.
 Coeff-Com:  0.326D+00 0.268D+00 0.362D+00-0.385D+00 0.429D+00
 Coeff:      0.326D+00 0.268D+00 0.362D+00-0.385D+00 0.429D+00
 Gap=     0.105 Goal=   None    Shift=    0.000
 Gap=     0.198 Goal=   None    Shift=    0.000
 RMSDP=9.01D-04 MaxDP=2.32D-02 DE=-1.43D-06 OVMax= 1.86D-01

 Cycle  56  Pass 1  IDiag  1:
 E= -1384.84307841809     Delta-E=       -0.000014286904 Rises=F Damp=F
 DIIS: error= 1.20D-05 at cycle  56 NSaved=   6.
 NSaved= 6 IEnMin= 1 EnMin= -1384.84307951847     IErMin= 3 ErrMin= 1.17D-05
 ErrMax= 1.20D-05  0.00D+00 EMaxC= 1.00D+00 BMatC= 4.60D-09 BMatP= 4.77D-09
 IDIUse=1 WtCom= 1.00D+00 WtEn= 0.00D+00
 Coeff-Com: -0.787D+01 0.405D+00 0.179D+01-0.722D+00 0.842D+00 0.655D+01
 Coeff:     -0.787D+01 0.405D+00 0.179D+01-0.722D+00 0.842D+00 0.655D+01
 Gap=     0.110 Goal=   None    Shift=    0.000
 Gap=     0.198 Goal=   None    Shift=    0.000
 RMSDP=5.87D-04 MaxDP=1.51D-02 DE=-1.43D-05 OVMax= 1.21D-01

 Cycle  57  Pass 1  IDiag  1:
 E= -1384.84307031466     Delta-E=        0.000008103435 Rises=F Damp=F
 DIIS: error= 1.94D-04 at cycle  57 NSaved=   7.
 NSaved= 7 IEnMin= 1 EnMin= -1384.84307951847     IErMin= 3 ErrMin= 1.17D-05
 ErrMax= 1.94D-04  0.00D+00 EMaxC= 1.00D+00 BMatC= 2.67D-06 BMatP= 4.60D-09
 IDIUse=1 WtCom= 1.00D+00 WtEn= 0.00D+00
 Coeff-Com: -0.808D+01 0.207D+00 0.204D+01 0.280D+01-0.366D+01 0.625D+01
 Coeff-Com:  0.145D+01
 Coeff:     -0.808D+01 0.207D+00 0.204D+01 0.280D+01-0.366D+01 0.625D+01
 Coeff:      0.145D+01
 Gap=     0.114 Goal=   None    Shift=    0.000
 Gap=     0.198 Goal=   None    Shift=    0.000
 RMSDP=1.48D-04 MaxDP=3.77D-03 DE= 8.10D-06 OVMax= 3.04D-02

 Cycle  58  Pass 1  IDiag  1:
 E= -1384.84306808033     Delta-E=        0.000002234332 Rises=F Damp=F
 DIIS: error= 3.05D-04 at cycle  58 NSaved=   8.
 NSaved= 8 IEnMin= 1 EnMin= -1384.84307951847     IErMin= 3 ErrMin= 1.17D-05
 ErrMax= 3.05D-04  0.00D+00 EMaxC= 1.00D+00 BMatC= 6.61D-06 BMatP= 4.60D-09
 IDIUse=1 WtCom= 1.00D+00 WtEn= 0.00D+00
 Coeff-Com: -0.782D+01 0.107D+00 0.192D+01 0.585D+01-0.811D+01 0.604D+01
 Coeff-Com:  0.116D+01 0.184D+01
 Coeff:     -0.782D+01 0.107D+00 0.192D+01 0.585D+01-0.811D+01 0.604D+01
 Coeff:      0.116D+01 0.184D+01
 Gap=     0.114 Goal=   None    Shift=    0.000
 Gap=     0.198 Goal=   None    Shift=    0.000
 RMSDP=4.66D-05 MaxDP=1.17D-03 DE= 2.23D-06 OVMax= 9.59D-03

 Cycle  59  Pass 1  IDiag  1:
 E= -1384.84306742714     Delta-E=        0.000000653184 Rises=F Damp=F
 DIIS: error= 3.35D-04 at cycle  59 NSaved=   9.
 NSaved= 9 IEnMin= 1 EnMin= -1384.84307951847     IErMin= 3 ErrMin= 1.17D-05
 ErrMax= 3.35D-04  0.00D+00 EMaxC= 1.00D+00 BMatC= 7.95D-06 BMatP= 4.60D-09
 IDIUse=1 WtCom= 1.00D+00 WtEn= 0.00D+00
 Coeff-Com: -0.815D+01 0.359D-01 0.209D+01 0.631D+01-0.855D+01 0.625D+01
 Coeff-Com:  0.121D+01 0.282D+01-0.100D+01
 Coeff:     -0.815D+01 0.359D-01 0.209D+01 0.631D+01-0.855D+01 0.625D+01
 Coeff:      0.121D+01 0.282D+01-0.100D+01
 Gap=     0.114 Goal=   None    Shift=    0.000
 Gap=     0.198 Goal=   None    Shift=    0.000
 RMSDP=1.66D-05 MaxDP=4.33D-04 DE= 6.53D-07 OVMax= 3.42D-03

 Cycle  60  Pass 1  IDiag  1:
 E= -1384.84306687298     Delta-E=        0.000000554164 Rises=F Damp=F
 DIIS: error= 3.64D-04 at cycle  60 NSaved=  10.
 NSaved=10 IEnMin= 1 EnMin= -1384.84307951847     IErMin= 3 ErrMin= 1.17D-05
 ErrMax= 3.64D-04  0.00D+00 EMaxC= 1.00D+00 BMatC= 9.38D-06 BMatP= 4.60D-09
 IDIUse=1 WtCom= 1.00D+00 WtEn= 0.00D+00
 Coeff-Com: -0.829D+01 0.409D-01 0.209D+01 0.664D+01-0.910D+01 0.639D+01
 Coeff-Com:  0.118D+01 0.302D+01-0.152D+01 0.563D+00
 Coeff:     -0.829D+01 0.409D-01 0.209D+01 0.664D+01-0.910D+01 0.639D+01
 Coeff:      0.118D+01 0.302D+01-0.152D+01 0.563D+00
 Gap=     0.115 Goal=   None    Shift=    0.000
 Gap=     0.198 Goal=   None    Shift=    0.000
 RMSDP=1.26D-06 MaxDP=3.48D-05 DE= 5.54D-07 OVMax= 2.56D-04

 Cycle  61  Pass 1  IDiag  1:
 E= -1384.84306675746     Delta-E=        0.000000115522 Rises=F Damp=F
 DIIS: error= 3.70D-04 at cycle  61 NSaved=  11.
 NSaved=11 IEnMin= 1 EnMin= -1384.84307951847     IErMin= 3 ErrMin= 1.17D-05
 ErrMax= 3.70D-04  0.00D+00 EMaxC= 1.00D+00 BMatC= 9.69D-06 BMatP= 4.60D-09
 IDIUse=1 WtCom= 1.00D+00 WtEn= 0.00D+00
 Large coefficients: NSaved= 11 BigCof=   23.15 CofMax=   10.00 Det=-1.81D-13
 Inversion failed.  Reducing to 10 matrices.
 Large coefficients: NSaved= 10 BigCof=   29.19 CofMax=   10.00 Det=-1.86D-13
 Inversion failed.  Reducing to  9 matrices.
 Large coefficients: NSaved=  9 BigCof=   25.88 CofMax=   10.00 Det=-1.88D-13
 Inversion failed.  Reducing to  8 matrices.
 Large coefficients: NSaved=  8 BigCof=   11.98 CofMax=   10.00 Det=-6.73D-13
 Inversion failed.  Reducing to  7 matrices.
 Large coefficients: NSaved=  7 BigCof=   12.11 CofMax=   10.00 Det=-7.09D-13
 Inversion failed.  Reducing to  6 matrices.
 Large coefficients: NSaved=  6 BigCof=   24.33 CofMax=   10.00 Det=-4.26D-12
 Inversion failed.  Reducing to  5 matrices.
 Large coefficients: NSaved=  5 BigCof=   23.56 CofMax=   10.00 Det=-4.27D-12
 Inversion failed.  Reducing to  4 matrices.
 Large coefficients: NSaved=  4 BigCof=   22.77 CofMax=   10.00 Det=-4.31D-12
 Inversion failed.  Reducing to  3 matrices.
 Large coefficients: NSaved=  3 BigCof=   22.74 CofMax=   10.00 Det=-4.40D-12
 Inversion failed.  Reducing to  2 matrices.
 Large coefficients: NSaved=  2 BigCof=   60.51 CofMax=   10.00 Det=-2.65D-09
 Coeff-Com:  0.605D+02-0.595D+02
 Coeff:      0.605D+02-0.595D+02
 Gap=     0.110 Goal=   None    Shift=    0.000
 Gap=     0.198 Goal=   None    Shift=    0.000
 RMSDP=7.67D-05 MaxDP=2.11D-03 DE= 1.16D-07 OVMax= 1.56D-02

 Cycle  62  Pass 1  IDiag  1:
 E= -1384.84307046136     Delta-E=       -0.000003703907 Rises=F Damp=F
 DIIS: error= 4.75D-06 at cycle  62 NSaved=   3.
 NSaved= 3 IEnMin= 3 EnMin= -1384.84307046136     IErMin= 3 ErrMin= 4.75D-06
 ErrMax= 4.75D-06  0.00D+00 EMaxC= 1.00D+00 BMatC= 7.54D-09 BMatP= 9.38D-06
 IDIUse=1 WtCom= 1.00D+00 WtEn= 0.00D+00
 Large coefficients: NSaved=  3 BigCof=   28.26 CofMax=   10.00 Det=-4.88D-12
 Inversion failed.  Reducing to  2 matrices.
 Coeff-Com: -0.144D-02 0.100D+01
 Coeff:     -0.144D-02 0.100D+01
 Gap=     0.110 Goal=   None    Shift=    0.000
 Gap=     0.198 Goal=   None    Shift=    0.000
 RMSDP=1.19D-06 MaxDP=2.43D-05 DE=-3.70D-06 OVMax= 1.58D-04

 Cycle  63  Pass 1  IDiag  1:
 E= -1384.84307045310     Delta-E=        0.000000008262 Rises=F Damp=F
 DIIS: error= 1.90D-05 at cycle  63 NSaved=   3.
 NSaved= 3 IEnMin= 2 EnMin= -1384.84307046136     IErMin= 2 ErrMin= 4.75D-06
 ErrMax= 1.90D-05  0.00D+00 EMaxC= 1.00D+00 BMatC= 8.57D-08 BMatP= 7.54D-09
 IDIUse=1 WtCom= 1.00D+00 WtEn= 0.00D+00
 Coeff-Com: -0.677D-02 0.787D+00 0.220D+00
 Coeff:     -0.677D-02 0.787D+00 0.220D+00
 Gap=     0.110 Goal=   None    Shift=    0.000
 Gap=     0.198 Goal=   None    Shift=    0.000
 RMSDP=7.78D-07 MaxDP=1.46D-05 DE= 8.26D-09 OVMax= 1.07D-04

 Cycle  64  Pass 1  IDiag  1:
 E= -1384.84307047089     Delta-E=       -0.000000017786 Rises=F Damp=F
 DIIS: error= 2.36D-06 at cycle  64 NSaved=   4.
 NSaved= 4 IEnMin= 4 EnMin= -1384.84307047089     IErMin= 4 ErrMin= 2.36D-06
 ErrMax= 2.36D-06  0.00D+00 EMaxC= 1.00D+00 BMatC= 9.34D-10 BMatP= 7.54D-09
 IDIUse=1 WtCom= 1.00D+00 WtEn= 0.00D+00
 Coeff-Com: -0.136D-02 0.142D+00 0.627D-01 0.797D+00
 Coeff:     -0.136D-02 0.142D+00 0.627D-01 0.797D+00
 Gap=     0.110 Goal=   None    Shift=    0.000
 Gap=     0.198 Goal=   None    Shift=    0.000
 RMSDP=5.75D-07 MaxDP=1.52D-05 DE=-1.78D-08 OVMax= 9.57D-05

 >>>>>>>>>> Convergence criterion not met.
 SCF Done:  E(UB971) =  -1384.84307047     A.U. after   65 cycles
            NFock= 64  Conv=0.57D-06     -V/T= 2.0014
 <Sx>= 0.0000 <Sy>= 0.0000 <Sz>= 0.5000 <S**2>= 0.7554 S= 0.5027
 <L.S>= 0.000000000000E+00
 KE= 1.382920283775D+03 PE=-3.611993055906D+03 EE= 6.814238781376D+02
 Annihilation of the first spin contaminant:
 S**2 before annihilation     0.7554,   after     0.7500
 Leave Link  502 at Tue Jul 19 06:24:53 2016, MaxMem=   524288000 cpu:       180.6
 (Enter /opt/g09/l508.exe)
 Direct SCF.
 Tight linear equation convergence will be used.
 UB971 wavefunction.
 Quadratic Convergence SCF Method.
 Line search only if initial step raises energy.
 Two-electron integral symmetry not used.
 ReadGW:  IGet=1 IStart=         402 Next=         402 LGW=           0.
 Keep R1 and R2 ints in memory in canonical form, NReq=39392076.
 FoFCou: FMM=F IPFlag=           0 FMFlag=           0 FMFlg1=           0
         NFxFlg=           0 DoJE=F BraDBF=F KetDBF=F FulRan=T
         wScrn=  0.000000 ICntrl=     600 IOpCl=  0 I1Cent=           0 NGrid=           0
         NMat0=    1 NMatS0=   6105 NMatT0=    0 NMatD0=    1 NMtDS0=    0 NMtDT0=    0
 Symmetry not used in FoFCou.
 Iteration   1 EE= -1384.84307047370                                    Grad=1.769D-05 Max rot=    0.0005 deg.
 QCNR:  CnvC1=1.77D-10 CnvC2=1.77D-09
 LinEq1:  Iter=  0 NonCon=     1 RMS=1.64D-06 Max=8.37D-05 NDo=     1
 AX will form     1 AO Fock derivatives at one time.
 LinEq1:  Iter=  1 NonCon=     1 RMS=2.81D-07 Max=1.00D-05 NDo=     1
 LinEq1:  Iter=  2 NonCon=     1 RMS=4.46D-07 Max=1.46D-05 NDo=     1
 LinEq1:  Iter=  3 NonCon=     1 RMS=7.38D-07 Max=1.35D-05 NDo=     1
 LinEq1:  Iter=  4 NonCon=     1 RMS=2.14D-07 Max=1.99D-06 NDo=     1
 LinEq1:  Iter=  5 NonCon=     1 RMS=5.76D-08 Max=2.17D-06 NDo=     1
 LinEq1:  Iter=  6 NonCon=     1 RMS=2.60D-08 Max=4.90D-07 NDo=     1
 LinEq1:  Iter=  7 NonCon=     1 RMS=1.16D-08 Max=3.36D-07 NDo=     1
 LinEq1:  Iter=  8 NonCon=     1 RMS=2.28D-09 Max=3.51D-08 NDo=     1
 LinEq1:  Iter=  9 NonCon=     1 RMS=1.07D-09 Max=3.23D-08 NDo=     1
 LinEq1:  Iter= 10 NonCon=     1 RMS=2.90D-10 Max=8.89D-09 NDo=     1
 LinEq1:  Iter= 11 NonCon=     1 RMS=1.28D-10 Max=2.45D-09 NDo=     1
 LinEq1:  Iter= 12 NonCon=     0 RMS=2.25D-11 Max=2.60D-10 NDo=     1
 Linear equations converged to 1.769D-10 1.769D-09 after    12 iterations.
 Angle between quadratic step and gradient= 127.35 degrees.
 Incorrect curvature in search direction -- initial direction reversed.
     ILin= 1 X=0.000D+00 Y=-1.384843070474D+03 DE= 0.00D+00 F= -1.02D-06
     ILin= 2 X=1.000D+00 Y=-1.384843071985D+03 DE=-1.51D-06 F= -1.97D-06
     ILin= 3 X=1.800D+00 Y=-1.384843073807D+03 DE=-3.33D-06 F= -2.55D-06
     ILin= 4 X=3.300D+00 Y=-1.384843078081D+03 DE=-7.61D-06 F= -3.00D-06
     ILin= 5 X=5.900D+00 Y=-1.384843084037D+03 DE=-1.36D-05 F= -7.51D-07
     ILin= 6 X=1.060D+01 Y=-1.384843046852D+03 DE= 2.36D-05 F=  2.10D-05
     An  expanding polynomial of degree  6 produced  6.2968
     Minimum is close to point  5 DX=  3.97D-01 DF= -1.65D-07 DXR=  6.30D-02 DFR=  1.21D-02 which will be used.
 Iteration   2 EE= -1384.84308403696     Delta-E=       -0.000013563265 Grad=4.891D-03 Max rot=    0.1267 deg.
 QCNR:  CnvC1=6.38D-09 CnvC2=6.38D-08
 LinEq1:  Iter=  0 NonCon=     1 RMS=3.32D-05 Max=7.07D-04 NDo=     1
 LinEq1:  Iter=  1 NonCon=     1 RMS=4.65D-05 Max=9.33D-04 NDo=     1
 LinEq1:  Iter=  2 NonCon=     1 RMS=4.57D-05 Max=1.68D-03 NDo=     1
 LinEq1:  Iter=  3 NonCon=     1 RMS=3.84D-05 Max=1.02D-03 NDo=     1
 LinEq1:  Iter=  4 NonCon=     1 RMS=1.94D-05 Max=5.17D-04 NDo=     1
 LinEq1:  Iter=  5 NonCon=     1 RMS=1.51D-05 Max=4.38D-04 NDo=     1
 LinEq1:  Iter=  6 NonCon=     1 RMS=7.17D-06 Max=1.91D-04 NDo=     1
 LinEq1:  Iter=  7 NonCon=     1 RMS=2.47D-06 Max=3.20D-05 NDo=     1
 LinEq1:  Iter=  8 NonCon=     1 RMS=8.19D-07 Max=1.75D-05 NDo=     1
 LinEq1:  Iter=  9 NonCon=     1 RMS=2.41D-07 Max=5.64D-06 NDo=     1
 LinEq1:  Iter= 10 NonCon=     1 RMS=1.00D-07 Max=2.00D-06 NDo=     1
 LinEq1:  Iter= 11 NonCon=     1 RMS=2.43D-08 Max=4.68D-07 NDo=     1
 LinEq1:  Iter= 12 NonCon=     1 RMS=9.00D-09 Max=1.10D-07 NDo=     1
 LinEq1:  Iter= 13 NonCon=     1 RMS=3.55D-09 Max=7.15D-08 NDo=     1
 LinEq1:  Iter= 14 NonCon=     0 RMS=1.24D-09 Max=2.80D-08 NDo=     1
 Linear equations converged to 6.376D-09 6.376D-08 after    14 iterations.
 Angle between quadratic step and gradient=  89.20 degrees.
     ILin= 1 X=0.000D+00 Y=-1.384843084037D+03 DE= 0.00D+00 F= -5.68D-04
     ILin= 2 X=2.000D-01 Y=-1.384842627091D+03 DE= 4.57D-04 F=  9.80D-03
     ILin= 3 X=1.000D-01 Y=-1.384843097540D+03 DE=-1.35D-05 F=  1.05D-03
     A contracting polynomial of degree  3 produced  0.0528
 Iteration   3 EE= -1384.84310967497     Delta-E=       -0.000025638009 Grad=7.395D-03 Max rot=    0.1935 deg.
 QCNR:  CnvC1=6.38D-09 CnvC2=6.38D-08
 LinEq1:  Iter=  0 NonCon=     1 RMS=4.87D-05 Max=1.11D-03 NDo=     1
 LinEq1:  Iter=  1 NonCon=     1 RMS=6.53D-05 Max=1.31D-03 NDo=     1
 LinEq1:  Iter=  2 NonCon=     1 RMS=6.28D-05 Max=2.47D-03 NDo=     1
 LinEq1:  Iter=  3 NonCon=     1 RMS=5.54D-05 Max=1.66D-03 NDo=     1
 LinEq1:  Iter=  4 NonCon=     1 RMS=2.74D-05 Max=5.87D-04 NDo=     1
 LinEq1:  Iter=  5 NonCon=     1 RMS=1.93D-05 Max=5.44D-04 NDo=     1
 LinEq1:  Iter=  6 NonCon=     1 RMS=9.46D-06 Max=3.35D-04 NDo=     1
 LinEq1:  Iter=  7 NonCon=     1 RMS=3.61D-06 Max=4.41D-05 NDo=     1
 LinEq1:  Iter=  8 NonCon=     1 RMS=1.23D-06 Max=2.66D-05 NDo=     1
 LinEq1:  Iter=  9 NonCon=     1 RMS=3.62D-07 Max=8.54D-06 NDo=     1
 LinEq1:  Iter= 10 NonCon=     1 RMS=1.55D-07 Max=2.93D-06 NDo=     1
 LinEq1:  Iter= 11 NonCon=     1 RMS=4.10D-08 Max=1.10D-06 NDo=     1
 LinEq1:  Iter= 12 NonCon=     1 RMS=1.52D-08 Max=2.48D-07 NDo=     1
 LinEq1:  Iter= 13 NonCon=     1 RMS=6.13D-09 Max=1.45D-07 NDo=     1
 LinEq1:  Iter= 14 NonCon=     0 RMS=2.13D-09 Max=4.86D-08 NDo=     1
 Linear equations converged to 6.376D-09 6.376D-08 after    14 iterations.
 Angle between quadratic step and gradient=  89.01 degrees.
     ILin= 1 X=0.000D+00 Y=-1.384843109675D+03 DE= 0.00D+00 F= -1.53D-04
     ILin= 2 X=1.000D+00 Y=-1.384843087259D+03 DE= 2.24D-05 F=  4.62D-04
     Reject lnstep minimum 5.760D-01 FVal=-1.384843170597D+03 Lims=  0.00D+00  1.00D+00
     ILin= 3 X=6.000D-01 Y=-1.384843167433D+03 DE=-5.78D-05 F=  9.24D-06
     A contracting polynomial of degree  3 produced  0.4622
 Iteration   4 EE= -1384.84316338906     Delta-E=       -0.000053714090 Grad=8.049D-03 Max rot=    0.2067 deg.
 QCNR:  CnvC1=6.38D-09 CnvC2=6.38D-08
 LinEq1:  Iter=  0 NonCon=     1 RMS=5.06D-05 Max=1.31D-03 NDo=     1
 LinEq1:  Iter=  1 NonCon=     1 RMS=5.14D-05 Max=1.03D-03 NDo=     1
 LinEq1:  Iter=  2 NonCon=     1 RMS=6.02D-05 Max=2.84D-03 NDo=     1
 LinEq1:  Iter=  3 NonCon=     1 RMS=4.78D-05 Max=1.36D-03 NDo=     1
 LinEq1:  Iter=  4 NonCon=     1 RMS=2.51D-05 Max=4.62D-04 NDo=     1
 LinEq1:  Iter=  5 NonCon=     1 RMS=1.60D-05 Max=3.66D-04 NDo=     1
 LinEq1:  Iter=  6 NonCon=     1 RMS=7.77D-06 Max=3.46D-04 NDo=     1
 LinEq1:  Iter=  7 NonCon=     1 RMS=3.54D-06 Max=7.09D-05 NDo=     1
 LinEq1:  Iter=  8 NonCon=     1 RMS=1.29D-06 Max=2.93D-05 NDo=     1
 LinEq1:  Iter=  9 NonCon=     1 RMS=3.76D-07 Max=9.59D-06 NDo=     1
 LinEq1:  Iter= 10 NonCon=     1 RMS=1.59D-07 Max=3.24D-06 NDo=     1
 LinEq1:  Iter= 11 NonCon=     1 RMS=4.01D-08 Max=1.12D-06 NDo=     1
 LinEq1:  Iter= 12 NonCon=     1 RMS=1.59D-08 Max=2.68D-07 NDo=     1
 LinEq1:  Iter= 13 NonCon=     1 RMS=6.64D-09 Max=1.64D-07 NDo=     1
 LinEq1:  Iter= 14 NonCon=     0 RMS=2.16D-09 Max=4.99D-08 NDo=     1
 Linear equations converged to 6.376D-09 6.376D-08 after    14 iterations.
 Angle between quadratic step and gradient=  88.84 degrees.
     ILin= 1 X=0.000D+00 Y=-1.384843163389D+03 DE= 0.00D+00 F= -1.26D-04
     ILin= 2 X=1.000D+00 Y=-1.384843227221D+03 DE=-6.38D-05 F=  3.19D-05
     Accept linear search using points  1 and  2.
     An  expanding polynomial of degree  2 produced  0.8745
 Iteration   5 EE= -1384.84322885062     Delta-E=       -0.000065461552 Grad=7.584D-03 Max rot=    0.1747 deg.
 QCNR:  CnvC1=6.38D-09 CnvC2=6.38D-08
 LinEq1:  Iter=  0 NonCon=     1 RMS=4.61D-05 Max=1.33D-03 NDo=     1
 LinEq1:  Iter=  1 NonCon=     1 RMS=1.80D-05 Max=4.60D-04 NDo=     1
 LinEq1:  Iter=  2 NonCon=     1 RMS=3.59D-05 Max=1.73D-03 NDo=     1
 LinEq1:  Iter=  3 NonCon=     1 RMS=2.22D-05 Max=5.41D-04 NDo=     1
 LinEq1:  Iter=  4 NonCon=     1 RMS=1.47D-05 Max=2.63D-04 NDo=     1
 LinEq1:  Iter=  5 NonCon=     1 RMS=8.31D-06 Max=1.04D-04 NDo=     1
 LinEq1:  Iter=  6 NonCon=     1 RMS=2.62D-06 Max=8.58D-05 NDo=     1
 LinEq1:  Iter=  7 NonCon=     1 RMS=1.11D-06 Max=4.04D-05 NDo=     1
 LinEq1:  Iter=  8 NonCon=     1 RMS=5.40D-07 Max=1.26D-05 NDo=     1
 LinEq1:  Iter=  9 NonCon=     1 RMS=2.53D-07 Max=5.82D-06 NDo=     1
 LinEq1:  Iter= 10 NonCon=     1 RMS=1.22D-07 Max=1.90D-06 NDo=     1
 LinEq1:  Iter= 11 NonCon=     1 RMS=2.68D-08 Max=6.00D-07 NDo=     1
 LinEq1:  Iter= 12 NonCon=     1 RMS=7.39D-09 Max=1.53D-07 NDo=     1
 LinEq1:  Iter= 13 NonCon=     0 RMS=3.42D-09 Max=5.90D-08 NDo=     1
 Linear equations converged to 6.376D-09 6.376D-08 after    13 iterations.
 Angle between quadratic step and gradient=  88.58 degrees.
     ILin= 1 X=0.000D+00 Y=-1.384843228851D+03 DE= 0.00D+00 F= -6.56D-05
     ILin= 2 X=1.000D+00 Y=-1.384843268708D+03 DE=-3.99D-05 F= -1.90D-05
     Reject lnstep minimum 1.797D+00 FVal=-1.384843275404D+03 Lims=  0.00D+00  1.00D+00
     ILin= 3 X=1.400D+00 Y=-1.384843273424D+03 DE=-4.46D-05 F= -4.46D-06
     ILin= 4 X=2.100D+00 Y=-1.384843266199D+03 DE=-3.73D-05 F=  2.75D-05
     An  expanding polynomial of degree  4 produced  1.4935
     Minimum is close to point  3 DX=  9.35D-02 DF= -1.76D-07 DXR=  6.26D-02 DFR=  3.94D-03 which will be used.
 Iteration   6 EE= -1384.84327342379     Delta-E=       -0.000044573178 Grad=2.467D-03 Max rot=    0.0802 deg.
 QCNR:  CnvC1=6.38D-09 CnvC2=6.38D-08
 LinEq1:  Iter=  0 NonCon=     1 RMS=1.79D-05 Max=4.12D-04 NDo=     1
 LinEq1:  Iter=  1 NonCon=     1 RMS=2.41D-05 Max=4.89D-04 NDo=     1
 LinEq1:  Iter=  2 NonCon=     1 RMS=1.80D-05 Max=7.75D-04 NDo=     1
 LinEq1:  Iter=  3 NonCon=     1 RMS=1.86D-05 Max=5.88D-04 NDo=     1
 LinEq1:  Iter=  4 NonCon=     1 RMS=9.12D-06 Max=1.65D-04 NDo=     1
 LinEq1:  Iter=  5 NonCon=     1 RMS=5.42D-06 Max=8.81D-05 NDo=     1
 LinEq1:  Iter=  6 NonCon=     1 RMS=1.50D-06 Max=5.22D-05 NDo=     1
 LinEq1:  Iter=  7 NonCon=     1 RMS=8.01D-07 Max=2.75D-05 NDo=     1
 LinEq1:  Iter=  8 NonCon=     1 RMS=3.35D-07 Max=6.73D-06 NDo=     1
 LinEq1:  Iter=  9 NonCon=     1 RMS=1.16D-07 Max=1.67D-06 NDo=     1
 LinEq1:  Iter= 10 NonCon=     1 RMS=5.65D-08 Max=8.55D-07 NDo=     1
 LinEq1:  Iter= 11 NonCon=     1 RMS=1.49D-08 Max=3.80D-07 NDo=     1
 LinEq1:  Iter= 12 NonCon=     1 RMS=5.22D-09 Max=8.27D-08 NDo=     1
 LinEq1:  Iter= 13 NonCon=     0 RMS=2.19D-09 Max=5.14D-08 NDo=     1
 Linear equations converged to 6.376D-09 6.376D-08 after    13 iterations.
 Angle between quadratic step and gradient=  88.82 degrees.
     ILin= 1 X=0.000D+00 Y=-1.384843273424D+03 DE= 0.00D+00 F= -1.20D-05
     ILin= 2 X=1.000D+00 Y=-1.384843280382D+03 DE=-6.96D-06 F= -2.69D-06
     Reject lnstep minimum 1.426D+00 FVal=-1.384843280932D+03 Lims=  0.00D+00  1.00D+00
     ILin= 3 X=1.500D+00 Y=-1.384843280799D+03 DE=-7.38D-06 F=  1.02D-06
     Accept linear search using points  2 and  3.
     An  expanding polynomial of degree  3 produced  1.2804
 Iteration   7 EE= -1384.84328084375     Delta-E=       -0.000007419961 Grad=8.950D-04 Max rot=    0.0299 deg.
 QCNR:  CnvC1=6.38D-09 CnvC2=6.38D-08
 LinEq1:  Iter=  0 NonCon=     1 RMS=5.92D-06 Max=1.37D-04 NDo=     1
 LinEq1:  Iter=  1 NonCon=     1 RMS=7.67D-06 Max=1.57D-04 NDo=     1
 LinEq1:  Iter=  2 NonCon=     1 RMS=4.54D-06 Max=1.16D-04 NDo=     1
 LinEq1:  Iter=  3 NonCon=     1 RMS=4.38D-06 Max=1.91D-04 NDo=     1
 LinEq1:  Iter=  4 NonCon=     1 RMS=2.79D-06 Max=8.42D-05 NDo=     1
 LinEq1:  Iter=  5 NonCon=     1 RMS=1.79D-06 Max=3.02D-05 NDo=     1
 LinEq1:  Iter=  6 NonCon=     1 RMS=4.65D-07 Max=7.10D-06 NDo=     1
 LinEq1:  Iter=  7 NonCon=     1 RMS=2.26D-07 Max=5.89D-06 NDo=     1
 LinEq1:  Iter=  8 NonCon=     1 RMS=9.97D-08 Max=2.75D-06 NDo=     1
 LinEq1:  Iter=  9 NonCon=     1 RMS=3.25D-08 Max=6.21D-07 NDo=     1
 LinEq1:  Iter= 10 NonCon=     1 RMS=1.38D-08 Max=2.89D-07 NDo=     1
 LinEq1:  Iter= 11 NonCon=     1 RMS=3.65D-09 Max=1.07D-07 NDo=     1
 LinEq1:  Iter= 12 NonCon=     0 RMS=1.63D-09 Max=3.01D-08 NDo=     1
 Linear equations converged to 6.376D-09 6.376D-08 after    12 iterations.
 Angle between quadratic step and gradient=  88.68 degrees.
     ILin= 1 X=0.000D+00 Y=-1.384843280844D+03 DE= 0.00D+00 F= -6.77D-07
     ILin= 2 X=1.000D+00 Y=-1.384843281191D+03 DE=-3.47D-07 F= -2.46D-08
     Reject lnstep minimum 1.039D+00 FVal=-1.384843281191D+03 Lims=  0.00D+00  1.00D+00
     ILin= 3 X=2.000D+00 Y=-1.384843280909D+03 DE=-6.49D-08 F=  5.81D-07
     An  expanding polynomial of degree  3 produced  1.0516
     Minimum is close to point  2 DX=  5.16D-02 DF= -8.36D-10 DXR=  4.90D-02 DFR=  2.41D-03 which will be used.
 Iteration   8 EE= -1384.84328119058     Delta-E=       -0.000000346829 Grad=1.861D-05 Max rot=    0.0006 deg.
 QCNR:  CnvC1=1.86D-10 CnvC2=1.86D-09
 LinEq1:  Iter=  0 NonCon=     1 RMS=1.68D-07 Max=3.16D-06 NDo=     1
 LinEq1:  Iter=  1 NonCon=     1 RMS=1.77D-07 Max=4.25D-06 NDo=     1
 LinEq1:  Iter=  2 NonCon=     1 RMS=3.16D-07 Max=1.04D-05 NDo=     1
 LinEq1:  Iter=  3 NonCon=     1 RMS=2.38D-07 Max=7.53D-06 NDo=     1
 LinEq1:  Iter=  4 NonCon=     1 RMS=1.09D-07 Max=2.12D-06 NDo=     1
 LinEq1:  Iter=  5 NonCon=     1 RMS=9.43D-08 Max=2.48D-06 NDo=     1
 LinEq1:  Iter=  6 NonCon=     1 RMS=4.04D-08 Max=1.34D-06 NDo=     1
 LinEq1:  Iter=  7 NonCon=     1 RMS=1.94D-08 Max=4.97D-07 NDo=     1
 LinEq1:  Iter=  8 NonCon=     1 RMS=7.73D-09 Max=1.42D-07 NDo=     1
 LinEq1:  Iter=  9 NonCon=     1 RMS=4.07D-09 Max=1.10D-07 NDo=     1
 LinEq1:  Iter= 10 NonCon=     1 RMS=1.46D-09 Max=2.80D-08 NDo=     1
 LinEq1:  Iter= 11 NonCon=     1 RMS=5.77D-10 Max=1.04D-08 NDo=     1
 LinEq1:  Iter= 12 NonCon=     1 RMS=1.88D-10 Max=4.11D-09 NDo=     1
 LinEq1:  Iter= 13 NonCon=     1 RMS=7.26D-11 Max=2.40D-09 NDo=     1
 LinEq1:  Iter= 14 NonCon=     0 RMS=3.19D-11 Max=8.49D-10 NDo=     1
[...]
 (Enter /opt/g09/l1101.exe)
 Using compressed storage, NAtomX=     3.
 Will process      4 centers per pass.
 Leave Link 1101 at Tue Jul 19 06:28:15 2016, MaxMem=   524288000 cpu:         2.1
 (Enter /opt/g09/l1102.exe)
 Symmetrizing basis deriv contribution to polar:
 IMax=3 JMax=2 DiffMx= 0.00D+00
 Leave Link 1102 at Tue Jul 19 06:28:15 2016, MaxMem=   524288000 cpu:         0.2
 (Enter /opt/g09/l1110.exe)
 Forming Gx(P) for the SCF density, NAtomX=     3.
 Integral derivatives from FoFJK, PRISM(SPDF).
 Do as many integral derivatives as possible in FoFJK.
 G2DrvN: MDV=     524287872.
 G2DrvN: will do     4 centers at a time, making    1 passes.
 Calling FoFCou, ICntrl=  3107 FMM=F I1Cent=   0 AccDes= 0.00D+00.
 FoFJK:  IHMeth= 1 ICntrl=    3107 DoSepK=F KAlg= 0 I1Cent=   0 FoldK=F
 IRaf=         0 NMat=   1 IRICut=       1 DoRegI=T DoRafI=F ISym2E= 0.
 FoFCou: FMM=F IPFlag=           0 FMFlag=      100000 FMFlg1=           0
         NFxFlg=           0 DoJE=F BraDBF=F KetDBF=F FulRan=T
         wScrn=  0.000000 ICntrl=    3107 IOpCl=  1 I1Cent=           0 NGrid=           0
         NMat0=    1 NMatS0=      1 NMatT0=    0 NMatD0=    1 NMtDS0=    0 NMtDT0=    0
 Symmetry not used in FoFCou.
 End of G2Drv F.D. properties file   721 does not exist.
 End of G2Drv F.D. properties file   722 does not exist.
 End of G2Drv F.D. properties file   788 does not exist.
 Leave Link 1110 at Tue Jul 19 06:28:21 2016, MaxMem=   524288000 cpu:        44.9
 (Enter /opt/g09/l1002.exe)
 Minotr:  UHF open shell wavefunction.
          IDoAtm=111
          Direct CPHF calculation.
          Differentiating once with respect to electric field.
                with respect to dipole field.
          Differentiating once with respect to nuclear coordinates.
          Requested convergence is 1.0D-08 RMS, and 1.0D-07 maximum.
          Secondary convergence is 1.0D-12 RMS, and 1.0D-12 maximum.
          NewPWx=T KeepS1=F KeepF1=F KeepIn=T MapXYZ=F SortEE=F KeepMc=T.
          MDV=     524287746 using IRadAn=       1.
 Generate precomputed XC quadrature information.
 Keep R1 and R2 ints in memory in canonical form, NReq=39281919.
 FoFCou: FMM=F IPFlag=           0 FMFlag=           0 FMFlg1=           0
         NFxFlg=           0 DoJE=F BraDBF=F KetDBF=F FulRan=T
         wScrn=  0.000000 ICntrl=     600 IOpCl=  0 I1Cent=           0 NGrid=           0
         NMat0=    1 NMatS0=   6105 NMatT0=    0 NMatD0=    1 NMtDS0=    0 NMtDT0=    0
 Symmetry not used in FoFCou.
          Solving linear equations simultaneously, MaxMat=       0.
          There are    12 degrees of freedom in the 1st order CPHF.  IDoFFX=6 NUNeed=     3.
      9 vectors produced by pass  0 Test12= 3.39D-14 8.33D-09 XBig12= 1.01D+02 2.58D+00.
 AX will form     9 AO Fock derivatives at one time.
      9 vectors produced by pass  1 Test12= 3.39D-14 8.33D-09 XBig12= 7.49D+01 1.43D+00.
      9 vectors produced by pass  2 Test12= 3.39D-14 8.33D-09 XBig12= 6.88D+00 9.35D-01.
      9 vectors produced by pass  3 Test12= 3.39D-14 8.33D-09 XBig12= 4.77D-01 1.82D-01.
      9 vectors produced by pass  4 Test12= 3.39D-14 8.33D-09 XBig12= 2.09D-02 3.72D-02.
      9 vectors produced by pass  5 Test12= 3.39D-14 8.33D-09 XBig12= 2.02D-04 3.26D-03.
      9 vectors produced by pass  6 Test12= 3.39D-14 8.33D-09 XBig12= 2.51D-06 4.23D-04.
      9 vectors produced by pass  7 Test12= 3.39D-14 8.33D-09 XBig12= 2.73D-08 4.50D-05.
      7 vectors produced by pass  8 Test12= 3.39D-14 8.33D-09 XBig12= 2.45D-10 3.96D-06.
      3 vectors produced by pass  9 Test12= 3.39D-14 8.33D-09 XBig12= 2.41D-12 3.94D-07.
      3 vectors produced by pass 10 Test12= 3.39D-14 8.33D-09 XBig12= 1.92D-14 3.11D-08.
 InvSVY:  IOpt=1 It=  1 EMax= 1.48D-15
 Solved reduced A of dimension    85 with     9 vectors.
 FullF1:  Do perturbations    1 to     3.
 Isotropic polarizability for W=    0.000000       51.88 Bohr**3.
 End of Minotr F.D. properties file   721 does not exist.
 End of Minotr F.D. properties file   722 does not exist.
 End of Minotr F.D. properties file   788 does not exist.
 Leave Link 1002 at Tue Jul 19 06:28:32 2016, MaxMem=   524288000 cpu:        87.7
 (Enter /opt/g09/l701.exe)
 Compute integral second derivatives.
 ... and contract with generalized density number  0.
 Leave Link  701 at Tue Jul 19 06:28:32 2016, MaxMem=   524288000 cpu:         3.8
 (Enter /opt/g09/l702.exe)
 L702 exits ... SP integral derivatives will be done elsewhere.
 Leave Link  702 at Tue Jul 19 06:28:32 2016, MaxMem=   524288000 cpu:         0.2
 (Enter /opt/g09/l703.exe)
 Compute integral second derivatives, UseDBF=F ICtDFT=           0.
 Integral derivatives from FoFJK, PRISM(SPDF).
 Calling FoFJK, ICntrl=    100127 FMM=F ISym2X=0 I1Cent= 0 IOpClX= 1 NMat=1 NMatS=1 NMatT=0.
 FoFJK:  IHMeth= 1 ICntrl=  100127 DoSepK=F KAlg= 0 I1Cent=   0 FoldK=F
 IRaf=         0 NMat=   1 IRICut=       1 DoRegI=T DoRafI=F ISym2E= 0.
 FoFCou: FMM=F IPFlag=           0 FMFlag=      100000 FMFlg1=         800
         NFxFlg=           0 DoJE=F BraDBF=F KetDBF=F FulRan=T
         wScrn=  0.000000 ICntrl=  100127 IOpCl=  1 I1Cent=           0 NGrid=           0
         NMat0=    1 NMatS0=      1 NMatT0=    0 NMatD0=    1 NMtDS0=    0 NMtDT0=    0
 Symmetry not used in FoFCou.
 Leave Link  703 at Tue Jul 19 06:28:46 2016, MaxMem=   524288000 cpu:       109.5
 (Enter /opt/g09/l716.exe)
 Dipole        = 8.68678655D-01-6.85264873D-01-1.60530835D+00
 Polarizability= 5.47450237D+01 7.36432785D+00 5.50046810D+01
                 1.05495637D+01-1.05542543D+01 4.58857639D+01
 Full mass-weighted force constant matrix:
 Low frequencies ---   -9.1495   -0.0057    0.0025    0.0029    5.7815    8.2652
 Low frequencies ---  110.4473  388.7549 1043.6705
 Diagonal vibrational polarizability:
       18.1222180      14.9189213      83.0539580
 Harmonic frequencies (cm**-1), IR intensities (KM/Mole), Raman scattering
 activities (A**4/AMU), depolarization ratios for plane and unpolarized
 incident light, reduced masses (AMU), force constants (mDyne/A),
 and normal coordinates:
                      1                      2                      3
                      A                      A                      A
 Frequencies --    110.4308               388.7549              1043.6705
 Red. masses --     22.1680                37.4568                19.2118
 Frc consts  --      0.1593                 3.3353                12.3295
 IR Inten    --     41.7087                91.6249               313.2465
  Atom  AN      X      Y      Z        X      Y      Z        X      Y      Z
     1  22     0.18  -0.18  -0.23     0.01   0.18  -0.53     0.16  -0.27   0.07
     2   8    -0.15  -0.10   0.85    -0.17   0.22   0.08    -0.48   0.79  -0.21
     3  17    -0.18   0.29  -0.07     0.06  -0.35   0.69     0.00   0.00   0.00

 -------------------
 - Thermochemistry -
 -------------------
 Temperature   298.150 Kelvin.  Pressure   1.00000 Atm.
 Atom     1 has atomic number 22 and mass  47.94795
 Atom     2 has atomic number  8 and mass  15.99491
 Atom     3 has atomic number 17 and mass  34.96885
 Molecular mass:    98.91171 amu.
 Principal axes and moments of inertia in atomic units:
                           1         2         3
     Eigenvalues --    43.30844 612.41503 655.72346
           X            0.22763  -0.53466   0.81384
           Y           -0.62844   0.55775   0.54219
           Z            0.74380   0.63487   0.20904
 This molecule is an asymmetric top.
 Rotational symmetry number  1.
 Rotational temperatures (Kelvin)      1.99993     0.14143     0.13209
 Rotational constants (GHZ):          41.67181     2.94693     2.75229
 Zero-point vibrational energy       9228.3 (Joules/Mol)
                                    2.20562 (Kcal/Mol)
 Warning -- explicit consideration of   2 degrees of freedom as
           vibrations may cause significant error
 Vibrational temperatures:    158.89   559.33  1501.61
          (Kelvin)
 
 Zero-point correction=                           0.003515 (Hartree/Particle)
 Thermal correction to Energy=                    0.007414
 Thermal correction to Enthalpy=                  0.008358
 Thermal correction to Gibbs Free Energy=        -0.024794
 Sum of electronic and zero-point Energies=          -1384.839808
 Sum of electronic and thermal Energies=             -1384.835909
 Sum of electronic and thermal Enthalpies=           -1384.834964
 Sum of electronic and thermal Free Energies=        -1384.868117
 
                     E (Thermal)             CV                S
                      KCal/Mol        Cal/Mol-Kelvin    Cal/Mol-Kelvin
 Total                    4.652              9.728             69.775
 Electronic               0.000              0.000              1.377
 Translational            0.889              2.981             39.685
 Rotational               0.889              2.981             24.368
 Vibrational              2.875              3.767              4.345
 Vibration     1          0.606              1.941              3.261
 Vibration     2          0.757              1.494              1.005
                       Q            Log10(Q)             Ln(Q)
 Total Bot       0.253884D+12         11.404635         26.260143
 Total V=0       0.105043D+14         13.021367         29.982805
 Vib (Bot)       0.695444D-01         -1.157738         -2.665789
 Vib (Bot)    1  0.185449D+01          0.268225          0.617611
 Vib (Bot)    2  0.462222D+00         -0.335150         -0.771711
 Vib (V=0)       0.287736D+01          0.458994          1.056872
 Vib (V=0)    1  0.242071D+01          0.383943          0.884062
 Vib (V=0)    2  0.118092D+01          0.072220          0.166292
 Electronic      0.200000D+01          0.301030          0.693147
 Translational   0.386658D+08          7.587327         17.470466
 Rotational      0.472080D+05          4.674016         10.762319
 
                                                        ./0_0-verify-ClOTi.g09
                                                             IR Spectrum
 
      1                                                                                                                              
      0                                                                              3                                 1             
      4                                                                              8                                 1             
      4                                                                              9                                 0             
 
      X                                                                              X                                 X             
      X                                                                              X                                 X             
      X                                                                              X                                 X             
      X                                                                              X                                               
      X                                                                              X                                               
      X                                                                              X                                               
      X                                                                                                                              
      X                                                                                                                              
      X                                                                                                                              
      X                                                                                                                              
      X                                                                                                                              
      X                                                                                                                              
      X                                                                                                                              
      X                                                                                                                              
      X                                                                                                                              
      X                                                                                                                              
      X                                                                                                                              
      X                                                                                                                              
      X                                                                                                                              
      X                                                                                                                              
 
 -------------------------------------------------------------------
 Center     Atomic                   Forces (Hartrees/Bohr)
 Number     Number              X              Y              Z
 -------------------------------------------------------------------
      1       22          -0.000001217   -0.000002718   -0.000000384
      2        8           0.000004083    0.000003763    0.000000313
      3       17          -0.000002866   -0.000001045    0.000000071
 -------------------------------------------------------------------
 Cartesian Forces:  Max     0.000004083 RMS     0.000002339
 Force constants in Cartesian coordinates: 
                1             2             3             4             5 
      1  0.128082D+00
      2 -0.210684D+00  0.361920D+00
      3  0.475953D-01 -0.118558D+00  0.122460D+00
      4 -0.125995D+00  0.204837D+00 -0.407155D-01  0.125364D+00
      5  0.209318D+00 -0.342077D+00  0.728628D-01 -0.208623D+00  0.347775D+00
      6 -0.522219D-01  0.900302D-01 -0.307411D-01  0.530559D-01 -0.901939D-01
      7 -0.208782D-02  0.584702D-02 -0.687977D-02  0.630148D-03 -0.694345D-03
      8  0.136640D-02 -0.198425D-01  0.456950D-01  0.378627D-02 -0.569808D-02
      9  0.462666D-02  0.285276D-01 -0.917185D-01 -0.123404D-01  0.173312D-01
                6             7             8             9 
      6  0.277958D-01
      7 -0.833987D-03  0.145767D-02
      8  0.163754D-03 -0.515268D-02  0.255406D-01
      9  0.294535D-02  0.771375D-02 -0.458588D-01  0.887732D-01
 FormGI is forming the generalized inverse of G from B-inverse, IUseBI=4.
 Force constants in internal coordinates: 
                1             2             3 
      1  0.496229D+00
      2  0.204130D-01  0.113386D+00
      3 -0.223401D-01 -0.227561D-01  0.439810D-01
 Leave Link  716 at Tue Jul 19 06:28:46 2016, MaxMem=   524288000 cpu:         0.3
 (Enter /opt/g09/l103.exe)

 GradGradGradGradGradGradGradGradGradGradGradGradGradGradGradGradGradGrad
 Berny optimization.
 Red2BG is reusing G-inverse.
 Internal  Forces:  Max     0.000001305 RMS     0.000000785
 Search for a local minimum.
 Step number   1 out of a maximum of    2
 All quantities printed in internal units (Hartrees-Bohrs-Radians)
 Second derivative matrix not updated -- analytic derivatives used.
 The second derivative matrix:
                          R1        R2        A1
           R1           0.49623
           R2           0.02041   0.11339
           A1          -0.02234  -0.02276   0.04398
 ITU=  0
     Eigenvalues ---    0.03665   0.11841   0.49853
 Angle between quadratic step and forces=  58.89 degrees.
 Linear search not attempted -- first point.
 Iteration  1 RMS(Cart)=  0.00000766 RMS(Int)=  0.00000000
 Iteration  2 RMS(Cart)=  0.00000000 RMS(Int)=  0.00000000
 ITry= 1 IFail=0 DXMaxC= 7.36D-06 DCOld= 1.00D+10 DXMaxT= 2.56D+00 DXLimC= 3.00D+00 Rises=F
 Variable       Old X    -DE/DX   Delta X   Delta X   Delta X     New X
                                 (Linear)    (Quad)   (Total)
    R1        3.04871   0.00000   0.00000   0.00000   0.00000   3.04871
    R2        4.36373   0.00000   0.00000   0.00000   0.00000   4.36373
    A1        2.30340   0.00000   0.00000  -0.00001  -0.00001   2.30339
         Item               Value     Threshold  Converged?
 Maximum Force            0.000001     0.000015     YES
 RMS     Force            0.000001     0.000010     YES
 Maximum Displacement     0.000007     0.000060     YES
 RMS     Displacement     0.000008     0.000040     YES
 Predicted change in Energy=-2.945993D-12
 Optimization completed.
    -- Stationary point found.
                           ----------------------------
                           !   Optimized Parameters   !
                           ! (Angstroms and Degrees)  !
 --------------------------                            --------------------------
 ! Name  Definition              Value          Derivative Info.                !
 --------------------------------------------------------------------------------
 ! R1    R(1,2)                  1.6133         -DE/DX =    0.0                 !
 ! R2    R(1,3)                  2.3092         -DE/DX =    0.0                 !
 ! A1    A(2,1,3)              131.9752         -DE/DX =    0.0                 !
 --------------------------------------------------------------------------------
 GradGradGradGradGradGradGradGradGradGradGradGradGradGradGradGradGradGrad

 Leave Link  103 at Tue Jul 19 06:28:46 2016, MaxMem=   524288000 cpu:         0.1
 (Enter /opt/g09/l9999.exe)
 1\1\GINC-GAUGUIN\Freq\UB971\6-311+G(d,p)\Cl1O1Ti1(2)\PB556\19-Jul-2016
 \0\\#P Geom=AllCheck Guess=TCheck SCRF=Check GenChk UB971/6-311+G(d,p)
  Freq\\./0_0-verify-ClOTi.g09\\0,2\Ti,-1.0624955513,0.0043539771,0.984
 7249442\O,-1.8647948923,1.3529963844,0.6102387807\Cl,-0.8105195565,-1.
 1408503615,2.9740362751\\Version=ES64L-G09RevD.01\HF=-1384.8433225\S2=
 0.755192\S2-1=0.\S2A=0.750022\RMSD=8.079e-10\RMSF=2.339e-06\ZeroPoint=
 0.0035149\Thermal=0.0074138\Dipole=0.8686787,-0.6852649,-1.6053084\Dip
 oleDeriv=1.4954197,-0.37156,0.3537556,-0.3475368,2.1193465,-0.7053273,
 0.2767714,-0.5930479,1.7722216,-0.9193499,0.3569992,-0.3037043,0.27933
 75,-1.3897371,0.5013755,-0.1148797,0.2393934,-0.8723392,-0.5760698,0.0
 145608,-0.0500513,0.0681993,-0.7296094,0.2039517,-0.1618916,0.3536545,
 -0.8998825\Polar=54.7450237,7.3643279,55.004681,10.5495637,-10.5542543
 ,45.8857639\PG=CS [SG(Cl1O1Ti1)]\NImag=0\\0.12808236,-0.21068420,0.361
 91986,0.04759526,-0.11855779,0.12245963,-0.12599454,0.20483718,-0.0407
 1549,0.12536439,0.20931779,-0.34207734,0.07286276,-0.20862345,0.347775
 42,-0.05222191,0.09003016,-0.03074112,0.05305590,-0.09019391,0.0277957
 7,-0.00208782,0.00584702,-0.00687977,0.00063015,-0.00069435,-0.0008339
 9,0.00145767,0.00136640,-0.01984252,0.04569504,0.00378627,-0.00569808,
 0.00016375,-0.00515268,0.02554061,0.00462666,0.02852764,-0.09171851,-0
 .01234041,0.01733116,0.00294535,0.00771375,-0.04585879,0.08877316\\0.0
 0000122,0.00000272,0.00000038,-0.00000408,-0.00000376,-0.00000031,0.00
 000287,0.00000104,-0.00000007\\\@


 The impersonal hand of government can
 never replace the helping hand of a neighbor.
                        -- Hubert H. Humphrey
 Job cpu time:       0 days  0 hours  4 minutes 24.0 seconds.
 File lengths (MBytes):  RWF=     16 Int=      0 D2E=      0 Chk=      2 Scr=      1
 Normal termination of Gaussian 09 at Tue Jul 19 06:28:46 2016.
