 Entering Gaussian System, Link 0=g09
 Input=freq-fine-Cl4Ti.gau
 Output=freq-fine-Cl4Ti.log
 Initial command:
 /opt/g09/l1.exe "/scratch/pb556/g09_run/ticl_thermo//Gau-19884.inp" -scrdir="/scratch/pb556/g09_run/ticl_thermo//"
 Entering Link 1 = /opt/g09/l1.exe PID=     19893.
  
 Copyright (c) 1988,1990,1992,1993,1995,1998,2003,2009,2013,
            Gaussian, Inc.  All Rights Reserved.
  
 This is part of the Gaussian(R) 09 program.  It is based on
 the Gaussian(R) 03 system (copyright 2003, Gaussian, Inc.),
 the Gaussian(R) 98 system (copyright 1998, Gaussian, Inc.),
 the Gaussian(R) 94 system (copyright 1995, Gaussian, Inc.),
 the Gaussian 92(TM) system (copyright 1992, Gaussian, Inc.),
 the Gaussian 90(TM) system (copyright 1990, Gaussian, Inc.),
 the Gaussian 88(TM) system (copyright 1988, Gaussian, Inc.),
 the Gaussian 86(TM) system (copyright 1986, Carnegie Mellon
 University), and the Gaussian 82(TM) system (copyright 1983,
 Carnegie Mellon University). Gaussian is a federally registered
 trademark of Gaussian, Inc.
  
 This software contains proprietary and confidential information,
 including trade secrets, belonging to Gaussian, Inc.
  
 This software is provided under written license and may be
 used, copied, transmitted, or stored only in accord with that
 written license.
  
 The following legend is applicable only to US Government
 contracts under FAR:
  
                    RESTRICTED RIGHTS LEGEND
  
 Use, reproduction and disclosure by the US Government is
 subject to restrictions as set forth in subparagraphs (a)
 and (c) of the Commercial Computer Software - Restricted
 Rights clause in FAR 52.227-19.
  
 Gaussian, Inc.
 340 Quinnipiac St., Bldg. 40, Wallingford CT 06492
  
  
 ---------------------------------------------------------------
 Warning -- This program may not be used in any manner that
 competes with the business of Gaussian, Inc. or will provide
 assistance to any competitor of Gaussian, Inc.  The licensee
 of this program is prohibited from giving any competitor of
 Gaussian, Inc. access to this program.  By using this program,
 the user acknowledges that Gaussian, Inc. is engaged in the
 business of creating and licensing software in the field of
 computational chemistry and represents and warrants to the
 licensee that it is not a competitor of Gaussian, Inc. and that
 it will not use this program in any manner prohibited above.
 ---------------------------------------------------------------
  

 Cite this work as:
 Gaussian 09, Revision D.01,
 M. J. Frisch, G. W. Trucks, H. B. Schlegel, G. E. Scuseria, 
 M. A. Robb, J. R. Cheeseman, G. Scalmani, V. Barone, B. Mennucci, 
 G. A. Petersson, H. Nakatsuji, M. Caricato, X. Li, H. P. Hratchian, 
 A. F. Izmaylov, J. Bloino, G. Zheng, J. L. Sonnenberg, M. Hada, 
 M. Ehara, K. Toyota, R. Fukuda, J. Hasegawa, M. Ishida, T. Nakajima, 
 Y. Honda, O. Kitao, H. Nakai, T. Vreven, J. A. Montgomery, Jr., 
 J. E. Peralta, F. Ogliaro, M. Bearpark, J. J. Heyd, E. Brothers, 
 K. N. Kudin, V. N. Staroverov, T. Keith, R. Kobayashi, J. Normand, 
 K. Raghavachari, A. Rendell, J. C. Burant, S. S. Iyengar, J. Tomasi, 
 M. Cossi, N. Rega, J. M. Millam, M. Klene, J. E. Knox, J. B. Cross, 
 V. Bakken, C. Adamo, J. Jaramillo, R. Gomperts, R. E. Stratmann, 
 O. Yazyev, A. J. Austin, R. Cammi, C. Pomelli, J. W. Ochterski, 
 R. L. Martin, K. Morokuma, V. G. Zakrzewski, G. A. Voth, 
 P. Salvador, J. J. Dannenberg, S. Dapprich, A. D. Daniels, 
 O. Farkas, J. B. Foresman, J. V. Ortiz, J. Cioslowski, 
 and D. J. Fox, Gaussian, Inc., Wallingford CT, 2013.
 
 ******************************************
 Gaussian 09:  ES64L-G09RevD.01 24-Apr-2013
                11-Feb-2015 
 ******************************************
 %NProcShared=8
 Will use up to    8 processors via shared memory.
 %Mem=500MW
 ----------------------------------------------------------------------
 #p rB971/6-311+G(d,p) Opt=(Tight, CalcAll) Freq GFInput Population=Non
 e Integral(Grid=UltraFine) SCF=XQC Guess=MIX NoSymmetry
 ----------------------------------------------------------------------
 1/7=10,10=4,14=-1,18=20,19=15,26=4,38=1/1,3;
 2/9=110,12=2,15=1,17=6,18=5,40=1/2;
 3/5=4,6=6,7=111,11=2,16=1,24=10,25=1,30=1,71=2,74=-20,75=-5,116=1,140=1/1,2,3;
 4/13=-1/1;
 5/5=2,8=3,13=1,38=5/2,8;
 8/6=4,10=90,11=11/1;
 11/6=1,8=1,9=11,15=111,16=1,31=1/1,2,10;
 10/6=1,31=1/2;
 7/10=1,25=1,30=1/1,2,3,16;
 1/7=10,10=4,14=-1,18=20,19=15,26=4/3(3);
 2/9=110,15=1/2;
 7/8=1,9=1,25=1,30=1,44=-1/16;
 99//99;
 2/9=110,15=1/2;
 3/5=4,6=6,7=111,11=2,16=1,25=1,30=1,71=2,74=-20,75=-5,116=1,140=1/1,2,3;
 4/5=5,16=3,69=1/1;
 5/5=2,8=3,13=1,38=5/2,8;
 8/6=4,10=90,11=11/1;
 11/6=1,8=1,9=11,15=111,16=1,31=1/1,2,10;
 10/6=1,31=1/2;
 7/10=1,25=1,30=1/1,2,3,16;
 1/7=10,10=4,14=-1,18=20,19=15,26=4/3(-8);
 2/9=110,15=1/2;
 7/8=1,9=1,25=1,30=1,44=-1/16;
 99//99;
 Leave Link    1 at Wed Feb 11 16:48:02 2015, MaxMem=   524288000 cpu:         0.5
 (Enter /opt/g09/l101.exe)
 ----------------------------------------------------------------
 W:\Data\TiCl\esc\B971\gs\new\monomer\fine\success\fine-Cl4Ti.g09
 ----------------------------------------------------------------
 Symbolic Z-matrix:
 Charge =  0 Multiplicity = 1
 Cl                   -2.44155   1.30134  -0.88072 
 Ti                   -0.90475   0.14582   0.13755 
 Cl                    0.07915  -1.16904  -1.28966 
 Cl                    0.56107   1.49734   1.00851 
 Cl                   -1.81756  -1.04628   1.71222 
 
 NAtoms=      5 NQM=        5 NQMF=       0 NMMI=      0 NMMIF=      0
                NMic=       0 NMicF=      0.
                    Isotopes and Nuclear Properties:
 (Nuclear quadrupole moments (NQMom) in fm**2, nuclear magnetic moments (NMagM)
  in nuclear magnetons)

  Atom         1           2           3           4           5
 IAtWgt=          35          48          35          35          35
 AtmWgt=  34.9688527  47.9479467  34.9688527  34.9688527  34.9688527
 NucSpn=           3           0           3           3           3
 AtZEff=   0.0000000   0.0000000   0.0000000   0.0000000   0.0000000
 NQMom=   -8.1650000   0.0000000  -8.1650000  -8.1650000  -8.1650000
 NMagM=    0.8218740   0.0000000   0.8218740   0.8218740   0.8218740
 AtZNuc=  17.0000000  22.0000000  17.0000000  17.0000000  17.0000000
 Leave Link  101 at Wed Feb 11 16:48:02 2015, MaxMem=   524288000 cpu:         1.9
 (Enter /opt/g09/l103.exe)

 GradGradGradGradGradGradGradGradGradGradGradGradGradGradGradGradGradGrad
 Berny optimization.
 Initialization pass.
                           ----------------------------
                           !    Initial Parameters    !
                           ! (Angstroms and Degrees)  !
 --------------------------                            --------------------------
 ! Name  Definition              Value          Derivative Info.                !
 --------------------------------------------------------------------------------
 ! R1    R(1,2)                  2.1757         calculate D2E/DX2 analytically  !
 ! R2    R(2,3)                  2.1757         calculate D2E/DX2 analytically  !
 ! R3    R(2,4)                  2.1757         calculate D2E/DX2 analytically  !
 ! R4    R(2,5)                  2.1758         calculate D2E/DX2 analytically  !
 ! A1    A(1,2,3)              109.4734         calculate D2E/DX2 analytically  !
 ! A2    A(1,2,4)              109.4698         calculate D2E/DX2 analytically  !
 ! A3    A(1,2,5)              109.4734         calculate D2E/DX2 analytically  !
 ! A4    A(3,2,4)              109.4705         calculate D2E/DX2 analytically  !
 ! A5    A(3,2,5)              109.4724         calculate D2E/DX2 analytically  !
 ! A6    A(4,2,5)              109.4678         calculate D2E/DX2 analytically  !
 ! D1    D(3,2,5,4)            119.9977         calculate D2E/DX2 analytically  !
 --------------------------------------------------------------------------------
 Trust Radius=3.00D-01 FncErr=1.00D-07 GrdErr=1.00D-06
 Number of steps in this run=     21 maximum allowed number of steps=    100.
 GradGradGradGradGradGradGradGradGradGradGradGradGradGradGradGradGradGrad

 Leave Link  103 at Wed Feb 11 16:48:02 2015, MaxMem=   524288000 cpu:         0.1
 (Enter /opt/g09/l202.exe)
                          Input orientation:                          
 ---------------------------------------------------------------------
 Center     Atomic      Atomic             Coordinates (Angstroms)
 Number     Number       Type             X           Y           Z
 ---------------------------------------------------------------------
      1         17           0       -2.441550    1.301340   -0.880720
      2         22           0       -0.904750    0.145820    0.137550
      3         17           0        0.079150   -1.169040   -1.289660
      4         17           0        0.561070    1.497340    1.008510
      5         17           0       -1.817560   -1.046280    1.712220
 ---------------------------------------------------------------------
                    Distance matrix (angstroms):
                    1          2          3          4          5
     1  Cl   0.000000
     2  Ti   2.175742   0.000000
     3  Cl   3.553018   2.175740   0.000000
     4  Cl   3.552933   2.175731   3.552944   0.000000
     5  Cl   3.553030   2.175755   3.553008   3.552899   0.000000
 Symmetry turned off by external request.
 Stoichiometry    Cl4Ti
 Framework group  C1[X(Cl4Ti)]
 Deg. of freedom     9
 Full point group                 C1      NOp   1
 Rotational constants (GHZ):      1.1448792      1.1448723      1.1448275
 Leave Link  202 at Wed Feb 11 16:48:02 2015, MaxMem=   524288000 cpu:         0.0
 (Enter /opt/g09/l301.exe)
 Standard basis: 6-311+G(d,p) (5D, 7F)
 Ernie: Thresh=  0.10000D-02 Tol=  0.10000D-05 Strict=F.
 AO basis set in the form of general basis input (Overlap normalization):
      1 0
 S   6 1.00       0.000000000000
      0.1058190000D+06  0.7380002465D-03
      0.1587200000D+05  0.5718001910D-02
      0.3619650000D+04  0.2949500985D-01
      0.1030800000D+04  0.1172860392D+00
      0.3399080000D+03  0.3629491212D+00
      0.1245380000D+03  0.5841491951D+00
 S   3 1.00       0.000000000000
      0.1245380000D+03  0.1341769734D+00
      0.4951350000D+02  0.6242498762D+00
      0.2080560000D+02  0.2917559421D+00
 S   1 1.00       0.000000000000
      0.6583460000D+01  0.1000000000D+01
 S   1 1.00       0.000000000000
      0.2564680000D+01  0.1000000000D+01
 S   1 1.00       0.000000000000
      0.5597630000D+00  0.1000000000D+01
 S   1 1.00       0.000000000000
      0.1832730000D+00  0.1000000000D+01
 SP   1 1.00       0.000000000000
      0.4830000000D-01  0.1000000000D+01  0.1000000000D+01
 P   5 1.00       0.000000000000
      0.5897760000D+03  0.3665569355D-02
      0.1398490000D+03  0.2836791942D-01
      0.4514130000D+02  0.1247566028D+00
      0.1687330000D+02  0.3396546305D+00
      0.2771520000D+01  0.7475859630D+00
 P   2 1.00       0.000000000000
      0.6741100000D+01 -0.1572243813D+01
      0.2771520000D+01  0.9923888817D+00
 P   1 1.00       0.000000000000
      0.1023870000D+01  0.1000000000D+01
 P   1 1.00       0.000000000000
      0.3813680000D+00  0.1000000000D+01
 P   1 1.00       0.000000000000
      0.1094370000D+00  0.1000000000D+01
 D   1 1.00       0.000000000000
      0.7500000000D+00  0.1000000000D+01
 ****
      2 0
 S   6 1.00       0.000000000000
      0.2060820000D+06  0.5673151380D-03
      0.3122680000D+05  0.4379672866D-02
      0.7199320000D+04  0.2242029425D-01
      0.2048750000D+04  0.9063426645D-01
      0.6707900000D+03  0.2890357165D+00
      0.2436500000D+03  0.6803470061D+00
 S   1 1.00       0.000000000000
      0.9592500000D+02  0.1000000000D+01
 S   1 1.00       0.000000000000
      0.3981010000D+02  0.1000000000D+01
 S   1 1.00       0.000000000000
      0.1222050000D+02  0.1000000000D+01
 S   1 1.00       0.000000000000
      0.5008820000D+01  0.1000000000D+01
 S   1 1.00       0.000000000000
      0.1285690000D+01  0.1000000000D+01
 S   1 1.00       0.000000000000
      0.5128060000D+00  0.1000000000D+01
 S   1 1.00       0.000000000000
      0.8557600000D-01  0.1000000000D+01
 S   1 1.00       0.000000000000
      0.3330200000D-01  0.1000000000D+01
 S   1 1.00       0.000000000000
      0.9991000000D-02  0.1000000000D+01
 P   5 1.00       0.000000000000
      0.1264700000D+04  0.3122017423D-02
      0.3012300000D+03  0.2516579464D-01
      0.9697770000D+02  0.1184178291D+00
      0.3637270000D+02  0.3522190030D+00
      0.1478140000D+02  0.6219379661D+00
 P   1 1.00       0.000000000000
      0.6274650000D+01  0.1000000000D+01
 P   1 1.00       0.000000000000
      0.2478780000D+01  0.1000000000D+01
 P   1 1.00       0.000000000000
      0.1016180000D+01  0.1000000000D+01
 P   1 1.00       0.000000000000
      0.3981620000D+00  0.1000000000D+01
 P   1 1.00       0.000000000000
      0.1015610000D+00  0.1000000000D+01
 P   1 1.00       0.000000000000
      0.3405400000D-01  0.1000000000D+01
 D   3 1.00       0.000000000000
      0.2599240000D+02  0.5411706153D-01
      0.7086340000D+01  0.2873032281D+00
      0.2348710000D+01  0.7854540223D+00
 D   1 1.00       0.000000000000
      0.8001980000D+00  0.1000000000D+01
 D   1 1.00       0.000000000000
      0.2620490000D+00  0.1000000000D+01
 D   1 1.00       0.000000000000
      0.7200000000D-01  0.1000000000D+01
 F   1 1.00       0.000000000000
      0.6900000000D+00  0.1000000000D+01
 ****
      3 0
 S   6 1.00       0.000000000000
      0.1058190000D+06  0.7380002465D-03
      0.1587200000D+05  0.5718001910D-02
      0.3619650000D+04  0.2949500985D-01
      0.1030800000D+04  0.1172860392D+00
      0.3399080000D+03  0.3629491212D+00
      0.1245380000D+03  0.5841491951D+00
 S   3 1.00       0.000000000000
      0.1245380000D+03  0.1341769734D+00
      0.4951350000D+02  0.6242498762D+00
      0.2080560000D+02  0.2917559421D+00
 S   1 1.00       0.000000000000
      0.6583460000D+01  0.1000000000D+01
 S   1 1.00       0.000000000000
      0.2564680000D+01  0.1000000000D+01
 S   1 1.00       0.000000000000
      0.5597630000D+00  0.1000000000D+01
 S   1 1.00       0.000000000000
      0.1832730000D+00  0.1000000000D+01
 SP   1 1.00       0.000000000000
      0.4830000000D-01  0.1000000000D+01  0.1000000000D+01
 P   5 1.00       0.000000000000
      0.5897760000D+03  0.3665569355D-02
      0.1398490000D+03  0.2836791942D-01
      0.4514130000D+02  0.1247566028D+00
      0.1687330000D+02  0.3396546305D+00
      0.2771520000D+01  0.7475859630D+00
 P   2 1.00       0.000000000000
      0.6741100000D+01 -0.1572243813D+01
      0.2771520000D+01  0.9923888817D+00
 P   1 1.00       0.000000000000
      0.1023870000D+01  0.1000000000D+01
 P   1 1.00       0.000000000000
      0.3813680000D+00  0.1000000000D+01
 P   1 1.00       0.000000000000
      0.1094370000D+00  0.1000000000D+01
 D   1 1.00       0.000000000000
      0.7500000000D+00  0.1000000000D+01
 ****
      4 0
 S   6 1.00       0.000000000000
      0.1058190000D+06  0.7380002465D-03
      0.1587200000D+05  0.5718001910D-02
      0.3619650000D+04  0.2949500985D-01
      0.1030800000D+04  0.1172860392D+00
      0.3399080000D+03  0.3629491212D+00
      0.1245380000D+03  0.5841491951D+00
 S   3 1.00       0.000000000000
      0.1245380000D+03  0.1341769734D+00
      0.4951350000D+02  0.6242498762D+00
      0.2080560000D+02  0.2917559421D+00
 S   1 1.00       0.000000000000
      0.6583460000D+01  0.1000000000D+01
 S   1 1.00       0.000000000000
      0.2564680000D+01  0.1000000000D+01
 S   1 1.00       0.000000000000
      0.5597630000D+00  0.1000000000D+01
 S   1 1.00       0.000000000000
      0.1832730000D+00  0.1000000000D+01
 SP   1 1.00       0.000000000000
      0.4830000000D-01  0.1000000000D+01  0.1000000000D+01
 P   5 1.00       0.000000000000
      0.5897760000D+03  0.3665569355D-02
      0.1398490000D+03  0.2836791942D-01
      0.4514130000D+02  0.1247566028D+00
      0.1687330000D+02  0.3396546305D+00
      0.2771520000D+01  0.7475859630D+00
 P   2 1.00       0.000000000000
      0.6741100000D+01 -0.1572243813D+01
      0.2771520000D+01  0.9923888817D+00
 P   1 1.00       0.000000000000
      0.1023870000D+01  0.1000000000D+01
 P   1 1.00       0.000000000000
      0.3813680000D+00  0.1000000000D+01
 P   1 1.00       0.000000000000
      0.1094370000D+00  0.1000000000D+01
 D   1 1.00       0.000000000000
      0.7500000000D+00  0.1000000000D+01
 ****
      5 0
 S   6 1.00       0.000000000000
      0.1058190000D+06  0.7380002465D-03
      0.1587200000D+05  0.5718001910D-02
      0.3619650000D+04  0.2949500985D-01
      0.1030800000D+04  0.1172860392D+00
      0.3399080000D+03  0.3629491212D+00
      0.1245380000D+03  0.5841491951D+00
 S   3 1.00       0.000000000000
      0.1245380000D+03  0.1341769734D+00
      0.4951350000D+02  0.6242498762D+00
      0.2080560000D+02  0.2917559421D+00
 S   1 1.00       0.000000000000
      0.6583460000D+01  0.1000000000D+01
 S   1 1.00       0.000000000000
      0.2564680000D+01  0.1000000000D+01
 S   1 1.00       0.000000000000
      0.5597630000D+00  0.1000000000D+01
 S   1 1.00       0.000000000000
      0.1832730000D+00  0.1000000000D+01
 SP   1 1.00       0.000000000000
      0.4830000000D-01  0.1000000000D+01  0.1000000000D+01
 P   5 1.00       0.000000000000
      0.5897760000D+03  0.3665569355D-02
      0.1398490000D+03  0.2836791942D-01
      0.4514130000D+02  0.1247566028D+00
      0.1687330000D+02  0.3396546305D+00
      0.2771520000D+01  0.7475859630D+00
 P   2 1.00       0.000000000000
      0.6741100000D+01 -0.1572243813D+01
      0.2771520000D+01  0.9923888817D+00
 P   1 1.00       0.000000000000
      0.1023870000D+01  0.1000000000D+01
 P   1 1.00       0.000000000000
      0.3813680000D+00  0.1000000000D+01
 P   1 1.00       0.000000000000
      0.1094370000D+00  0.1000000000D+01
 D   1 1.00       0.000000000000
      0.7500000000D+00  0.1000000000D+01
 ****

   178 basis functions,   306 primitive gaussians,   189 cartesian basis functions
    45 alpha electrons       45 beta electrons
       nuclear repulsion energy       622.1132224853 Hartrees.
 IExCor= 1614 DFT=T Ex+Corr=B971 ExCW=0 ScaHFX=  0.210000
 ScaDFX=  1.000000  1.000000  1.000000  1.000000 ScalE2=  1.000000  1.000000
 IRadAn=      5 IRanWt=     -1 IRanGd=            0 ICorTp=0 IEmpDi=  4
 NAtoms=    5 NActive=    5 NUniq=    5 SFac= 1.00D+00 NAtFMM=   60 NAOKFM=F Big=F
 Integral buffers will be    131072 words long.
 Raffenetti 2 integral format.
 Two-electron integral symmetry is turned off.
 Leave Link  301 at Wed Feb 11 16:48:02 2015, MaxMem=   524288000 cpu:         0.4
 (Enter /opt/g09/l302.exe)
 NPDir=0 NMtPBC=     1 NCelOv=     1 NCel=       1 NClECP=     1 NCelD=      1
         NCelK=      1 NCelE2=     1 NClLst=     1 CellRange=     0.0.
 One-electron integrals computed using PRISM.
 NBasis=   178 RedAO= T EigKep=  5.67D-04  NBF=   178
 NBsUse=   178 1.00D-06 EigRej= -1.00D+00 NBFU=   178
 Precomputing XC quadrature grid using
 IXCGrd= 4 IRadAn=           5 IRanWt=          -1 IRanGd=           0 AccXCQ= 0.00D+00.
 Generated NRdTot=       0 NPtTot=           0 NUsed=           0 NTot=          32
 NSgBfM=   178   178   178   178   178 MxSgAt=     5 MxSgA2=     5.
 Leave Link  302 at Wed Feb 11 16:48:02 2015, MaxMem=   524288000 cpu:         1.9
 (Enter /opt/g09/l303.exe)
 DipDrv:  MaxL=1.
 Leave Link  303 at Wed Feb 11 16:48:02 2015, MaxMem=   524288000 cpu:         0.3
 (Enter /opt/g09/l401.exe)
 ExpMin= 9.99D-03 ExpMax= 2.06D+05 ExpMxC= 7.20D+03 IAcc=3 IRadAn=         5 AccDes= 0.00D+00
 Harris functional with IExCor= 1614 and IRadAn=       5 diagonalized for initial guess.
 HarFok:  IExCor= 1614 AccDes= 0.00D+00 IRadAn=         5 IDoV= 1 UseB2=F ITyADJ=14
 ICtDFT=  3500011 ScaDFX=  1.000000  1.000000  1.000000  1.000000
 FoFCou: FMM=F IPFlag=           0 FMFlag=      100000 FMFlg1=           0
         NFxFlg=           0 DoJE=T BraDBF=F KetDBF=T FulRan=T
         wScrn=  0.000000 ICntrl=     500 IOpCl=  0 I1Cent=   200000004 NGrid=           0
         NMat0=    1 NMatS0=      1 NMatT0=    0 NMatD0=    1 NMtDS0=    0 NMtDT0=    0
 Symmetry not used in FoFCou.
 Harris En= -2658.64602903627    
 JPrj=0 DoOrth=F DoCkMO=T.
 Mixing orbitals, IMix= 1 IMixAn=  0 NRI=1 NE=   45 Coef=  7.07106781D-01  7.07106781D-01
 Leave Link  401 at Wed Feb 11 16:48:03 2015, MaxMem=   524288000 cpu:         4.5
 (Enter /opt/g09/l502.exe)
 Closed shell SCF:
 Using DIIS extrapolation, IDIIS=  1040.
 Two-electron integral symmetry not used.
 Keep R1 ints in memory in canonical form, NReq=130451512.
 IVT=      115761 IEndB=      115761 NGot=   524288000 MDV=   397265894
 LenX=   397265894 LenY=   397229732
 Requested convergence on RMS density matrix=1.00D-08 within  64 cycles.
 Requested convergence on MAX density matrix=1.00D-06.
 Requested convergence on             energy=1.00D-06.
 No special actions if energy rises.
 FoFCou: FMM=F IPFlag=           0 FMFlag=           0 FMFlg1=           0
         NFxFlg=           0 DoJE=F BraDBF=F KetDBF=F FulRan=T
         wScrn=  0.000000 ICntrl=     600 IOpCl=  0 I1Cent=           0 NGrid=           0
         NMat0=    1 NMatS0=  15931 NMatT0=    0 NMatD0=    1 NMtDS0=    0 NMtDT0=    0
 Symmetry not used in FoFCou.

 Cycle   1  Pass 1  IDiag  1:
 E= -2689.23887994245    
 DIIS: error= 2.74D-01 at cycle   1 NSaved=   1.
 NSaved= 1 IEnMin= 1 EnMin= -2689.23887994245     IErMin= 1 ErrMin= 2.74D-01
 ErrMax= 2.74D-01  0.00D+00 EMaxC= 1.00D-01 BMatC= 6.05D+00 BMatP= 6.05D+00
 IDIUse=3 WtCom= 0.00D+00 WtEn= 1.00D+00
 Coeff-Com:  0.100D+01
 Coeff-En:   0.100D+01
 Coeff:      0.100D+01
 Gap=     0.028 Goal=   None    Shift=    0.000
 GapD=    0.028 DampG=0.250 DampE=0.125 DampFc=0.1250 IDamp=-1.
 Damping current iteration by 1.25D-01
 RMSDP=1.63D-02 MaxDP=6.07D-01              OVMax= 7.99D-01

 Cycle   2  Pass 1  IDiag  1:
 E= -2689.26791126613     Delta-E=       -0.029031323684 Rises=F Damp=T
 DIIS: error= 2.13D-01 at cycle   2 NSaved=   2.
 NSaved= 2 IEnMin= 2 EnMin= -2689.26791126613     IErMin= 2 ErrMin= 2.13D-01
 ErrMax= 2.13D-01  0.00D+00 EMaxC= 1.00D-01 BMatC= 4.05D+00 BMatP= 6.05D+00
 IDIUse=3 WtCom= 0.00D+00 WtEn= 1.00D+00
 Coeff-Com: -0.154D+01 0.254D+01
 Coeff-En:   0.457D+00 0.543D+00
 Coeff:      0.457D+00 0.543D+00
 Gap=    -0.038 Goal=   None    Shift=    0.000
 RMSDP=1.06D-02 MaxDP=7.47D-01 DE=-2.90D-02 OVMax= 8.15D-01

 Cycle   3  Pass 1  IDiag  1:
 E= -2689.98645007406     Delta-E=       -0.718538807923 Rises=F Damp=F
 DIIS: error= 7.00D-02 at cycle   3 NSaved=   3.
 NSaved= 3 IEnMin= 3 EnMin= -2689.98645007406     IErMin= 3 ErrMin= 7.00D-02
 ErrMax= 7.00D-02  0.00D+00 EMaxC= 1.00D-01 BMatC= 6.44D-01 BMatP= 4.05D+00
 IDIUse=3 WtCom= 3.00D-01 WtEn= 7.00D-01
 Coeff-Com:  0.626D+00-0.505D+00 0.879D+00
 Coeff-En:   0.141D+00 0.000D+00 0.859D+00
 Coeff:      0.287D+00-0.152D+00 0.865D+00
 Gap=     0.327 Goal=   None    Shift=    0.000
 RMSDP=6.19D-03 MaxDP=2.43D-01 DE=-7.19D-01 OVMax= 2.13D-01

 Cycle   4  Pass 1  IDiag  1:
 E= -2690.06353334299     Delta-E=       -0.077083268929 Rises=F Damp=F
 DIIS: error= 4.34D-02 at cycle   4 NSaved=   4.
 NSaved= 4 IEnMin= 4 EnMin= -2690.06353334299     IErMin= 4 ErrMin= 4.34D-02
 ErrMax= 4.34D-02  0.00D+00 EMaxC= 1.00D-01 BMatC= 2.88D-01 BMatP= 6.44D-01
 IDIUse=3 WtCom= 5.66D-01 WtEn= 4.34D-01
 Coeff-Com: -0.177D+00 0.249D+00 0.332D+00 0.595D+00
 Coeff-En:   0.000D+00 0.000D+00 0.441D+00 0.559D+00
 Coeff:     -0.100D+00 0.141D+00 0.379D+00 0.580D+00
 Gap=     0.216 Goal=   None    Shift=    0.000
 RMSDP=6.10D-03 MaxDP=3.08D-01 DE=-7.71D-02 OVMax= 1.87D-01

 Cycle   5  Pass 1  IDiag  1:
 E= -2690.17971051951     Delta-E=       -0.116177176526 Rises=F Damp=F
 DIIS: error= 3.53D-02 at cycle   5 NSaved=   5.
 NSaved= 5 IEnMin= 5 EnMin= -2690.17971051951     IErMin= 5 ErrMin= 3.53D-02
 ErrMax= 3.53D-02  0.00D+00 EMaxC= 1.00D-01 BMatC= 1.50D-01 BMatP= 2.88D-01
 IDIUse=3 WtCom= 6.47D-01 WtEn= 3.53D-01
 Coeff-Com: -0.632D-01 0.800D-01 0.184D+00 0.472D+00 0.328D+00
 Coeff-En:   0.000D+00 0.000D+00 0.000D+00 0.389D+00 0.611D+00
 Coeff:     -0.409D-01 0.518D-01 0.119D+00 0.443D+00 0.428D+00
 Gap=     0.206 Goal=   None    Shift=    0.000
 RMSDP=2.55D-03 MaxDP=1.23D-01 DE=-1.16D-01 OVMax= 1.06D-01

 Cycle   6  Pass 1  IDiag  1:
 E= -2690.30845211518     Delta-E=       -0.128741595672 Rises=F Damp=F
 DIIS: error= 3.75D-03 at cycle   6 NSaved=   6.
 NSaved= 6 IEnMin= 6 EnMin= -2690.30845211518     IErMin= 6 ErrMin= 3.75D-03
 ErrMax= 3.75D-03  0.00D+00 EMaxC= 1.00D-01 BMatC= 3.28D-03 BMatP= 1.50D-01
 IDIUse=3 WtCom= 9.62D-01 WtEn= 3.75D-02
 Coeff-Com: -0.305D-01 0.336D-01-0.266D-01 0.400D-01 0.137D+00 0.846D+00
 Coeff-En:   0.000D+00 0.000D+00 0.000D+00 0.000D+00 0.000D+00 0.100D+01
 Coeff:     -0.293D-01 0.323D-01-0.256D-01 0.385D-01 0.132D+00 0.852D+00
 Gap=     0.200 Goal=   None    Shift=    0.000
 RMSDP=3.94D-04 MaxDP=1.10D-02 DE=-1.29D-01 OVMax= 1.60D-02

 Cycle   7  Pass 1  IDiag  1:
 E= -2690.31071704853     Delta-E=       -0.002264933347 Rises=F Damp=F
 DIIS: error= 2.02D-03 at cycle   7 NSaved=   7.
 NSaved= 7 IEnMin= 7 EnMin= -2690.31071704853     IErMin= 7 ErrMin= 2.02D-03
 ErrMax= 2.02D-03  0.00D+00 EMaxC= 1.00D-01 BMatC= 5.22D-04 BMatP= 3.28D-03
 IDIUse=3 WtCom= 9.80D-01 WtEn= 2.02D-02
 Coeff-Com: -0.335D-01 0.381D-01-0.174D-01 0.116D-01 0.524D-01 0.403D+00
 Coeff-Com:  0.546D+00
 Coeff-En:   0.000D+00 0.000D+00 0.000D+00 0.000D+00 0.000D+00 0.000D+00
 Coeff-En:   0.100D+01
 Coeff:     -0.328D-01 0.373D-01-0.171D-01 0.114D-01 0.514D-01 0.394D+00
 Coeff:      0.555D+00
 Gap=     0.198 Goal=   None    Shift=    0.000
 RMSDP=1.96D-04 MaxDP=9.87D-03 DE=-2.26D-03 OVMax= 4.56D-03

 Cycle   8  Pass 1  IDiag  1:
 E= -2690.31111619705     Delta-E=       -0.000399148519 Rises=F Damp=F
 DIIS: error= 1.32D-03 at cycle   8 NSaved=   8.
 NSaved= 8 IEnMin= 8 EnMin= -2690.31111619705     IErMin= 8 ErrMin= 1.32D-03
 ErrMax= 1.32D-03  0.00D+00 EMaxC= 1.00D-01 BMatC= 2.33D-04 BMatP= 5.22D-04
 IDIUse=3 WtCom= 9.87D-01 WtEn= 1.32D-02
 Coeff-Com: -0.213D-01 0.250D-01 0.632D-02 0.699D-02 0.285D-02-0.880D-01
 Coeff-Com: -0.117D+00 0.118D+01
 Coeff-En:   0.000D+00 0.000D+00 0.000D+00 0.000D+00 0.000D+00 0.000D+00
 Coeff-En:   0.000D+00 0.100D+01
 Coeff:     -0.210D-01 0.247D-01 0.624D-02 0.690D-02 0.282D-02-0.868D-01
 Coeff:     -0.115D+00 0.118D+01
 Gap=     0.198 Goal=   None    Shift=    0.000
 RMSDP=2.77D-05 MaxDP=6.63D-04 DE=-3.99D-04 OVMax= 1.58D-03

 Cycle   9  Pass 1  IDiag  1:
 E= -2690.31117553981     Delta-E=       -0.000059342763 Rises=F Damp=F
 DIIS: error= 1.08D-03 at cycle   9 NSaved=   9.
 NSaved= 9 IEnMin= 9 EnMin= -2690.31117553981     IErMin= 9 ErrMin= 1.08D-03
 ErrMax= 1.08D-03  0.00D+00 EMaxC= 1.00D-01 BMatC= 1.59D-04 BMatP= 2.33D-04
 IDIUse=3 WtCom= 9.89D-01 WtEn= 1.08D-02
 Coeff-Com: -0.140D-01 0.167D-01 0.959D-02 0.404D-02-0.410D-02-0.172D+00
 Coeff-Com: -0.239D+00 0.654D+00 0.745D+00
 Coeff-En:   0.000D+00 0.000D+00 0.000D+00 0.000D+00 0.000D+00 0.000D+00
 Coeff-En:   0.000D+00 0.000D+00 0.100D+01
 Coeff:     -0.139D-01 0.165D-01 0.949D-02 0.400D-02-0.405D-02-0.170D+00
 Coeff:     -0.236D+00 0.647D+00 0.748D+00
 Gap=     0.198 Goal=   None    Shift=    0.000
 RMSDP=2.47D-05 MaxDP=6.09D-04 DE=-5.93D-05 OVMax= 1.20D-03

 Cycle  10  Pass 1  IDiag  1:
 E= -2690.31123972642     Delta-E=       -0.000064186607 Rises=F Damp=F
 DIIS: error= 7.84D-04 at cycle  10 NSaved=  10.
 NSaved=10 IEnMin=10 EnMin= -2690.31123972642     IErMin=10 ErrMin= 7.84D-04
 ErrMax= 7.84D-04  0.00D+00 EMaxC= 1.00D-01 BMatC= 8.02D-05 BMatP= 1.59D-04
 IDIUse=3 WtCom= 9.92D-01 WtEn= 7.84D-03
 Coeff-Com: -0.151D-02 0.182D-02 0.408D-02-0.439D-03 0.105D-02-0.946D-01
 Coeff-Com: -0.129D+00-0.637D+00 0.479D+00 0.138D+01
 Coeff-En:   0.000D+00 0.000D+00 0.000D+00 0.000D+00 0.000D+00 0.000D+00
 Coeff-En:   0.000D+00 0.000D+00 0.000D+00 0.100D+01
 Coeff:     -0.150D-02 0.181D-02 0.405D-02-0.435D-03 0.105D-02-0.939D-01
 Coeff:     -0.128D+00-0.632D+00 0.476D+00 0.137D+01
 Gap=     0.197 Goal=   None    Shift=    0.000
 RMSDP=3.91D-05 MaxDP=1.92D-03 DE=-6.42D-05 OVMax= 2.02D-03

 Cycle  11  Pass 1  IDiag  1:
 E= -2690.31130514185     Delta-E=       -0.000065415432 Rises=F Damp=F
 DIIS: error= 4.55D-05 at cycle  11 NSaved=  11.
 NSaved=11 IEnMin=11 EnMin= -2690.31130514185     IErMin=11 ErrMin= 4.55D-05
 ErrMax= 4.55D-05  0.00D+00 EMaxC= 1.00D-01 BMatC= 2.18D-07 BMatP= 8.02D-05
 IDIUse=1 WtCom= 1.00D+00 WtEn= 0.00D+00
 Coeff-Com: -0.115D-03 0.127D-03-0.270D-03 0.410D-03 0.259D-03 0.850D-02
 Coeff-Com:  0.732D-02-0.264D-01-0.459D-01-0.249D-02 0.106D+01
 Coeff:     -0.115D-03 0.127D-03-0.270D-03 0.410D-03 0.259D-03 0.850D-02
 Coeff:      0.732D-02-0.264D-01-0.459D-01-0.249D-02 0.106D+01
 Gap=     0.197 Goal=   None    Shift=    0.000
 RMSDP=2.49D-06 MaxDP=4.46D-05 DE=-6.54D-05 OVMax= 2.37D-04

 Cycle  12  Pass 1  IDiag  1:
 E= -2690.31130537360     Delta-E=       -0.000000231744 Rises=F Damp=F
 DIIS: error= 7.41D-06 at cycle  12 NSaved=  12.
 NSaved=12 IEnMin=12 EnMin= -2690.31130537360     IErMin=12 ErrMin= 7.41D-06
 ErrMax= 7.41D-06  0.00D+00 EMaxC= 1.00D-01 BMatC= 9.25D-09 BMatP= 2.18D-07
 IDIUse=1 WtCom= 1.00D+00 WtEn= 0.00D+00
 Coeff-Com: -0.452D-04 0.478D-04-0.217D-03 0.219D-03 0.372D-04 0.606D-02
 Coeff-Com:  0.647D-02 0.663D-02-0.293D-01-0.368D-01 0.379D+00 0.667D+00
 Coeff:     -0.452D-04 0.478D-04-0.217D-03 0.219D-03 0.372D-04 0.606D-02
 Coeff:      0.647D-02 0.663D-02-0.293D-01-0.368D-01 0.379D+00 0.667D+00
 Gap=     0.197 Goal=   None    Shift=    0.000
 RMSDP=9.95D-07 MaxDP=2.99D-05 DE=-2.32D-07 OVMax= 3.76D-05

 Cycle  13  Pass 1  IDiag  1:
 E= -2690.31130538434     Delta-E=       -0.000000010739 Rises=F Damp=F
 DIIS: error= 2.23D-06 at cycle  13 NSaved=  13.
 NSaved=13 IEnMin=13 EnMin= -2690.31130538434     IErMin=13 ErrMin= 2.23D-06
 ErrMax= 2.23D-06  0.00D+00 EMaxC= 1.00D-01 BMatC= 4.88D-10 BMatP= 9.25D-09
 IDIUse=1 WtCom= 1.00D+00 WtEn= 0.00D+00
 Coeff-Com: -0.320D-05 0.354D-05-0.153D-04-0.394D-06-0.261D-04 0.277D-03
 Coeff-Com:  0.747D-03 0.343D-02 0.591D-03-0.541D-02-0.802D-01 0.127D+00
 Coeff-Com:  0.954D+00
 Coeff:     -0.320D-05 0.354D-05-0.153D-04-0.394D-06-0.261D-04 0.277D-03
 Coeff:      0.747D-03 0.343D-02 0.591D-03-0.541D-02-0.802D-01 0.127D+00
 Coeff:      0.954D+00
 Gap=     0.197 Goal=   None    Shift=    0.000
 RMSDP=3.22D-07 MaxDP=1.40D-05 DE=-1.07D-08 OVMax= 2.03D-05

 Cycle  14  Pass 1  IDiag  1:
 E= -2690.31130538503     Delta-E=       -0.000000000692 Rises=F Damp=F
 DIIS: error= 1.12D-06 at cycle  14 NSaved=  14.
 NSaved=14 IEnMin=14 EnMin= -2690.31130538503     IErMin=14 ErrMin= 1.12D-06
 ErrMax= 1.12D-06  0.00D+00 EMaxC= 1.00D-01 BMatC= 1.87D-10 BMatP= 4.88D-10
 IDIUse=1 WtCom= 1.00D+00 WtEn= 0.00D+00
 Coeff-Com: -0.250D-06 0.458D-06-0.691D-06-0.786D-05-0.147D-04-0.461D-04
 Coeff-Com:  0.203D-03 0.184D-02 0.961D-03-0.230D-02-0.532D-01 0.463D-01
 Coeff-Com:  0.508D+00 0.498D+00
 Coeff:     -0.250D-06 0.458D-06-0.691D-06-0.786D-05-0.147D-04-0.461D-04
 Coeff:      0.203D-03 0.184D-02 0.961D-03-0.230D-02-0.532D-01 0.463D-01
 Coeff:      0.508D+00 0.498D+00
 Gap=     0.197 Goal=   None    Shift=    0.000
 RMSDP=7.47D-08 MaxDP=1.64D-06 DE=-6.92D-10 OVMax= 4.45D-06

 Cycle  15  Pass 1  IDiag  1:
 E= -2690.31130538519     Delta-E=       -0.000000000159 Rises=F Damp=F
 DIIS: error= 5.86D-07 at cycle  15 NSaved=  15.
 NSaved=15 IEnMin=15 EnMin= -2690.31130538519     IErMin=15 ErrMin= 5.86D-07
 ErrMax= 5.86D-07  0.00D+00 EMaxC= 1.00D-01 BMatC= 4.03D-11 BMatP= 1.87D-10
 IDIUse=1 WtCom= 1.00D+00 WtEn= 0.00D+00
 Coeff-Com:  0.790D-06-0.730D-06 0.385D-05-0.472D-05-0.692D-06-0.975D-04
 Coeff-Com: -0.770D-04 0.290D-03 0.165D-03-0.280D-03-0.696D-02-0.535D-02
 Coeff-Com:  0.334D-01 0.221D+00 0.758D+00
 Coeff:      0.790D-06-0.730D-06 0.385D-05-0.472D-05-0.692D-06-0.975D-04
 Coeff:     -0.770D-04 0.290D-03 0.165D-03-0.280D-03-0.696D-02-0.535D-02
 Coeff:      0.334D-01 0.221D+00 0.758D+00
 Gap=     0.197 Goal=   None    Shift=    0.000
 RMSDP=3.71D-08 MaxDP=1.72D-06 DE=-1.59D-10 OVMax= 2.08D-06

 Cycle  16  Pass 1  IDiag  1:
 E= -2690.31130538522     Delta-E=       -0.000000000035 Rises=F Damp=F
 DIIS: error= 3.83D-08 at cycle  16 NSaved=  16.
 NSaved=16 IEnMin=16 EnMin= -2690.31130538522     IErMin=16 ErrMin= 3.83D-08
 ErrMax= 3.83D-08  0.00D+00 EMaxC= 1.00D-01 BMatC= 2.91D-13 BMatP= 4.03D-11
 IDIUse=1 WtCom= 1.00D+00 WtEn= 0.00D+00
 Coeff-Com:  0.239D-06-0.242D-06 0.124D-05-0.138D-05 0.900D-06-0.325D-04
 Coeff-Com: -0.360D-04 0.104D-04 0.318D-04 0.451D-04-0.565D-04-0.313D-02
 Coeff-Com: -0.958D-02 0.439D-01 0.215D+00 0.754D+00
 Coeff:      0.239D-06-0.242D-06 0.124D-05-0.138D-05 0.900D-06-0.325D-04
 Coeff:     -0.360D-04 0.104D-04 0.318D-04 0.451D-04-0.565D-04-0.313D-02
 Coeff:     -0.958D-02 0.439D-01 0.215D+00 0.754D+00
 Gap=     0.197 Goal=   None    Shift=    0.000
 RMSDP=5.01D-09 MaxDP=2.00D-07 DE=-3.55D-11 OVMax= 2.06D-07

 SCF Done:  E(RB971) =  -2690.31130539     A.U. after   16 cycles
            NFock= 16  Conv=0.50D-08     -V/T= 2.0017
 KE= 2.685676188560D+03 PE=-7.630928926161D+03 EE= 1.632828209730D+03
 Leave Link  502 at Wed Feb 11 16:48:23 2015, MaxMem=   524288000 cpu:        97.3
 (Enter /opt/g09/l508.exe)
 QCSCF skips out because SCF is already converged.
 Leave Link  508 at Wed Feb 11 16:48:23 2015, MaxMem=   524288000 cpu:         0.0
 (Enter /opt/g09/l801.exe)
 DoSCS=F DFT=T ScalE2(SS,OS)=  1.000000  1.000000
 Range of M.O.s used for correlation:     1   178
 NBasis=   178 NAE=    45 NBE=    45 NFC=     0 NFV=     0
 NROrb=    178 NOA=    45 NOB=    45 NVA=   133 NVB=   133

 **** Warning!!: The largest alpha MO coefficient is  0.24188705D+02

 Leave Link  801 at Wed Feb 11 16:48:23 2015, MaxMem=   524288000 cpu:         0.3
 (Enter /opt/g09/l1101.exe)
 Using compressed storage, NAtomX=     5.
 Will process      6 centers per pass.
 Leave Link 1101 at Wed Feb 11 16:48:24 2015, MaxMem=   524288000 cpu:         2.4
 (Enter /opt/g09/l1102.exe)
 Symmetrizing basis deriv contribution to polar:
 IMax=3 JMax=2 DiffMx= 0.00D+00
 Leave Link 1102 at Wed Feb 11 16:48:24 2015, MaxMem=   524288000 cpu:         0.3
 (Enter /opt/g09/l1110.exe)
 Forming Gx(P) for the SCF density, NAtomX=     5.
 Integral derivatives from FoFJK, PRISM(SPDF).
 Do as many integral derivatives as possible in FoFJK.
 G2DrvN: MDV=     524287856.
 G2DrvN: will do     6 centers at a time, making    1 passes.
 Calling FoFCou, ICntrl=  3107 FMM=F I1Cent=   0 AccDes= 0.00D+00.
 FoFJK:  IHMeth= 1 ICntrl=    3107 DoSepK=F KAlg= 0 I1Cent=   0 FoldK=F
 IRaf=         0 NMat=   1 IRICut=       1 DoRegI=T DoRafI=F ISym2E= 0.
 FoFCou: FMM=F IPFlag=           0 FMFlag=      100000 FMFlg1=           0
         NFxFlg=           0 DoJE=F BraDBF=F KetDBF=F FulRan=T
         wScrn=  0.000000 ICntrl=    3107 IOpCl=  0 I1Cent=           0 NGrid=           0
         NMat0=    1 NMatS0=      1 NMatT0=    0 NMatD0=    1 NMtDS0=    0 NMtDT0=    0
 Symmetry not used in FoFCou.
 End of G2Drv F.D. properties file   721 does not exist.
 End of G2Drv F.D. properties file   722 does not exist.
 End of G2Drv F.D. properties file   788 does not exist.
 Leave Link 1110 at Wed Feb 11 16:48:40 2015, MaxMem=   524288000 cpu:       126.1
 (Enter /opt/g09/l1002.exe)
 Minotr:  Closed shell wavefunction.
          IDoAtm=11111
          Direct CPHF calculation.
          Differentiating once with respect to electric field.
                with respect to dipole field.
          Differentiating once with respect to nuclear coordinates.
          Requested convergence is 1.0D-08 RMS, and 1.0D-07 maximum.
          Secondary convergence is 1.0D-12 RMS, and 1.0D-12 maximum.
          NewPWx=T KeepS1=F KeepF1=F KeepIn=T MapXYZ=F SortEE=F KeepMc=T.
          MDV=     524287768 using IRadAn=       1.
 Generate precomputed XC quadrature information.
 Keep R1 ints in memory in canonical form, NReq=130338692.
 FoFCou: FMM=F IPFlag=           0 FMFlag=           0 FMFlg1=           0
         NFxFlg=           0 DoJE=F BraDBF=F KetDBF=F FulRan=T
         wScrn=  0.000000 ICntrl=     600 IOpCl=  0 I1Cent=           0 NGrid=           0
         NMat0=    1 NMatS0=  15931 NMatT0=    0 NMatD0=    1 NMtDS0=    0 NMtDT0=    0
 Symmetry not used in FoFCou.
          Solving linear equations simultaneously, MaxMat=       0.
          There are    18 degrees of freedom in the 1st order CPHF.  IDoFFX=6 NUNeed=     3.
     15 vectors produced by pass  0 Test12= 3.32D-14 5.56D-09 XBig12= 1.20D+02 5.10D+00.
 AX will form    15 AO Fock derivatives at one time.
     15 vectors produced by pass  1 Test12= 3.32D-14 5.56D-09 XBig12= 2.87D+01 1.00D+00.
     15 vectors produced by pass  2 Test12= 3.32D-14 5.56D-09 XBig12= 6.92D-01 2.61D-01.
     15 vectors produced by pass  3 Test12= 3.32D-14 5.56D-09 XBig12= 2.42D-02 4.09D-02.
     15 vectors produced by pass  4 Test12= 3.32D-14 5.56D-09 XBig12= 4.93D-04 7.84D-03.
     15 vectors produced by pass  5 Test12= 3.32D-14 5.56D-09 XBig12= 7.08D-06 8.38D-04.
     15 vectors produced by pass  6 Test12= 3.32D-14 5.56D-09 XBig12= 4.92D-08 8.04D-05.
      9 vectors produced by pass  7 Test12= 3.32D-14 5.56D-09 XBig12= 3.47D-10 4.67D-06.
      4 vectors produced by pass  8 Test12= 3.32D-14 5.56D-09 XBig12= 7.53D-13 2.75D-07.
      3 vectors produced by pass  9 Test12= 3.32D-14 5.56D-09 XBig12= 9.41D-15 2.00D-08.
 InvSVY:  IOpt=1 It=  1 EMax= 1.67D-15
 Solved reduced A of dimension   121 with    15 vectors.
 FullF1:  Do perturbations    1 to     3.
 Isotropic polarizability for W=    0.000000       88.33 Bohr**3.
 End of Minotr F.D. properties file   721 does not exist.
 End of Minotr F.D. properties file   722 does not exist.
 End of Minotr F.D. properties file   788 does not exist.
 Leave Link 1002 at Wed Feb 11 16:49:06 2015, MaxMem=   524288000 cpu:       209.4
 (Enter /opt/g09/l701.exe)
 Compute integral second derivatives.
 ... and contract with generalized density number  0.
 Leave Link  701 at Wed Feb 11 16:49:07 2015, MaxMem=   524288000 cpu:         4.0
 (Enter /opt/g09/l702.exe)
 L702 exits ... SP integral derivatives will be done elsewhere.
 Leave Link  702 at Wed Feb 11 16:49:07 2015, MaxMem=   524288000 cpu:         0.3
 (Enter /opt/g09/l703.exe)
 Compute integral second derivatives, UseDBF=F ICtDFT=           0.
 Integral derivatives from FoFJK, PRISM(SPDF).
 Calling FoFJK, ICntrl=    100127 FMM=F ISym2X=0 I1Cent= 0 IOpClX= 0 NMat=1 NMatS=1 NMatT=0.
 FoFJK:  IHMeth= 1 ICntrl=  100127 DoSepK=F KAlg= 0 I1Cent=   0 FoldK=F
 IRaf=         0 NMat=   1 IRICut=       1 DoRegI=T DoRafI=F ISym2E= 0.
 FoFCou: FMM=F IPFlag=           0 FMFlag=      100000 FMFlg1=         800
         NFxFlg=           0 DoJE=F BraDBF=F KetDBF=F FulRan=T
         wScrn=  0.000000 ICntrl=  100127 IOpCl=  0 I1Cent=           0 NGrid=           0
         NMat0=    1 NMatS0=      1 NMatT0=    0 NMatD0=    1 NMtDS0=    0 NMtDT0=    0
 Symmetry not used in FoFCou.
 Leave Link  703 at Wed Feb 11 16:49:49 2015, MaxMem=   524288000 cpu:       336.8
 (Enter /opt/g09/l716.exe)
 Dipole        = 8.34814674D-06-4.21649909D-06-5.35669012D-05
 Polarizability= 8.83328224D+01-1.03897960D-03 8.83332326D+01
                -5.88934761D-04-1.26885493D-04 8.83350654D+01
 -------------------------------------------------------------------
 Center     Atomic                   Forces (Hartrees/Bohr)
 Number     Number              X              Y              Z
 -------------------------------------------------------------------
      1       17           0.000000741    0.000002032   -0.000000621
      2       22           0.000001536    0.000001197    0.000002378
      3       17           0.000000690    0.000000711   -0.000000685
      4       17          -0.000001570   -0.000003246    0.000001436
      5       17          -0.000001396   -0.000000693   -0.000002508
 -------------------------------------------------------------------
 Cartesian Forces:  Max     0.000003246 RMS     0.000001628
 Force constants in Cartesian coordinates: 
                1             2             3             4             5 
      1  0.873465D-01
      2 -0.588700D-01  0.532726D-01
      3  0.519144D-01 -0.390224D-01  0.434033D-01
      4 -0.860295D-01  0.541510D-01 -0.477561D-01  0.248330D+00
      5  0.541536D-01 -0.546889D-01  0.358989D-01 -0.157300D-04  0.248431D+00
      6 -0.477584D-01  0.358961D-01 -0.456042D-01  0.707350D-04  0.967440D-04
      7 -0.337286D-02  0.376785D-02  0.623281D-03 -0.434824D-01  0.394560D-01
      8  0.471553D-02 -0.354714D-02  0.141210D-02  0.394592D-01 -0.667493D-01
      9  0.405585D-02 -0.179576D-02  0.768573D-02  0.428042D-01 -0.572792D-01
     10 -0.550875D-02  0.141635D-02 -0.383735D-02 -0.794649D-01 -0.604367D-01
     11 -0.263273D-02  0.814796D-02 -0.197852D-02 -0.604348D-01 -0.697055D-01
     12 -0.367252D-02  0.579983D-03 -0.187226D-02 -0.389420D-01 -0.359121D-01
     13  0.756464D-02 -0.465196D-03 -0.944231D-03 -0.393533D-01 -0.331572D-01
     14  0.263359D-02 -0.318450D-02  0.368991D-02 -0.331596D-01 -0.572877D-01
     15 -0.453932D-02  0.434204D-02 -0.361251D-02  0.438231D-01  0.571957D-01
                6             7             8             9            10 
      6  0.248323D+00
      7  0.428053D-01  0.410985D-01
      8 -0.572854D-01 -0.428932D-01  0.663818D-01
      9 -0.760919D-01 -0.465331D-01  0.622621D-01  0.765442D-01
     10 -0.389368D-01  0.766775D-02 -0.249292D-02 -0.398885D-02  0.802185D-01
     11 -0.359055D-01  0.100530D-02 -0.424457D-02 -0.451363D-02  0.657030D-01
     12 -0.371079D-01 -0.822764D-03 -0.366851D-02 -0.265310D-02  0.423300D-01
     13  0.438191D-01 -0.191107D-02  0.121140D-02  0.366185D-02 -0.291258D-02
     14  0.571980D-01 -0.133596D-02  0.815921D-02  0.132654D-02 -0.418979D-02
     15 -0.895190D-01  0.392731D-02 -0.272032D-02 -0.548492D-02  0.443295D-02
               11            12            13            14            15 
     11  0.696004D-01
     12  0.390319D-01  0.341614D-01
     13 -0.364079D-02  0.110722D-02  0.366123D-01
     14 -0.379827D-02 -0.313008D-04  0.360517D-01  0.561113D-01
     15  0.336571D-02  0.747184D-02 -0.476440D-01 -0.621831D-01  0.911446D-01
 FormGI is forming the generalized inverse of G from B-inverse, IUseBI=4.
 Force constants in internal coordinates: 
                1             2             3             4             5 
      1  0.166000D+00
      2  0.102654D-01  0.165999D+00
      3  0.102690D-01  0.102640D-01  0.165978D+00
      4  0.102650D-01  0.102659D-01  0.102716D-01  0.165852D+00
      5 -0.110924D-02 -0.235313D-02  0.150302D-02  0.192282D-02  0.743587D-01
      6 -0.102414D-02  0.152577D-02 -0.239235D-02  0.192573D-02 -0.271164D-01
      7 -0.107728D-02  0.148948D-02  0.150155D-02 -0.194575D-02 -0.276732D-01
      8  0.213352D-03 -0.101552D-02 -0.105605D-02  0.191980D-02  0.608343D-02
      9  0.148943D-02 -0.179092D-02  0.214167D-02 -0.192725D-02 -0.101440D-01
     10  0.150799D-02  0.214457D-02 -0.169818D-02 -0.189535D-02 -0.155128D-01
     11  0.209663D-02 -0.102707D-02 -0.102189D-02  0.105903D-04 -0.825963D-02
                6             7             8             9            10 
      6  0.744533D-01
      7 -0.277331D-01  0.732068D-01
      8  0.616976D-02  0.198864D-02  0.411499D-01
      9 -0.155444D-01 -0.992982D-02 -0.277028D-01  0.824625D-01
     10 -0.102251D-01 -0.986020D-02 -0.276885D-01 -0.191448D-01  0.824358D-01
     11 -0.822260D-02 -0.968208D-02  0.164800D-01  0.483945D-02  0.484596D-02
               11 
     11  0.261136D-01
 Leave Link  716 at Wed Feb 11 16:49:49 2015, MaxMem=   524288000 cpu:         0.3
 (Enter /opt/g09/l103.exe)

 GradGradGradGradGradGradGradGradGradGradGradGradGradGradGradGradGradGrad
 Berny optimization.
 Red2BG is reusing G-inverse.
 Internal  Forces:  Max     0.000002500 RMS     0.000000872
 Search for a local minimum.
 Step number   1 out of a maximum of   21
 All quantities printed in internal units (Hartrees-Bohrs-Radians)
 RMS Force = .87184D-06 SwitMx=.10000D-02 MixMth= 2
 Mixed Optimization -- En-DIIS/RFO-DIIS
 Second derivative matrix not updated -- analytic derivatives used.
 The second derivative matrix:
                          R1        R2        R3        R4        A1
           R1           0.16600
           R2           0.01027   0.16600
           R3           0.01027   0.01026   0.16598
           R4           0.01026   0.01027   0.01027   0.16585
           A1          -0.00111  -0.00235   0.00150   0.00192   0.07436
           A2          -0.00102   0.00153  -0.00239   0.00193  -0.02712
           A3          -0.00108   0.00149   0.00150  -0.00195  -0.02767
           A4           0.00021  -0.00102  -0.00106   0.00192   0.00608
           A5           0.00149  -0.00179   0.00214  -0.00193  -0.01014
           A6           0.00151   0.00214  -0.00170  -0.00190  -0.01551
           D1           0.00210  -0.00103  -0.00102   0.00001  -0.00826
                          A2        A3        A4        A5        A6
           A2           0.07445
           A3          -0.02773   0.07321
           A4           0.00617   0.00199   0.04115
           A5          -0.01554  -0.00993  -0.02770   0.08246
           A6          -0.01023  -0.00986  -0.02769  -0.01914   0.08244
           D1          -0.00822  -0.00968   0.01648   0.00484   0.00485
                          D1
           D1           0.02611
 ITU=  0
     Eigenvalues ---    0.04681   0.09621   0.09726   0.10620   0.10632
     Eigenvalues ---    0.15589   0.15621   0.15634   0.19676
 RFO step:  Lambda= 0.00000000D+00 EMin= 4.68136255D-02
 Linear search not attempted -- first point.
 Iteration  1 RMS(Cart)=  0.00000676 RMS(Int)=  0.00000000
 Iteration  2 RMS(Cart)=  0.00000000 RMS(Int)=  0.00000000
 ITry= 1 IFail=0 DXMaxC= 1.48D-05 DCOld= 1.00D+10 DXMaxT= 3.00D-01 DXLimC= 3.00D+00 Rises=F
 Variable       Old X    -DE/DX   Delta X   Delta X   Delta X     New X
                                 (Linear)    (Quad)   (Total)
    R1        4.11156   0.00000   0.00000   0.00001   0.00001   4.11156
    R2        4.11155   0.00000   0.00000   0.00000   0.00000   4.11156
    R3        4.11154   0.00000   0.00000  -0.00002  -0.00002   4.11152
    R4        4.11158   0.00000   0.00000   0.00000   0.00000   4.11158
    A1        1.91067   0.00000   0.00000   0.00000   0.00000   1.91067
    A2        1.91061   0.00000   0.00000   0.00001   0.00001   1.91062
    A3        1.91067   0.00000   0.00000   0.00000   0.00000   1.91067
    A4        1.91062   0.00000   0.00000   0.00000   0.00000   1.91062
    A5        1.91065   0.00000   0.00000   0.00000   0.00000   1.91065
    A6        1.91057   0.00000   0.00000   0.00000   0.00000   1.91057
    D1        2.09436   0.00000   0.00000  -0.00001  -0.00001   2.09435
         Item               Value     Threshold  Converged?
 Maximum Force            0.000002     0.000015     YES
 RMS     Force            0.000001     0.000010     YES
 Maximum Displacement     0.000015     0.000060     YES
 RMS     Displacement     0.000007     0.000040     YES
 Predicted change in Energy=-2.774461D-11
 Optimization completed.
    -- Stationary point found.
                           ----------------------------
                           !   Optimized Parameters   !
                           ! (Angstroms and Degrees)  !
 --------------------------                            --------------------------
 ! Name  Definition              Value          Derivative Info.                !
 --------------------------------------------------------------------------------
 ! R1    R(1,2)                  2.1757         -DE/DX =    0.0                 !
 ! R2    R(2,3)                  2.1757         -DE/DX =    0.0                 !
 ! R3    R(2,4)                  2.1757         -DE/DX =    0.0                 !
 ! R4    R(2,5)                  2.1758         -DE/DX =    0.0                 !
 ! A1    A(1,2,3)              109.4734         -DE/DX =    0.0                 !
 ! A2    A(1,2,4)              109.4698         -DE/DX =    0.0                 !
 ! A3    A(1,2,5)              109.4734         -DE/DX =    0.0                 !
 ! A4    A(3,2,4)              109.4705         -DE/DX =    0.0                 !
 ! A5    A(3,2,5)              109.4724         -DE/DX =    0.0                 !
 ! A6    A(4,2,5)              109.4678         -DE/DX =    0.0                 !
 ! D1    D(3,2,5,4)            119.9977         -DE/DX =    0.0                 !
 --------------------------------------------------------------------------------
 Lowest energy point so far.  Saving SCF results.
 GradGradGradGradGradGradGradGradGradGradGradGradGradGradGradGradGradGrad

 Largest change from initial coordinates is atom    0       0.000 Angstoms.
 Leave Link  103 at Wed Feb 11 16:49:49 2015, MaxMem=   524288000 cpu:         0.1
 (Enter /opt/g09/l202.exe)
                          Input orientation:                          
 ---------------------------------------------------------------------
 Center     Atomic      Atomic             Coordinates (Angstroms)
 Number     Number       Type             X           Y           Z
 ---------------------------------------------------------------------
      1         17           0       -2.441550    1.301340   -0.880720
      2         22           0       -0.904750    0.145820    0.137550
      3         17           0        0.079150   -1.169040   -1.289660
      4         17           0        0.561070    1.497340    1.008510
      5         17           0       -1.817560   -1.046280    1.712220
 ---------------------------------------------------------------------
                    Distance matrix (angstroms):
                    1          2          3          4          5
     1  Cl   0.000000
     2  Ti   2.175742   0.000000
     3  Cl   3.553018   2.175740   0.000000
     4  Cl   3.552933   2.175731   3.552944   0.000000
     5  Cl   3.553030   2.175755   3.553008   3.552899   0.000000
 Symmetry turned off by external request.
 Stoichiometry    Cl4Ti
 Framework group  C1[X(Cl4Ti)]
 Deg. of freedom     9
 Full point group                 C1      NOp   1
 Rotational constants (GHZ):      1.1448792      1.1448723      1.1448275
 Leave Link  202 at Wed Feb 11 16:49:49 2015, MaxMem=   524288000 cpu:         0.0
 (Enter /opt/g09/l716.exe)
 Dipole        = 8.34814674D-06-4.21649909D-06-5.35669012D-05
 Polarizability= 8.83328224D+01-1.03897960D-03 8.83332326D+01
                -5.88934761D-04-1.26885493D-04 8.83350654D+01
 Full mass-weighted force constant matrix:
 Low frequencies ---   -2.7080   -0.0035   -0.0025   -0.0021    1.6284    2.3622
 Low frequencies ---  113.5631  113.5948  133.5656
 Diagonal vibrational polarizability:
       17.7267280      17.7158587      17.7259800
 Harmonic frequencies (cm**-1), IR intensities (KM/Mole), Raman scattering
 activities (A**4/AMU), depolarization ratios for plane and unpolarized
 incident light, reduced masses (AMU), force constants (mDyne/A),
 and normal coordinates:
                      1                      2                      3
                      A                      A                      A
 Frequencies --    113.5631               113.5948               133.5656
 Red. masses --     34.9689                34.9689                37.0089
 Frc consts  --      0.2657                 0.2659                 0.3890
 IR Inten    --      0.0000                 0.0000                 0.8002
  Atom  AN      X      Y      Z        X      Y      Z        X      Y      Z
     1  17    -0.29  -0.03   0.41     0.20   0.42   0.18    -0.22   0.01   0.39
     2  22     0.00   0.00   0.00     0.00   0.00   0.00     0.22  -0.03  -0.33
     3  17     0.44   0.07   0.23    -0.09  -0.39   0.30     0.11  -0.44  -0.14
     4  17     0.29  -0.06  -0.40    -0.23   0.39  -0.22    -0.25   0.03   0.37
     5  17    -0.44   0.02  -0.24     0.12  -0.42  -0.25     0.06   0.44  -0.16
                      4                      5                      6
                      A                      A                      A
 Frequencies --    133.5848               133.6283               385.5929
 Red. masses --     37.0088                37.0074                34.9689
 Frc consts  --      0.3891                 0.3893                 3.0633
 IR Inten    --      0.8000                 0.7954                 0.0001
  Atom  AN      X      Y      Z        X      Y      Z        X      Y      Z
     1  17     0.36  -0.25   0.21     0.20   0.39   0.10    -0.35   0.27  -0.23
     2  22     0.26  -0.22   0.20    -0.20  -0.33  -0.10     0.00   0.00   0.00
     3  17    -0.17   0.07  -0.41     0.41   0.12  -0.16     0.23  -0.30  -0.33
     4  17    -0.11   0.42  -0.11    -0.37  -0.18  -0.24     0.34   0.31   0.20
     5  17    -0.45   0.05   0.04     0.04   0.13   0.43    -0.21  -0.27   0.36
                      7                      8                      9
                      A                      A                      A
 Frequencies --    496.0852               496.2470               496.3118
 Red. masses --     40.9698                40.9694                40.9710
 Frc consts  --      5.9405                 5.9444                 5.9462
 IR Inten    --    151.1549               151.1448               151.1240
  Atom  AN      X      Y      Z        X      Y      Z        X      Y      Z
     1  17    -0.08   0.09  -0.09    -0.44   0.32  -0.28     0.06  -0.08   0.02
     2  22    -0.35  -0.32   0.49     0.58  -0.21   0.28     0.02   0.56   0.38
     3  17     0.13  -0.14  -0.19    -0.11   0.12   0.11     0.23  -0.34  -0.35
     4  17     0.16   0.15   0.06    -0.25  -0.19  -0.14    -0.31  -0.31  -0.20
     5  17     0.27   0.34  -0.45     0.00   0.05  -0.06    -0.02  -0.05   0.01

 -------------------
 - Thermochemistry -
 -------------------
 Temperature   298.150 Kelvin.  Pressure   1.00000 Atm.
 Atom     1 has atomic number 17 and mass  34.96885
 Atom     2 has atomic number 22 and mass  47.94795
 Atom     3 has atomic number 17 and mass  34.96885
 Atom     4 has atomic number 17 and mass  34.96885
 Atom     5 has atomic number 17 and mass  34.96885
 Molecular mass:   187.82336 amu.
 Principal axes and moments of inertia in atomic units:
                           1         2         3
     Eigenvalues --  1576.359551576.369031576.43072
           X            0.34232  -0.54492   0.76543
           Y           -0.65160   0.44923   0.61123
           Z            0.67693   0.70799   0.20129
 This molecule is an asymmetric top.
 Rotational symmetry number  1.
 Warning -- assumption of classical behavior for rotation
           may cause significant error
 Rotational temperatures (Kelvin)      0.05495     0.05495     0.05494
 Rotational constants (GHZ):           1.14488     1.14487     1.14483
 Zero-point vibrational energy      14966.3 (Joules/Mol)
                                    3.57704 (Kcal/Mol)
 Warning -- explicit consideration of   9 degrees of freedom as
           vibrations may cause significant error
 Vibrational temperatures:    163.39   163.44   192.17   192.20   192.26
          (Kelvin)            554.78   713.76   713.99   714.08
 
 Zero-point correction=                           0.005700 (Hartree/Particle)
 Thermal correction to Energy=                    0.012972
 Thermal correction to Enthalpy=                  0.013916
 Thermal correction to Gibbs Free Energy=        -0.028590
 Sum of electronic and zero-point Energies=          -2690.305605
 Sum of electronic and thermal Energies=             -2690.298333
 Sum of electronic and thermal Enthalpies=           -2690.297389
 Sum of electronic and thermal Free Energies=        -2690.339895
 
                     E (Thermal)             CV                S
                      KCal/Mol        Cal/Mol-Kelvin    Cal/Mol-Kelvin
 Total                    8.140             20.874             89.462
 Electronic               0.000              0.000              0.000
 Translational            0.889              2.981             41.597
 Rotational               0.889              2.981             29.750
 Vibrational              6.363             14.912             18.115
 Vibration     1          0.607              1.938              3.207
 Vibration     2          0.607              1.938              3.207
 Vibration     3          0.613              1.920              2.894
 Vibration     4          0.613              1.920              2.894
 Vibration     5          0.613              1.920              2.893
 Vibration     6          0.754              1.501              1.017
 Vibration     7          0.852              1.259              0.668
 Vibration     8          0.852              1.258              0.668
 Vibration     9          0.852              1.258              0.667
                       Q            Log10(Q)             Ln(Q)
 Total Bot       0.141389D+14         13.150416         30.279953
 Total V=0       0.592106D+16         15.772399         36.317291
 Vib (Bot)       0.197241D+00         -0.705004         -1.623331
 Vib (Bot)    1  0.180212D+01          0.255784          0.588964
 Vib (Bot)    2  0.180160D+01          0.255659          0.588678
 Vib (Bot)    3  0.152495D+01          0.183256          0.421962
 Vib (Bot)    4  0.152472D+01          0.183191          0.421813
 Vib (Bot)    5  0.152421D+01          0.183045          0.421476
 Vib (Bot)    6  0.467061D+00         -0.330627         -0.761296
 Vib (Bot)    7  0.332450D+00         -0.478274         -1.101267
 Vib (Bot)    8  0.332294D+00         -0.478478         -1.101736
 Vib (Bot)    9  0.332231D+00         -0.478559         -1.101924
 Vib (V=0)       0.825998D+02          1.916979          4.414008
 Vib (V=0)    1  0.237020D+01          0.374784          0.862973
 Vib (V=0)    2  0.236970D+01          0.374693          0.862763
 Vib (V=0)    3  0.210483D+01          0.323217          0.744234
 Vib (V=0)    4  0.210461D+01          0.323172          0.744131
 Vib (V=0)    5  0.210412D+01          0.323071          0.743899
 Vib (V=0)    6  0.118421D+01          0.073429          0.169077
 Vib (V=0)    7  0.110044D+01          0.041565          0.095706
 Vib (V=0)    8  0.110035D+01          0.041531          0.095628
 Vib (V=0)    9  0.110031D+01          0.041517          0.095596
 Electronic      0.100000D+01          0.000000          0.000000
 Translational   0.101176D+09          8.005080         18.432377
 Rotational      0.708501D+06          5.850340         13.470907
 
                                   W:\Data\TiCl\esc\B971\gs\new\monomer\fine\succ
 ess\fine-Cl4Ti.g09
                                                             IR Spectrum
 
                                                                                                                                     
      4                           3                                                               1    1                             
      9                           8                                                               3    1                             
      6                           6                                                               4    4                             
 
      X                                                                                           X                                  
      X                                                                                                                              
      X                                                                                                                              
      X                                                                                                                              
      X                                                                                                                              
      X                                                                                                                              
      X                                                                                                                              
      X                                                                                                                              
      X                                                                                                                              
      X                                                                                                                              
      X                                                                                                                              
      X                                                                                                                              
      X                                                                                                                              
      X                                                                                                                              
      X                                                                                                                              
      X                                                                                                                              
      X                                                                                                                              
      X                                                                                                                              
      X                                                                                                                              
      X                                                                                                                              
 
 -------------------------------------------------------------------
 Center     Atomic                   Forces (Hartrees/Bohr)
 Number     Number              X              Y              Z
 -------------------------------------------------------------------
      1       17           0.000000741    0.000002032   -0.000000621
      2       22           0.000001536    0.000001197    0.000002378
      3       17           0.000000690    0.000000711   -0.000000685
      4       17          -0.000001570   -0.000003246    0.000001436
      5       17          -0.000001396   -0.000000693   -0.000002508
 -------------------------------------------------------------------
 Cartesian Forces:  Max     0.000003246 RMS     0.000001628
 Force constants in Cartesian coordinates: 
                1             2             3             4             5 
      1  0.873465D-01
      2 -0.588700D-01  0.532726D-01
      3  0.519144D-01 -0.390224D-01  0.434033D-01
      4 -0.860295D-01  0.541510D-01 -0.477561D-01  0.248330D+00
      5  0.541536D-01 -0.546889D-01  0.358989D-01 -0.157300D-04  0.248431D+00
      6 -0.477584D-01  0.358961D-01 -0.456042D-01  0.707350D-04  0.967440D-04
      7 -0.337286D-02  0.376785D-02  0.623281D-03 -0.434824D-01  0.394560D-01
      8  0.471553D-02 -0.354714D-02  0.141210D-02  0.394592D-01 -0.667493D-01
      9  0.405585D-02 -0.179576D-02  0.768573D-02  0.428042D-01 -0.572792D-01
     10 -0.550875D-02  0.141635D-02 -0.383735D-02 -0.794649D-01 -0.604367D-01
     11 -0.263273D-02  0.814796D-02 -0.197852D-02 -0.604348D-01 -0.697055D-01
     12 -0.367252D-02  0.579983D-03 -0.187226D-02 -0.389420D-01 -0.359121D-01
     13  0.756464D-02 -0.465196D-03 -0.944231D-03 -0.393533D-01 -0.331572D-01
     14  0.263359D-02 -0.318450D-02  0.368991D-02 -0.331596D-01 -0.572877D-01
     15 -0.453932D-02  0.434204D-02 -0.361251D-02  0.438231D-01  0.571957D-01
                6             7             8             9            10 
      6  0.248323D+00
      7  0.428053D-01  0.410985D-01
      8 -0.572854D-01 -0.428932D-01  0.663818D-01
      9 -0.760919D-01 -0.465331D-01  0.622621D-01  0.765442D-01
     10 -0.389368D-01  0.766775D-02 -0.249292D-02 -0.398885D-02  0.802185D-01
     11 -0.359055D-01  0.100530D-02 -0.424457D-02 -0.451363D-02  0.657030D-01
     12 -0.371079D-01 -0.822764D-03 -0.366851D-02 -0.265310D-02  0.423300D-01
     13  0.438191D-01 -0.191107D-02  0.121140D-02  0.366185D-02 -0.291258D-02
     14  0.571980D-01 -0.133596D-02  0.815921D-02  0.132654D-02 -0.418979D-02
     15 -0.895190D-01  0.392731D-02 -0.272032D-02 -0.548492D-02  0.443295D-02
               11            12            13            14            15 
     11  0.696004D-01
     12  0.390319D-01  0.341614D-01
     13 -0.364079D-02  0.110722D-02  0.366123D-01
     14 -0.379827D-02 -0.313008D-04  0.360517D-01  0.561113D-01
     15  0.336571D-02  0.747184D-02 -0.476440D-01 -0.621831D-01  0.911446D-01
 Red2BG is reusing G-inverse.
 Force constants in internal coordinates: 
                1             2             3             4             5 
      1  0.166000D+00
      2  0.102654D-01  0.165999D+00
      3  0.102690D-01  0.102640D-01  0.165978D+00
      4  0.102650D-01  0.102659D-01  0.102716D-01  0.165852D+00
      5 -0.110924D-02 -0.235313D-02  0.150302D-02  0.192282D-02  0.743587D-01
      6 -0.102414D-02  0.152577D-02 -0.239235D-02  0.192573D-02 -0.271164D-01
      7 -0.107728D-02  0.148948D-02  0.150155D-02 -0.194575D-02 -0.276732D-01
      8  0.213352D-03 -0.101552D-02 -0.105605D-02  0.191980D-02  0.608343D-02
      9  0.148943D-02 -0.179092D-02  0.214167D-02 -0.192725D-02 -0.101440D-01
     10  0.150799D-02  0.214457D-02 -0.169818D-02 -0.189535D-02 -0.155128D-01
     11  0.209663D-02 -0.102707D-02 -0.102189D-02  0.105903D-04 -0.825963D-02
                6             7             8             9            10 
      6  0.744533D-01
      7 -0.277331D-01  0.732068D-01
      8  0.616976D-02  0.198864D-02  0.411499D-01
      9 -0.155444D-01 -0.992982D-02 -0.277028D-01  0.824625D-01
     10 -0.102251D-01 -0.986020D-02 -0.276885D-01 -0.191448D-01  0.824358D-01
     11 -0.822260D-02 -0.968208D-02  0.164800D-01  0.483945D-02  0.484596D-02
               11 
     11  0.261136D-01
 Leave Link  716 at Wed Feb 11 16:49:49 2015, MaxMem=   524288000 cpu:         0.3
 (Enter /opt/g09/l9999.exe)
 1\1\GINC-EMIN\Freq\RB971\6-311+G(d,p)\Cl4Ti1\PB556\11-Feb-2015\0\\#p r
 B971/6-311+G(d,p) Opt=(Tight, CalcAll) Freq GFInput Population=None In
 tegral(Grid=UltraFine) SCF=XQC Guess=MIX NoSymmetry\\W:\Data\TiCl\esc\
 B971\gs\new\monomer\fine\success\fine-Cl4Ti.g09\\0,1\Cl,-2.44155,1.301
 34,-0.88072\Ti,-0.90475,0.14582,0.13755\Cl,0.07915,-1.16904,-1.28966\C
 l,0.56107,1.49734,1.00851\Cl,-1.81756,-1.04628,1.71222\\Version=ES64L-
 G09RevD.01\HF=-2690.3113054\RMSD=5.013e-09\RMSF=1.628e-06\ZeroPoint=0.
 0057004\Thermal=0.0129722\Dipole=0.0000083,-0.0000042,-0.0000536\Dipol
 eDeriv=-0.7122622,0.4269947,-0.3762783,0.426981,-0.4653783,0.2829042,-
 0.376284,0.2828867,-0.3936664,2.0950905,-0.0000268,-0.0000426,0.000011
 6,2.0950074,-0.0000896,-0.0000171,-0.0001491,2.0950474,-0.3770911,0.31
 10726,0.3376452,0.3110642,-0.5600381,-0.4511787,0.3376393,-0.451161,-0
 .6341032,-0.6610274,-0.4763413,-0.3069379,-0.4763891,-0.5835489,-0.283
 0089,-0.3069396,-0.2829965,-0.3266659,-0.3447098,-0.2616992,0.3456137,
 -0.2616678,-0.4860421,0.451373,0.3456013,0.45142,-0.7406119\Polar=88.3
 328224,-0.001039,88.3332326,-0.0005889,-0.0001269,88.3350654\PG=C01 [X
 (Cl4Ti1)]\NImag=0\\0.08734652,-0.05886998,0.05327262,0.05191437,-0.039
 02238,0.04340327,-0.08602954,0.05415098,-0.04775607,0.24833007,0.05415
 359,-0.05468894,0.03589889,-0.00001573,0.24843144,-0.04775838,0.035896
 11,-0.04560423,0.00007073,0.00009674,0.24832305,-0.00337286,0.00376785
 ,0.00062328,-0.04348237,0.03945598,0.04280527,0.04109854,0.00471553,-0
 .00354714,0.00141210,0.03945916,-0.06674927,-0.05728536,-0.04289317,0.
 06638176,0.00405585,-0.00179576,0.00768573,0.04280423,-0.05727924,-0.0
 7609194,-0.04653309,0.06226209,0.07654423,-0.00550875,0.00141635,-0.00
 383735,-0.07946488,-0.06043669,-0.03893677,0.00766775,-0.00249292,-0.0
 0398885,0.08021846,-0.00263273,0.00814796,-0.00197852,-0.06043482,-0.0
 6970552,-0.03590546,0.00100530,-0.00424457,-0.00451363,0.06570304,0.06
 960040,-0.00367252,0.00057998,-0.00187226,-0.03894195,-0.03591208,-0.0
 3710787,-0.00082276,-0.00366851,-0.00265310,0.04233002,0.03903191,0.03
 416139,0.00756464,-0.00046520,-0.00094423,-0.03935328,-0.03315715,0.04
 381914,-0.00191107,0.00121140,0.00366185,-0.00291258,-0.00364079,0.001
 10722,0.03661229,0.00263359,-0.00318450,0.00368991,-0.03315958,-0.0572
 8771,0.05719797,-0.00133596,0.00815921,0.00132654,-0.00418979,-0.00379
 827,-0.00003130,0.03605174,0.05611127,-0.00453932,0.00434204,-0.003612
 51,0.04382305,0.05719569,-0.08951900,0.00392731,-0.00272032,-0.0054849
 2,0.00443295,0.00336571,0.00747184,-0.04764398,-0.06218312,0.09114460\
 \-0.00000074,-0.00000203,0.00000062,-0.00000154,-0.00000120,-0.0000023
 8,-0.00000069,-0.00000071,0.00000069,0.00000157,0.00000325,-0.00000144
 ,0.00000140,0.00000069,0.00000251\\\@


 FROM WHENCE IT HAPPENS, THAT THEY WHICH TRUST TO BOOKS, DO AS THEY THAT CAST UP MANY LITTLE SUMMS INTO GREATER,
 WITHOUT CONSIDERING WETHER THOSE LITTLE SUMMES WERE RIGHTLY CAST UP OR NOT...
 AND AT LAST FINDING THE ERROUR VISIBLE, AND NOT MISTRUSTING THEIR FIRST GROUNDS,
 KNOW NOT WHICH WAY TO CLEERE THEMSELVES...
 BUT SPEND TIME IN FLUTTERING OVER THEIR BOOKES....
 AS BIRDS THAT ENTERING BY THE CHIMNEY, AND FINDING THEMSELVES INCLOSED IN A CHAMBER,
 FLUTTER AT THE FALSE LIGHT OF A GLASSE WINDOW,
 FOR WANT OF WIT TO CONSIDER WHICH WAY THEY CAME IN....
           LEVIATHAN
 Leave Link 9999 at Wed Feb 11 16:49:49 2015, MaxMem=   524288000 cpu:         0.3
 Job cpu time:       0 days  0 hours 13 minutes  8.1 seconds.
 File lengths (MBytes):  RWF=     30 Int=      0 D2E=      0 Chk=      3 Scr=      1
 Normal termination of Gaussian 09 at Wed Feb 11 16:49:49 2015.
 (Enter /opt/g09/l1.exe)
 Link1:  Proceeding to internal job step number  2.
 ----------------------------------------------------------------------
 #P Geom=AllCheck Guess=TCheck SCRF=Check GenChk RB971/6-311+G(d,p) Fre
 q
 ----------------------------------------------------------------------
 1/7=10,10=4,29=7,30=1,38=1,40=1/1,3;
 2/12=2,15=1,40=1/2;
 3/5=4,6=6,7=111,11=2,14=-4,16=1,24=10,25=1,30=1,70=2,71=2,74=-20,75=-5,116=1,140=1/1,2,3;
 4/5=101/1;
 5/5=2,8=3,13=1,98=1/2,8;
 8/6=4,10=90,11=11/1;
 11/6=1,8=1,9=11,15=111,16=1,31=1/1,2,10;
 10/6=1,31=1/2;
 7/8=1,10=1,25=1,30=1/1,2,3,16;
 1/7=10,10=4,30=1/3;
 99//99;
 Leave Link    1 at Wed Feb 11 16:49:49 2015, MaxMem=   524288000 cpu:         0.4
 (Enter /opt/g09/l101.exe)
 Structure from the checkpoint file:  "/scratch/pb556/g09_run/ticl_thermo//Gau-19893.chk"
 ----------------------------------------------------------------
 W:\Data\TiCl\esc\B971\gs\new\monomer\fine\success\fine-Cl4Ti.g09
 ----------------------------------------------------------------
 Charge =  0 Multiplicity = 1
 Redundant internal coordinates found in file.
 Cl,0,-2.44155,1.30134,-0.88072
 Ti,0,-0.90475,0.14582,0.13755
 Cl,0,0.07915,-1.16904,-1.28966
 Cl,0,0.56107,1.49734,1.00851
 Cl,0,-1.81756,-1.04628,1.71222
 Recover connectivity data from disk.
 NAtoms=      5 NQM=        5 NQMF=       0 NMMI=      0 NMMIF=      0
                NMic=       0 NMicF=      0.
                    Isotopes and Nuclear Properties:
 (Nuclear quadrupole moments (NQMom) in fm**2, nuclear magnetic moments (NMagM)
  in nuclear magnetons)

  Atom         1           2           3           4           5
 IAtWgt=          35          48          35          35          35
 AtmWgt=  34.9688527  47.9479467  34.9688527  34.9688527  34.9688527
 NucSpn=           3           0           3           3           3
 AtZEff= -14.2400000 -23.9800000 -14.2400000 -14.2400000 -14.2400000
 NQMom=   -8.1650000   0.0000000  -8.1650000  -8.1650000  -8.1650000
 NMagM=    0.8218740   0.0000000   0.8218740   0.8218740   0.8218740
 AtZNuc=  17.0000000  22.0000000  17.0000000  17.0000000  17.0000000
 Leave Link  101 at Wed Feb 11 16:49:49 2015, MaxMem=   524288000 cpu:         1.8
 (Enter /opt/g09/l103.exe)

 GradGradGradGradGradGradGradGradGradGradGradGradGradGradGradGradGradGrad
 Berny optimization.
 Initialization pass.
                           ----------------------------
                           !    Initial Parameters    !
                           ! (Angstroms and Degrees)  !
 --------------------------                            --------------------------
 ! Name  Definition              Value          Derivative Info.                !
 --------------------------------------------------------------------------------
 ! R1    R(1,2)                  2.1757         calculate D2E/DX2 analytically  !
 ! R2    R(2,3)                  2.1757         calculate D2E/DX2 analytically  !
 ! R3    R(2,4)                  2.1757         calculate D2E/DX2 analytically  !
 ! R4    R(2,5)                  2.1758         calculate D2E/DX2 analytically  !
 ! A1    A(1,2,3)              109.4734         calculate D2E/DX2 analytically  !
 ! A2    A(1,2,4)              109.4698         calculate D2E/DX2 analytically  !
 ! A3    A(1,2,5)              109.4734         calculate D2E/DX2 analytically  !
 ! A4    A(3,2,4)              109.4705         calculate D2E/DX2 analytically  !
 ! A5    A(3,2,5)              109.4724         calculate D2E/DX2 analytically  !
 ! A6    A(4,2,5)              109.4678         calculate D2E/DX2 analytically  !
 ! D1    D(3,2,5,4)            119.9977         calculate D2E/DX2 analytically  !
 --------------------------------------------------------------------------------
 Trust Radius=3.00D-01 FncErr=1.00D-07 GrdErr=1.00D-07
 Number of steps in this run=      2 maximum allowed number of steps=      2.
 GradGradGradGradGradGradGradGradGradGradGradGradGradGradGradGradGradGrad

 Leave Link  103 at Wed Feb 11 16:49:50 2015, MaxMem=   524288000 cpu:         0.1
 (Enter /opt/g09/l202.exe)
                          Input orientation:                          
 ---------------------------------------------------------------------
 Center     Atomic      Atomic             Coordinates (Angstroms)
 Number     Number       Type             X           Y           Z
 ---------------------------------------------------------------------
      1         17           0       -2.441550    1.301340   -0.880720
      2         22           0       -0.904750    0.145820    0.137550
      3         17           0        0.079150   -1.169040   -1.289660
      4         17           0        0.561070    1.497340    1.008510
      5         17           0       -1.817560   -1.046280    1.712220
 ---------------------------------------------------------------------
                    Distance matrix (angstroms):
                    1          2          3          4          5
     1  Cl   0.000000
     2  Ti   2.175742   0.000000
     3  Cl   3.553018   2.175740   0.000000
     4  Cl   3.552933   2.175731   3.552944   0.000000
     5  Cl   3.553030   2.175755   3.553008   3.552899   0.000000
 Symmetry turned off by external request.
 Stoichiometry    Cl4Ti
 Framework group  C1[X(Cl4Ti)]
 Deg. of freedom     9
 Full point group                 C1      NOp   1
 Rotational constants (GHZ):      1.1448792      1.1448723      1.1448275
 Leave Link  202 at Wed Feb 11 16:49:50 2015, MaxMem=   524288000 cpu:         0.0
 (Enter /opt/g09/l301.exe)
 Standard basis: 6-311+G(d,p) (5D, 7F)
 Ernie: Thresh=  0.10000D-02 Tol=  0.10000D-05 Strict=F.
 AO basis set in the form of general basis input (Overlap normalization):
      1 0
 S   6 1.00       0.000000000000
      0.1058190000D+06  0.7380002465D-03
      0.1587200000D+05  0.5718001910D-02
      0.3619650000D+04  0.2949500985D-01
      0.1030800000D+04  0.1172860392D+00
      0.3399080000D+03  0.3629491212D+00
      0.1245380000D+03  0.5841491951D+00
 S   3 1.00       0.000000000000
      0.1245380000D+03  0.1341769734D+00
      0.4951350000D+02  0.6242498762D+00
      0.2080560000D+02  0.2917559421D+00
 S   1 1.00       0.000000000000
      0.6583460000D+01  0.1000000000D+01
 S   1 1.00       0.000000000000
      0.2564680000D+01  0.1000000000D+01
 S   1 1.00       0.000000000000
      0.5597630000D+00  0.1000000000D+01
 S   1 1.00       0.000000000000
      0.1832730000D+00  0.1000000000D+01
 SP   1 1.00       0.000000000000
      0.4830000000D-01  0.1000000000D+01  0.1000000000D+01
 P   5 1.00       0.000000000000
      0.5897760000D+03  0.3665569355D-02
      0.1398490000D+03  0.2836791942D-01
      0.4514130000D+02  0.1247566028D+00
      0.1687330000D+02  0.3396546305D+00
      0.2771520000D+01  0.7475859630D+00
 P   2 1.00       0.000000000000
      0.6741100000D+01 -0.1572243813D+01
      0.2771520000D+01  0.9923888817D+00
 P   1 1.00       0.000000000000
      0.1023870000D+01  0.1000000000D+01
 P   1 1.00       0.000000000000
      0.3813680000D+00  0.1000000000D+01
 P   1 1.00       0.000000000000
      0.1094370000D+00  0.1000000000D+01
 D   1 1.00       0.000000000000
      0.7500000000D+00  0.1000000000D+01
 ****
      2 0
 S   6 1.00       0.000000000000
      0.2060820000D+06  0.5673151380D-03
      0.3122680000D+05  0.4379672866D-02
      0.7199320000D+04  0.2242029425D-01
      0.2048750000D+04  0.9063426645D-01
      0.6707900000D+03  0.2890357165D+00
      0.2436500000D+03  0.6803470061D+00
 S   1 1.00       0.000000000000
      0.9592500000D+02  0.1000000000D+01
 S   1 1.00       0.000000000000
      0.3981010000D+02  0.1000000000D+01
 S   1 1.00       0.000000000000
      0.1222050000D+02  0.1000000000D+01
 S   1 1.00       0.000000000000
      0.5008820000D+01  0.1000000000D+01
 S   1 1.00       0.000000000000
      0.1285690000D+01  0.1000000000D+01
 S   1 1.00       0.000000000000
      0.5128060000D+00  0.1000000000D+01
 S   1 1.00       0.000000000000
      0.8557600000D-01  0.1000000000D+01
 S   1 1.00       0.000000000000
      0.3330200000D-01  0.1000000000D+01
 S   1 1.00       0.000000000000
      0.9991000000D-02  0.1000000000D+01
 P   5 1.00       0.000000000000
      0.1264700000D+04  0.3122017423D-02
      0.3012300000D+03  0.2516579464D-01
      0.9697770000D+02  0.1184178291D+00
      0.3637270000D+02  0.3522190030D+00
      0.1478140000D+02  0.6219379661D+00
 P   1 1.00       0.000000000000
      0.6274650000D+01  0.1000000000D+01
 P   1 1.00       0.000000000000
      0.2478780000D+01  0.1000000000D+01
 P   1 1.00       0.000000000000
      0.1016180000D+01  0.1000000000D+01
 P   1 1.00       0.000000000000
      0.3981620000D+00  0.1000000000D+01
 P   1 1.00       0.000000000000
      0.1015610000D+00  0.1000000000D+01
 P   1 1.00       0.000000000000
      0.3405400000D-01  0.1000000000D+01
[...]
 Rotational temperatures (Kelvin)      0.05495     0.05495     0.05494
 Rotational constants (GHZ):           1.14488     1.14487     1.14483
 Zero-point vibrational energy      14966.3 (Joules/Mol)
                                    3.57704 (Kcal/Mol)
 Warning -- explicit consideration of   9 degrees of freedom as
           vibrations may cause significant error
 Vibrational temperatures:    163.39   163.44   192.17   192.20   192.26
          (Kelvin)            554.78   713.76   713.99   714.08
 
 Zero-point correction=                           0.005700 (Hartree/Particle)
 Thermal correction to Energy=                    0.012972
 Thermal correction to Enthalpy=                  0.013916
 Thermal correction to Gibbs Free Energy=        -0.028590
 Sum of electronic and zero-point Energies=          -2690.305605
 Sum of electronic and thermal Energies=             -2690.298333
 Sum of electronic and thermal Enthalpies=           -2690.297389
 Sum of electronic and thermal Free Energies=        -2690.339895
 
                     E (Thermal)             CV                S
                      KCal/Mol        Cal/Mol-Kelvin    Cal/Mol-Kelvin
 Total                    8.140             20.874             89.462
 Electronic               0.000              0.000              0.000
 Translational            0.889              2.981             41.597
 Rotational               0.889              2.981             29.750
 Vibrational              6.363             14.912             18.115
 Vibration     1          0.607              1.938              3.207
 Vibration     2          0.607              1.938              3.207
 Vibration     3          0.613              1.920              2.894
 Vibration     4          0.613              1.920              2.894
 Vibration     5          0.613              1.920              2.893
 Vibration     6          0.754              1.501              1.017
 Vibration     7          0.852              1.259              0.668
 Vibration     8          0.852              1.258              0.668
 Vibration     9          0.852              1.258              0.667
                       Q            Log10(Q)             Ln(Q)
 Total Bot       0.141389D+14         13.150416         30.279953
 Total V=0       0.592106D+16         15.772399         36.317292
 Vib (Bot)       0.197241D+00         -0.705004         -1.623331
 Vib (Bot)    1  0.180212D+01          0.255784          0.588964
 Vib (Bot)    2  0.180160D+01          0.255659          0.588678
 Vib (Bot)    3  0.152495D+01          0.183256          0.421962
 Vib (Bot)    4  0.152472D+01          0.183191          0.421813
 Vib (Bot)    5  0.152421D+01          0.183045          0.421476
 Vib (Bot)    6  0.467061D+00         -0.330627         -0.761296
 Vib (Bot)    7  0.332449D+00         -0.478274         -1.101267
 Vib (Bot)    8  0.332294D+00         -0.478478         -1.101736
 Vib (Bot)    9  0.332231D+00         -0.478559         -1.101924
 Vib (V=0)       0.825999D+02          1.916979          4.414008
 Vib (V=0)    1  0.237020D+01          0.374784          0.862973
 Vib (V=0)    2  0.236970D+01          0.374693          0.862763
 Vib (V=0)    3  0.210483D+01          0.323217          0.744234
 Vib (V=0)    4  0.210461D+01          0.323172          0.744132
 Vib (V=0)    5  0.210412D+01          0.323071          0.743899
 Vib (V=0)    6  0.118421D+01          0.073429          0.169077
 Vib (V=0)    7  0.110044D+01          0.041565          0.095706
 Vib (V=0)    8  0.110035D+01          0.041531          0.095628
 Vib (V=0)    9  0.110031D+01          0.041517          0.095596
 Electronic      0.100000D+01          0.000000          0.000000
 Translational   0.101176D+09          8.005080         18.432377
 Rotational      0.708501D+06          5.850340         13.470907
 
                                   W:\Data\TiCl\esc\B971\gs\new\monomer\fine\succ
 ess\fine-Cl4Ti.g09
                                                             IR Spectrum
 
                                                                                                                                     
      4                           3                                                               1    1                             
      9                           8                                                               3    1                             
      6                           6                                                               4    4                             
 
      X                                                                                           X                                  
      X                                                                                                                              
      X                                                                                                                              
      X                                                                                                                              
      X                                                                                                                              
      X                                                                                                                              
      X                                                                                                                              
      X                                                                                                                              
      X                                                                                                                              
      X                                                                                                                              
      X                                                                                                                              
      X                                                                                                                              
      X                                                                                                                              
      X                                                                                                                              
      X                                                                                                                              
      X                                                                                                                              
      X                                                                                                                              
      X                                                                                                                              
      X                                                                                                                              
      X                                                                                                                              
 
 -------------------------------------------------------------------
 Center     Atomic                   Forces (Hartrees/Bohr)
 Number     Number              X              Y              Z
 -------------------------------------------------------------------
      1       17           0.000000717    0.000002049   -0.000000645
      2       22           0.000001543    0.000001203    0.000002459
      3       17           0.000000707    0.000000687   -0.000000720
      4       17          -0.000001574   -0.000003250    0.000001428
      5       17          -0.000001393   -0.000000689   -0.000002523
 -------------------------------------------------------------------
 Cartesian Forces:  Max     0.000003250 RMS     0.000001640
 Force constants in Cartesian coordinates: 
                1             2             3             4             5 
      1  0.873465D-01
      2 -0.588700D-01  0.532726D-01
      3  0.519144D-01 -0.390224D-01  0.434033D-01
      4 -0.860296D-01  0.541510D-01 -0.477561D-01  0.248330D+00
      5  0.541536D-01 -0.546890D-01  0.358989D-01 -0.157095D-04  0.248432D+00
      6 -0.477584D-01  0.358961D-01 -0.456042D-01  0.707342D-04  0.967369D-04
      7 -0.337286D-02  0.376785D-02  0.623281D-03 -0.434824D-01  0.394560D-01
      8  0.471553D-02 -0.354714D-02  0.141210D-02  0.394592D-01 -0.667493D-01
      9  0.405585D-02 -0.179576D-02  0.768573D-02  0.428043D-01 -0.572793D-01
     10 -0.550876D-02  0.141635D-02 -0.383735D-02 -0.794649D-01 -0.604367D-01
     11 -0.263273D-02  0.814796D-02 -0.197852D-02 -0.604349D-01 -0.697055D-01
     12 -0.367252D-02  0.579982D-03 -0.187226D-02 -0.389420D-01 -0.359121D-01
     13  0.756464D-02 -0.465193D-03 -0.944234D-03 -0.393533D-01 -0.331572D-01
     14  0.263359D-02 -0.318450D-02  0.368992D-02 -0.331596D-01 -0.572877D-01
     15 -0.453932D-02  0.434205D-02 -0.361251D-02  0.438231D-01  0.571957D-01
                6             7             8             9            10 
      6  0.248323D+00
      7  0.428053D-01  0.410985D-01
      8 -0.572854D-01 -0.428932D-01  0.663818D-01
      9 -0.760920D-01 -0.465331D-01  0.622621D-01  0.765443D-01
     10 -0.389368D-01  0.766776D-02 -0.249292D-02 -0.398885D-02  0.802185D-01
     11 -0.359055D-01  0.100530D-02 -0.424457D-02 -0.451363D-02  0.657031D-01
     12 -0.371079D-01 -0.822765D-03 -0.366851D-02 -0.265310D-02  0.423300D-01
     13  0.438192D-01 -0.191107D-02  0.121140D-02  0.366186D-02 -0.291258D-02
     14  0.571980D-01 -0.133595D-02  0.815922D-02  0.132654D-02 -0.418979D-02
     15 -0.895190D-01  0.392731D-02 -0.272032D-02 -0.548493D-02  0.443295D-02
               11            12            13            14            15 
     11  0.696004D-01
     12  0.390319D-01  0.341614D-01
     13 -0.364080D-02  0.110722D-02  0.366123D-01
     14 -0.379828D-02 -0.312975D-04  0.360518D-01  0.561113D-01
     15  0.336571D-02  0.747185D-02 -0.476440D-01 -0.621831D-01  0.911446D-01
 FormGI is forming the generalized inverse of G from B-inverse, IUseBI=4.
 Force constants in internal coordinates: 
                1             2             3             4             5 
      1  0.166000D+00
      2  0.102654D-01  0.165999D+00
      3  0.102690D-01  0.102640D-01  0.165978D+00
      4  0.102650D-01  0.102659D-01  0.102716D-01  0.165852D+00
      5 -0.110925D-02 -0.235314D-02  0.150302D-02  0.192282D-02  0.743587D-01
      6 -0.102413D-02  0.152577D-02 -0.239236D-02  0.192573D-02 -0.271164D-01
      7 -0.107727D-02  0.148948D-02  0.150155D-02 -0.194576D-02 -0.276732D-01
      8  0.213351D-03 -0.101552D-02 -0.105605D-02  0.191980D-02  0.608343D-02
      9  0.148943D-02 -0.179091D-02  0.214167D-02 -0.192726D-02 -0.101441D-01
     10  0.150799D-02  0.214457D-02 -0.169817D-02 -0.189534D-02 -0.155128D-01
     11  0.209663D-02 -0.102706D-02 -0.102189D-02  0.105921D-04 -0.825963D-02
                6             7             8             9            10 
      6  0.744533D-01
      7 -0.277332D-01  0.732068D-01
      8  0.616978D-02  0.198863D-02  0.411499D-01
      9 -0.155444D-01 -0.992979D-02 -0.277028D-01  0.824625D-01
     10 -0.102251D-01 -0.986020D-02 -0.276885D-01 -0.191447D-01  0.824358D-01
     11 -0.822258D-02 -0.968207D-02  0.164800D-01  0.483944D-02  0.484596D-02
               11 
     11  0.261136D-01
 Leave Link  716 at Wed Feb 11 16:51:20 2015, MaxMem=   524288000 cpu:         0.3
 (Enter /opt/g09/l103.exe)

 GradGradGradGradGradGradGradGradGradGradGradGradGradGradGradGradGradGrad
 Berny optimization.
 Red2BG is reusing G-inverse.
 Internal  Forces:  Max     0.000002508 RMS     0.000000882
 Search for a local minimum.
 Step number   1 out of a maximum of    2
 All quantities printed in internal units (Hartrees-Bohrs-Radians)
 Second derivative matrix not updated -- analytic derivatives used.
 The second derivative matrix:
                          R1        R2        R3        R4        A1
           R1           0.16600
           R2           0.01027   0.16600
           R3           0.01027   0.01026   0.16598
           R4           0.01027   0.01027   0.01027   0.16585
           A1          -0.00111  -0.00235   0.00150   0.00192   0.07436
           A2          -0.00102   0.00153  -0.00239   0.00193  -0.02712
           A3          -0.00108   0.00149   0.00150  -0.00195  -0.02767
           A4           0.00021  -0.00102  -0.00106   0.00192   0.00608
           A5           0.00149  -0.00179   0.00214  -0.00193  -0.01014
           A6           0.00151   0.00214  -0.00170  -0.00190  -0.01551
           D1           0.00210  -0.00103  -0.00102   0.00001  -0.00826
                          A2        A3        A4        A5        A6
           A2           0.07445
           A3          -0.02773   0.07321
           A4           0.00617   0.00199   0.04115
           A5          -0.01554  -0.00993  -0.02770   0.08246
           A6          -0.01023  -0.00986  -0.02769  -0.01914   0.08244
           D1          -0.00822  -0.00968   0.01648   0.00484   0.00485
                          D1
           D1           0.02611
 ITU=  0
     Eigenvalues ---    0.04681   0.09621   0.09726   0.10620   0.10632
     Eigenvalues ---    0.15589   0.15621   0.15634   0.19676
 Angle between quadratic step and forces=  19.04 degrees.
 Linear search not attempted -- first point.
 Iteration  1 RMS(Cart)=  0.00000675 RMS(Int)=  0.00000000
 Iteration  2 RMS(Cart)=  0.00000000 RMS(Int)=  0.00000000
 ITry= 1 IFail=0 DXMaxC= 1.46D-05 DCOld= 1.00D+10 DXMaxT= 3.00D-01 DXLimC= 3.00D+00 Rises=F
 Variable       Old X    -DE/DX   Delta X   Delta X   Delta X     New X
                                 (Linear)    (Quad)   (Total)
    R1        4.11156   0.00000   0.00000   0.00001   0.00001   4.11156
    R2        4.11155   0.00000   0.00000   0.00000   0.00000   4.11156
    R3        4.11154   0.00000   0.00000  -0.00002  -0.00002   4.11152
    R4        4.11158   0.00000   0.00000   0.00000   0.00000   4.11158
    A1        1.91067   0.00000   0.00000   0.00000   0.00000   1.91067
    A2        1.91061   0.00000   0.00000   0.00001   0.00001   1.91062
    A3        1.91067   0.00000   0.00000   0.00000   0.00000   1.91067
    A4        1.91062   0.00000   0.00000   0.00000   0.00000   1.91062
    A5        1.91065   0.00000   0.00000   0.00000   0.00000   1.91065
    A6        1.91057   0.00000   0.00000   0.00000   0.00000   1.91057
    D1        2.09436   0.00000   0.00000  -0.00001  -0.00001   2.09435
         Item               Value     Threshold  Converged?
 Maximum Force            0.000003     0.000015     YES
 RMS     Force            0.000001     0.000010     YES
 Maximum Displacement     0.000015     0.000060     YES
 RMS     Displacement     0.000007     0.000040     YES
 Predicted change in Energy=-2.837349D-11
 Optimization completed.
    -- Stationary point found.
                           ----------------------------
                           !   Optimized Parameters   !
                           ! (Angstroms and Degrees)  !
 --------------------------                            --------------------------
 ! Name  Definition              Value          Derivative Info.                !
 --------------------------------------------------------------------------------
 ! R1    R(1,2)                  2.1757         -DE/DX =    0.0                 !
 ! R2    R(2,3)                  2.1757         -DE/DX =    0.0                 !
 ! R3    R(2,4)                  2.1757         -DE/DX =    0.0                 !
 ! R4    R(2,5)                  2.1758         -DE/DX =    0.0                 !
 ! A1    A(1,2,3)              109.4734         -DE/DX =    0.0                 !
 ! A2    A(1,2,4)              109.4698         -DE/DX =    0.0                 !
 ! A3    A(1,2,5)              109.4734         -DE/DX =    0.0                 !
 ! A4    A(3,2,4)              109.4705         -DE/DX =    0.0                 !
 ! A5    A(3,2,5)              109.4724         -DE/DX =    0.0                 !
 ! A6    A(4,2,5)              109.4678         -DE/DX =    0.0                 !
 ! D1    D(3,2,5,4)            119.9977         -DE/DX =    0.0                 !
 --------------------------------------------------------------------------------
 GradGradGradGradGradGradGradGradGradGradGradGradGradGradGradGradGradGrad

 Leave Link  103 at Wed Feb 11 16:51:20 2015, MaxMem=   524288000 cpu:         0.0
 (Enter /opt/g09/l9999.exe)
 1\1\GINC-EMIN\Freq\RB971\6-311+G(d,p)\Cl4Ti1\PB556\11-Feb-2015\0\\#P G
 eom=AllCheck Guess=TCheck SCRF=Check GenChk RB971/6-311+G(d,p) Freq\\W
 :\Data\TiCl\esc\B971\gs\new\monomer\fine\success\fine-Cl4Ti.g09\\0,1\C
 l,-2.44155,1.30134,-0.88072\Ti,-0.90475,0.14582,0.13755\Cl,0.07915,-1.
 16904,-1.28966\Cl,0.56107,1.49734,1.00851\Cl,-1.81756,-1.04628,1.71222
 \\Version=ES64L-G09RevD.01\HF=-2690.3113054\RMSD=2.543e-09\RMSF=1.640e
 -06\ZeroPoint=0.0057004\Thermal=0.0129722\Dipole=0.0000086,-0.000004,-
 0.0000515\DipoleDeriv=-0.7122624,0.4269947,-0.3762784,0.426981,-0.4653
 786,0.2829042,-0.376284,0.2828866,-0.3936667,2.0950919,-0.0000267,-0.0
 000426,0.0000117,2.0950087,-0.0000895,-0.0000171,-0.0001491,2.0950487,
 -0.3770913,0.3110726,0.3376451,0.3110642,-0.5600383,-0.4511787,0.33763
 93,-0.451161,-0.6341035,-0.6610279,-0.4763414,-0.3069379,-0.4763891,-0
 .5835493,-0.2830089,-0.3069396,-0.2829966,-0.3266662,-0.3447102,-0.261
 6993,0.3456137,-0.2616678,-0.4860425,0.451373,0.3456014,0.4514201,-0.7
 406123\Polar=88.3328137,-0.0010311,88.3332243,-0.0005891,-0.0001298,88
 .3350573\PG=C01 [X(Cl4Ti1)]\NImag=0\\0.08734655,-0.05887000,0.05327263
 ,0.05191439,-0.03902240,0.04340329,-0.08602957,0.05415099,-0.04775609,
 0.24833013,0.05415361,-0.05468896,0.03589891,-0.00001571,0.24843150,-0
 .04775840,0.03589613,-0.04560425,0.00007073,0.00009674,0.24832311,-0.0
 0337286,0.00376785,0.00062328,-0.04348238,0.03945599,0.04280529,0.0410
 9855,0.00471553,-0.00354714,0.00141210,0.03945917,-0.06674929,-0.05728
 538,-0.04289319,0.06638178,0.00405585,-0.00179576,0.00768573,0.0428042
 5,-0.05727926,-0.07609196,-0.04653311,0.06226212,0.07654426,-0.0055087
 6,0.00141635,-0.00383735,-0.07946490,-0.06043672,-0.03893678,0.0076677
 6,-0.00249292,-0.00398885,0.08021848,-0.00263273,0.00814796,-0.0019785
 2,-0.06043485,-0.06970553,-0.03590547,0.00100530,-0.00424457,-0.004513
 63,0.06570308,0.06960042,-0.00367252,0.00057998,-0.00187226,-0.0389419
 7,-0.03591209,-0.03710787,-0.00082277,-0.00366851,-0.00265310,0.042330
 03,0.03903192,0.03416138,0.00756464,-0.00046519,-0.00094423,-0.0393532
 8,-0.03315717,0.04381916,-0.00191107,0.00121140,0.00366186,-0.00291258
 ,-0.00364080,0.00110722,0.03661229,0.00263359,-0.00318450,0.00368992,-
 0.03315960,-0.05728772,0.05719799,-0.00133595,0.00815922,0.00132654,-0
 .00418979,-0.00379828,-0.00003130,0.03605176,0.05611128,-0.00453932,0.
 00434205,-0.00361251,0.04382307,0.05719571,-0.08951902,0.00392731,-0.0
 0272032,-0.00548493,0.00443295,0.00336571,0.00747185,-0.04764400,-0.06
 218315,0.09114461\\-0.00000072,-0.00000205,0.00000064,-0.00000154,-0.0
 0000120,-0.00000246,-0.00000071,-0.00000069,0.00000072,0.00000157,0.00
 000325,-0.00000143,0.00000139,0.00000069,0.00000252\\\@


 WE DON'T KNOW ONE MILLIONTH OF ONE PERCENT ABOUT
 ANYTHING.
                                     T. A. EDISON.
 Job cpu time:       0 days  0 hours 11 minutes 52.4 seconds.
 File lengths (MBytes):  RWF=     30 Int=      0 D2E=      0 Chk=      3 Scr=      1
 Normal termination of Gaussian 09 at Wed Feb 11 16:51:20 2015.
