 Entering Gaussian System, Link 0=g09
 Initial command:
 /opt/g09/l1.exe "/scratch/am2145/37274/Gau-100070.inp" -scrdir="/scratch/am2145/37274/"
 Entering Link 1 = /opt/g09/l1.exe PID=    100071.
  
 Copyright (c) 1988,1990,1992,1993,1995,1998,2003,2009,2013,
            Gaussian, Inc.  All Rights Reserved.
  
 This is part of the Gaussian(R) 09 program.  It is based on
 the Gaussian(R) 03 system (copyright 2003, Gaussian, Inc.),
 the Gaussian(R) 98 system (copyright 1998, Gaussian, Inc.),
 the Gaussian(R) 94 system (copyright 1995, Gaussian, Inc.),
 the Gaussian 92(TM) system (copyright 1992, Gaussian, Inc.),
 the Gaussian 90(TM) system (copyright 1990, Gaussian, Inc.),
 the Gaussian 88(TM) system (copyright 1988, Gaussian, Inc.),
 the Gaussian 86(TM) system (copyright 1986, Carnegie Mellon
 University), and the Gaussian 82(TM) system (copyright 1983,
 Carnegie Mellon University). Gaussian is a federally registered
 trademark of Gaussian, Inc.
  
 This software contains proprietary and confidential information,
 including trade secrets, belonging to Gaussian, Inc.
  
 This software is provided under written license and may be
 used, copied, transmitted, or stored only in accord with that
 written license.
  
 The following legend is applicable only to US Government
 contracts under FAR:
  
                    RESTRICTED RIGHTS LEGEND
  
 Use, reproduction and disclosure by the US Government is
 subject to restrictions as set forth in subparagraphs (a)
 and (c) of the Commercial Computer Software - Restricted
 Rights clause in FAR 52.227-19.
  
 Gaussian, Inc.
 340 Quinnipiac St., Bldg. 40, Wallingford CT 06492
  
  
 ---------------------------------------------------------------
 Warning -- This program may not be used in any manner that
 competes with the business of Gaussian, Inc. or will provide
 assistance to any competitor of Gaussian, Inc.  The licensee
 of this program is prohibited from giving any competitor of
 Gaussian, Inc. access to this program.  By using this program,
 the user acknowledges that Gaussian, Inc. is engaged in the
 business of creating and licensing software in the field of
 computational chemistry and represents and warrants to the
 licensee that it is not a competitor of Gaussian, Inc. and that
 it will not use this program in any manner prohibited above.
 ---------------------------------------------------------------
  

 Cite this work as:
 Gaussian 09, Revision D.01,
 M. J. Frisch, G. W. Trucks, H. B. Schlegel, G. E. Scuseria, 
 M. A. Robb, J. R. Cheeseman, G. Scalmani, V. Barone, B. Mennucci, 
 G. A. Petersson, H. Nakatsuji, M. Caricato, X. Li, H. P. Hratchian, 
 A. F. Izmaylov, J. Bloino, G. Zheng, J. L. Sonnenberg, M. Hada, 
 M. Ehara, K. Toyota, R. Fukuda, J. Hasegawa, M. Ishida, T. Nakajima, 
 Y. Honda, O. Kitao, H. Nakai, T. Vreven, J. A. Montgomery, Jr., 
 J. E. Peralta, F. Ogliaro, M. Bearpark, J. J. Heyd, E. Brothers, 
 K. N. Kudin, V. N. Staroverov, T. Keith, R. Kobayashi, J. Normand, 
 K. Raghavachari, A. Rendell, J. C. Burant, S. S. Iyengar, J. Tomasi, 
 M. Cossi, N. Rega, J. M. Millam, M. Klene, J. E. Knox, J. B. Cross, 
 V. Bakken, C. Adamo, J. Jaramillo, R. Gomperts, R. E. Stratmann, 
 O. Yazyev, A. J. Austin, R. Cammi, C. Pomelli, J. W. Ochterski, 
 R. L. Martin, K. Morokuma, V. G. Zakrzewski, G. A. Voth, 
 P. Salvador, J. J. Dannenberg, S. Dapprich, A. D. Daniels, 
 O. Farkas, J. B. Foresman, J. V. Ortiz, J. Cioslowski, 
 and D. J. Fox, Gaussian, Inc., Wallingford CT, 2013.
 
 ******************************************
 Gaussian 09:  ES64L-G09RevD.01 24-Apr-2013
                 6-Dec-2017 
 ******************************************
 %NProcShared=20
 Will use up to   20 processors via shared memory.
 %Chk=1b.chk
 %mem=24GB
 ----------------------------------
 #n HSEH1PBE/6-311G(d,p) TD(Root=1)
 ----------------------------------
 1/38=1/1;
 2/12=2,17=6,18=5,40=1/2;
 3/5=4,6=6,7=101,11=9,16=1,25=1,30=1,74=-51/1,2,8,3;
 4//1;
 5/5=2,38=5/2;
 8/6=1,10=2,107=1/1;
 9/8=1,42=1,70=2/14;
 6/7=2,8=2,9=2,10=2/1;
 99/5=1,9=1/99;
 --
 1b
 --
 Symbolic Z-matrix:
 Charge =  0 Multiplicity = 1
 C                    -0.17762   1.1955    2.46505 
 C                     1.08206   0.53839   2.46533 
 C                     0.8461   -0.86266   2.46478 
 C                    -0.55921  -1.07151   2.46531 
 C                    -1.19186   0.20063   2.46533 
 C                    -0.35695   2.40318   1.80349 
 C                     0.80004   3.0726    1.29197 
 C                     2.06295   2.41368   1.29161 
 C                     2.17571   1.08216   1.80396 
 C                     3.17068   0.18885   1.29363 
 C                     2.93317  -1.21559   1.29173 
 C                     1.7014   -1.7344    1.80346 
 C                    -1.12381  -2.15354   1.80276 
 C                    -0.25007  -3.16578   1.29259 
 C                     1.15864  -2.95513   1.29028 
 C                    -2.45465  -2.01656   1.29398 
 C                    -3.08749  -0.74042   1.29172 
 C                    -2.3963    0.40324   1.80419 
 C                    -2.67604   1.71065   1.29315 
 C                    -1.65818   2.70707   1.2908 
 C                     3.14247   2.94596   0.53376 
 C                     4.2704    2.12391   0.22878 
 C                     4.245     0.72834   0.53341 
 C                     5.18508  -0.1499   -0.06232 
 C                     3.77332  -2.07772   0.53422 
 C                     3.33894  -3.40374   0.22705 
 C                     2.0046   -3.81197   0.53335 
 C                    -0.80993  -4.22813   0.5307 
 C                    -2.20615  -4.2283    0.22874 
 C                    -3.00495  -3.08286   0.53025 
 C                    -4.27483  -0.53671   0.53578 
 C                    -4.70327   0.79142   0.22917 
 C                    -3.86177   1.9052    0.53217 
 C                    -1.83121   3.89873   0.53408 
 C                    -0.70043   4.71663   0.22808 
 C                     0.61896   4.26153   0.5328 
 C                     1.74446   4.88332  -0.06439 
 C                     3.00774   4.224    -0.06504 
 C                     4.94707  -1.55472  -0.06484 
 C                     1.45899  -4.97531  -0.06569 
 C                     0.04982  -5.1863   -0.06316 
 C                    -4.28279  -2.92584  -0.06314 
 C                    -4.91597  -1.64942  -0.06502 
 C                    -4.1063    3.16848  -0.06323 
 C                    -3.08778   4.16499  -0.06604 
 C                     4.11537   4.7761   -0.79396 
 C                     5.25759   4.00681  -0.98666 
 C                     5.33588   2.65389  -0.55889 
 C                     6.36825   1.77544  -0.98552 
 C                     6.29298   0.40045  -0.79236 
 C                     3.94174   6.08661  -1.37891 
 C                     2.73769   6.71471  -1.37883 
 C                     1.56342   6.10734  -0.79392 
 C                     0.27893   6.60427  -0.98622 
 C                    -0.87541   5.89428  -0.5587 
 C                    -2.1864    6.23816  -0.98618 
 C                    -3.27105   5.38953  -0.79379 
 C                    -4.57115   5.6295   -1.37855 
 C                    -5.54059   4.67855  -1.37865 
 C                    -5.32569   3.37405  -0.79393 
 C                    -6.19528   2.30611  -0.98608 
 C                    -5.87684   0.9889   -0.55844 
 C                    -6.60959  -0.15163  -0.9847 
 C                    -6.13768  -1.44529  -0.79202 
 C                    -6.76739  -2.60735  -1.37752 
 C                    -6.16202  -3.82288  -1.37911 
 C                    -4.85469  -4.02147  -0.79504 
 C                    -4.10737  -5.17818  -0.98798 
 C                    -2.75609  -5.28243  -0.56055 
 C                    -1.89795  -6.33186  -0.98668 
 C                    -0.52183  -6.2835   -0.79273 
 C                     0.38904  -7.24262  -1.37603 
 C                     1.73227  -7.04295  -1.37638 
 C                     2.32518  -5.86061  -0.79308 
 C                     3.65599  -5.50697  -0.98683 
 C                     4.17235  -4.25355  -0.56019 
 C                     5.43516  -3.76129  -0.98719 
 C                     5.81443  -2.43752  -0.79367 
 C                     7.2334   -0.52857  -1.37748 
 C                     7.00754  -1.86767  -1.37819 
 H                     7.19146   2.18226  -1.56489 
 H                     8.1147   -0.12694  -1.86668 
 H                     7.7087   -2.53567  -1.86751 
 H                     6.08017  -4.41563  -1.56569 
 H                     4.29782  -6.16467  -1.56501 
 H                     2.38653  -7.7575   -1.86494 
 H                    -0.02937  -8.11658  -1.86435 
 H                    -2.32077  -7.14719  -1.56576 
 H                    -4.53406  -5.99146  -1.56709 
 H                    -6.63892  -4.66564  -1.86864 
 H                    -7.72792  -2.47921  -1.86566 
 H                    -7.51644  -0.00155  -1.56258 
 H                    -7.10121   2.46093  -1.5642 
 H                    -6.48975   4.87176  -1.86761 
 H                    -4.74607   6.58232  -1.86722 
 H                    -2.32353   7.14694  -1.5642 
 H                     0.14612   7.51341  -1.56472 
 H                     2.62801   7.67703  -1.86791 
 H                     4.79371   6.54742  -1.86787 
 H                     6.07918   4.4181   -1.56517 
 
 Stoichiometry    C80H20
 Framework group  C1[X(C80H20)]
 Deg. of freedom   294
 Full point group                 C1      NOp   1
 Largest Abelian subgroup         C1      NOp   1
 Largest concise Abelian subgroup C1      NOp   1
                         Standard orientation:                         
 ---------------------------------------------------------------------
 Center     Atomic      Atomic             Coordinates (Angstroms)
 Number     Number       Type             X           Y           Z
 ---------------------------------------------------------------------
      1          6           0        0.177647   -1.195496    2.465050
      2          6           0       -1.082048   -0.538415    2.465330
      3          6           0       -0.846121    0.862640    2.464780
      4          6           0        0.559185    1.071523    2.465310
      5          6           0        1.191864   -0.200602    2.465330
      6          6           0        0.357005   -2.403172    1.803490
      7          6           0       -0.799969   -3.072619    1.291970
      8          6           0       -2.062894   -2.413728    1.291610
      9          6           0       -2.175685   -1.082211    1.803960
     10          6           0       -3.170676   -0.188924    1.293630
     11          6           0       -2.933199    1.215522    1.291730
     12          6           0       -1.701441    1.734360    1.803460
     13          6           0        1.123759    2.153566    1.802760
     14          6           0        0.249996    3.165786    1.292590
     15          6           0       -1.158709    2.955103    1.290280
     16          6           0        2.454603    2.016617    1.293980
     17          6           0        3.087472    0.740492    1.291720
     18          6           0        2.396309   -0.403184    1.804190
     19          6           0        2.676079   -1.710588    1.293150
     20          6           0        1.658242   -2.707031    1.290800
     21          6           0       -3.142402   -2.946033    0.533760
     22          6           0       -4.270351   -2.124009    0.228780
     23          6           0       -4.244984   -0.728439    0.533410
     24          6           0       -5.185084    0.149779   -0.062320
     25          6           0       -3.773369    2.077632    0.534220
     26          6           0       -3.339020    3.403662    0.227050
     27          6           0       -2.004689    3.811923    0.533350
     28          6           0        0.809831    4.228149    0.530700
     29          6           0        2.206051    4.228351    0.228740
     30          6           0        3.004878    3.082930    0.530250
     31          6           0        4.274817    0.536809    0.535780
     32          6           0        4.703288   -0.791311    0.229170
     33          6           0        3.861814   -1.905110    0.532170
     34          6           0        1.831300   -3.898687    0.534080
     35          6           0        0.700539   -4.716614    0.228080
     36          6           0       -0.618861   -4.261544    0.532800
     37          6           0       -1.744347   -4.883361   -0.064390
     38          6           0       -3.007642   -4.224070   -0.065040
     39          6           0       -4.947107    1.554605   -0.064840
     40          6           0       -1.459106    4.975276   -0.065690
     41          6           0       -0.049941    5.186299   -0.063160
     42          6           0        4.282721    2.925940   -0.063140
     43          6           0        4.915931    1.649534   -0.065020
     44          6           0        4.106373   -3.168385   -0.063230
     45          6           0        3.087876   -4.164918   -0.066040
     46          6           0       -4.115259   -4.776196   -0.793960
     47          6           0       -5.257497   -4.006932   -0.986660
     48          6           0       -5.335819   -2.654014   -0.558890
     49          6           0       -6.368209   -1.775588   -0.985520
     50          6           0       -6.292971   -0.400596   -0.792360
     51          6           0       -3.941599   -6.086702   -1.378910
     52          6           0       -2.737534   -6.714774   -1.378830
     53          6           0       -1.563278   -6.107376   -0.793920
     54          6           0       -0.278777   -6.604277   -0.986220
     55          6           0        0.875547   -5.894260   -0.558700
     56          6           0        2.186545   -6.238109   -0.986180
     57          6           0        3.271175   -5.389454   -0.793790
     58          6           0        4.571280   -5.629394   -1.378550
     59          6           0        5.540698   -4.678421   -1.378650
     60          6           0        5.325768   -3.373926   -0.793930
     61          6           0        6.195333   -2.305966   -0.986080
     62          6           0        5.876862   -0.988763   -0.558440
     63          6           0        6.609586    0.151784   -0.984700
     64          6           0        6.137646    1.445433   -0.792020
     65          6           0        6.767329    2.607507   -1.377520
     66          6           0        6.161931    3.823023   -1.379110
     67          6           0        4.854596    4.021583   -0.795040
     68          6           0        4.107249    5.178276   -0.987980
     69          6           0        2.755967    5.282494   -0.560550
     70          6           0        1.897802    6.331904   -0.986680
     71          6           0        0.521683    6.283512   -0.792730
     72          6           0       -0.389209    7.242611   -1.376030
     73          6           0       -1.732434    7.042910   -1.376380
     74          6           0       -2.325317    5.860556   -0.793080
     75          6           0       -3.656119    5.506885   -0.986830
     76          6           0       -4.172449    4.253453   -0.560190
     77          6           0       -5.435248    3.761164   -0.987190
     78          6           0       -5.814487    2.437385   -0.793670
     79          6           0       -7.233413    0.528402   -1.377480
     80          6           0       -7.007584    1.867507   -1.378190
     81          1           0       -7.191410   -2.182427   -1.564890
     82          1           0       -8.114703    0.126751   -1.866680
     83          1           0       -7.708759    2.535491   -1.867510
     84          1           0       -6.080273    4.415489   -1.565690
     85          1           0       -4.297964    6.164570   -1.565010
     86          1           0       -2.386711    7.757444   -1.864940
     87          1           0        0.029181    8.116581   -1.864350
     88          1           0        2.320603    7.147244   -1.565760
     89          1           0        4.533920    5.991565   -1.567090
     90          1           0        6.638811    4.665794   -1.868640
     91          1           0        7.727862    2.479390   -1.865660
     92          1           0        7.516439    0.001725   -1.562580
     93          1           0        7.101267   -2.460765   -1.564200
     94          1           0        6.489863   -4.871609   -1.867610
     95          1           0        4.746223   -6.582210   -1.867220
     96          1           0        2.323696   -7.146886   -1.564200
     97          1           0       -0.145946   -7.513413   -1.564720
     98          1           0       -2.627832   -7.677091   -1.867910
     99          1           0       -4.793558   -6.547532   -1.867870
    100          1           0       -6.079078   -4.418241   -1.565170
 ---------------------------------------------------------------------
 Rotational constants (GHZ):      0.0328753      0.0328689      0.0179484
 Standard basis: 6-311G(d,p) (5D, 7F)
 There are  1640 symmetry adapted cartesian basis functions of A   symmetry.
 There are  1560 symmetry adapted basis functions of A   symmetry.
  1560 basis functions,  2720 primitive gaussians,  1640 cartesian basis functions
   250 alpha electrons      250 beta electrons
       nuclear repulsion energy     12036.0616747357 Hartrees.
 NAtoms=  100 NActive=  100 NUniq=  100 SFac= 1.00D+00 NAtFMM=   60 NAOKFM=T Big=T
 Integral buffers will be    131072 words long.
 Regular integral format.
 Two-electron integral symmetry is turned on.
 One-electron integrals computed using PRISM.
 NBasis=  1560 RedAO= T EigKep=  7.93D-06  NBF=  1560
 NBsUse=  1560 1.00D-06 EigRej= -1.00D+00 NBFU=  1560
 ExpMin= 1.03D-01 ExpMax= 4.56D+03 ExpMxC= 6.82D+02 IAcc=1 IRadAn=         1 AccDes= 0.00D+00
 Harris functional with IExCor= 1009 and IRadAn=       1 diagonalized for initial guess.
 HarFok:  IExCor= 1009 AccDes= 0.00D+00 IRadAn=         1 IDoV= 1 UseB2=F ITyADJ=14
 ICtDFT=  3500011 ScaDFX=  1.000000  1.000000  1.000000  1.000000
 FoFCou: FMM=F IPFlag=           0 FMFlag=      100000 FMFlg1=        2001
         NFxFlg=           0 DoJE=T BraDBF=F KetDBF=T FulRan=T
         wScrn=  0.000000 ICntrl=     500 IOpCl=  0 I1Cent=   200000004 NGrid=           0
         NMat0=    1 NMatS0=      1 NMatT0=    0 NMatD0=    1 NMtDS0=    0 NMtDT0=    0
 Petite list used in FoFCou.
 Requested convergence on RMS density matrix=1.00D-08 within 128 cycles.
 Requested convergence on MAX density matrix=1.00D-06.
 Requested convergence on             energy=1.00D-06.
 No special actions if energy rises.
 Integral accuracy reduced to 1.0D-05 until final iterations.
 Problem detected with inexpensive integrals.
 Switching to full accuracy and repeating last cycle.
 SCF Done:  E(RHSEH1PBE) =  -3058.37733505     A.U. after   15 cycles
            NFock= 15  Conv=0.55D-08     -V/T= 2.0042
 DoSCS=F DFT=T ScalE2(SS,OS)=  1.000000  1.000000
 ExpMin= 1.03D-01 ExpMax= 4.56D+03 ExpMxC= 6.82D+02 IAcc=3 IRadAn=         5 AccDes= 0.00D+00
 HarFok:  IExCor=  205 AccDes= 0.00D+00 IRadAn=         5 IDoV=-2 UseB2=F ITyADJ=14
 ICtDFT= 12500011 ScaDFX=  1.000000  1.000000  1.000000  1.000000
 Range of M.O.s used for correlation:    81  1560
 NBasis=  1560 NAE=   250 NBE=   250 NFC=    80 NFV=     0
 NROrb=   1480 NOA=   170 NOB=   170 NVA=  1310 NVB=  1310

 **** Warning!!: The largest alpha MO coefficient is  0.22007867D+02


 **** Warning!!: The smallest alpha delta epsilon is  0.74820899D-01

 Would need an additional       4447026300000 words for in-memory AO integral storage.
 Orbital symmetries:
       Occupied  (A) (A) (A) (A) (A) (A) (A) (A) (A) (A) (A) (A)
                 (A) (A) (A) (A) (A) (A) (A) (A) (A) (A) (A) (A)
                 (A) (A) (A) (A) (A) (A) (A) (A) (A) (A) (A) (A)
                 (A) (A) (A) (A) (A) (A) (A) (A) (A) (A) (A) (A)
                 (A) (A) (A) (A) (A) (A) (A) (A) (A) (A) (A) (A)
                 (A) (A) (A) (A) (A) (A) (A) (A) (A) (A) (A) (A)
                 (A) (A) (A) (A) (A) (A) (A) (A) (A) (A) (A) (A)
                 (A) (A) (A) (A) (A) (A) (A) (A) (A) (A) (A) (A)
                 (A) (A) (A) (A) (A) (A) (A) (A) (A) (A) (A) (A)
                 (A) (A) (A) (A) (A) (A) (A) (A) (A) (A) (A) (A)
                 (A) (A) (A) (A) (A) (A) (A) (A) (A) (A) (A) (A)
                 (A) (A) (A) (A) (A) (A) (A) (A) (A) (A) (A) (A)
                 (A) (A) (A) (A) (A) (A) (A) (A) (A) (A) (A) (A)
                 (A) (A) (A) (A) (A) (A) (A) (A) (A) (A) (A) (A)
                 (A) (A) (A) (A) (A) (A) (A) (A) (A) (A) (A) (A)
                 (A) (A) (A) (A) (A) (A) (A) (A) (A) (A) (A) (A)
                 (A) (A) (A) (A) (A) (A) (A) (A) (A) (A) (A) (A)
                 (A) (A) (A) (A) (A) (A) (A) (A) (A) (A) (A) (A)
                 (A) (A) (A) (A) (A) (A) (A) (A) (A) (A) (A) (A)
                 (A) (A) (A) (A) (A) (A) (A) (A) (A) (A) (A) (A)
                 (A) (A) (A) (A) (A) (A) (A) (A) (A) (A)
       Virtual   (A) (A) (A) (A) (A) (A) (A) (A) (A) (A) (A) (A)
                 (A) (A) (A) (A) (A) (A) (A) (A) (A) (A) (A) (A)
                 (A) (A) (A) (A) (A) (A) (A) (A) (A) (A) (A) (A)
                 (A) (A) (A) (A) (A) (A) (A) (A) (A) (A) (A) (A)
                 (A) (A) (A) (A) (A) (A) (A) (A) (A) (A) (A) (A)
                 (A) (A) (A) (A) (A) (A) (A) (A) (A) (A) (A) (A)
                 (A) (A) (A) (A) (A) (A) (A) (A) (A) (A) (A) (A)
                 (A) (A) (A) (A) (A) (A) (A) (A) (A) (A) (A) (A)
                 (A) (A) (A) (A) (A) (A) (A) (A) (A) (A) (A) (A)
                 (A) (A) (A) (A) (A) (A) (A) (A) (A) (A) (A) (A)
                 (A) (A) (A) (A) (A) (A) (A) (A) (A) (A) (A) (A)
                 (A) (A) (A) (A) (A) (A) (A) (A) (A) (A) (A) (A)
                 (A) (A) (A) (A) (A) (A) (A) (A) (A) (A) (A) (A)
                 (A) (A) (A) (A) (A) (A) (A) (A) (A) (A) (A) (A)
                 (A) (A) (A) (A) (A) (A) (A) (A) (A) (A) (A) (A)
                 (A) (A) (A) (A) (A) (A) (A) (A) (A) (A) (A) (A)
                 (A) (A) (A) (A) (A) (A) (A) (A) (A) (A) (A) (A)
                 (A) (A) (A) (A) (A) (A) (A) (A) (A) (A) (A) (A)
                 (A) (A) (A) (A) (A) (A) (A) (A) (A) (A) (A) (A)
                 (A) (A) (A) (A) (A) (A) (A) (A) (A) (A) (A) (A)
                 (A) (A) (A) (A) (A) (A) (A) (A) (A) (A) (A) (A)
                 (A) (A) (A) (A) (A) (A) (A) (A) (A) (A) (A) (A)
                 (A) (A) (A) (A) (A) (A) (A) (A) (A) (A) (A) (A)
                 (A) (A) (A) (A) (A) (A) (A) (A) (A) (A) (A) (A)
                 (A) (A) (A) (A) (A) (A) (A) (A) (A) (A) (A) (A)
                 (A) (A) (A) (A) (A) (A) (A) (A) (A) (A) (A) (A)
                 (A) (A) (A) (A) (A) (A) (A) (A) (A) (A) (A) (A)
                 (A) (A) (A) (A) (A) (A) (A) (A) (A) (A) (A) (A)
                 (A) (A) (A) (A) (A) (A) (A) (A) (A) (A) (A) (A)
                 (A) (A) (A) (A) (A) (A) (A) (A) (A) (A) (A) (A)
                 (A) (A) (A) (A) (A) (A) (A) (A) (A) (A) (A) (A)
                 (A) (A) (A) (A) (A) (A) (A) (A) (A) (A) (A) (A)
                 (A) (A) (A) (A) (A) (A) (A) (A) (A) (A) (A) (A)
                 (A) (A) (A) (A) (A) (A) (A) (A) (A) (A) (A) (A)
                 (A) (A) (A) (A) (A) (A) (A) (A) (A) (A) (A) (A)
                 (A) (A) (A) (A) (A) (A) (A) (A) (A) (A) (A) (A)
                 (A) (A) (A) (A) (A) (A) (A) (A) (A) (A) (A) (A)
                 (A) (A) (A) (A) (A) (A) (A) (A) (A) (A) (A) (A)
                 (A) (A) (A) (A) (A) (A) (A) (A) (A) (A) (A) (A)
                 (A) (A) (A) (A) (A) (A) (A) (A) (A) (A) (A) (A)
                 (A) (A) (A) (A) (A) (A) (A) (A) (A) (A) (A) (A)
                 (A) (A) (A) (A) (A) (A) (A) (A) (A) (A) (A) (A)
                 (A) (A) (A) (A) (A) (A) (A) (A) (A) (A) (A) (A)
                 (A) (A) (A) (A) (A) (A) (A) (A) (A) (A) (A) (A)
                 (A) (A) (A) (A) (A) (A) (A) (A) (A) (A) (A) (A)
                 (A) (A) (A) (A) (A) (A) (A) (A) (A) (A) (A) (A)
                 (A) (A) (A) (A) (A) (A) (A) (A) (A) (A) (A) (A)
                 (A) (A) (A) (A) (A) (A) (A) (A) (A) (A) (A) (A)
                 (A) (A) (A) (A) (A) (A) (A) (A) (A) (A) (A) (A)
                 (A) (A) (A) (A) (A) (A) (A) (A) (A) (A) (A) (A)
                 (A) (A) (A) (A) (A) (A) (A) (A) (A) (A) (A) (A)
                 (A) (A) (A) (A) (A) (A) (A) (A) (A) (A) (A) (A)
                 (A) (A) (A) (A) (A) (A) (A) (A) (A) (A) (A) (A)
                 (A) (A) (A) (A) (A) (A) (A) (A) (A) (A) (A) (A)
                 (A) (A) (A) (A) (A) (A) (A) (A) (A) (A) (A) (A)
                 (A) (A) (A) (A) (A) (A) (A) (A) (A) (A) (A) (A)
                 (A) (A) (A) (A) (A) (A) (A) (A) (A) (A) (A) (A)
                 (A) (A) (A) (A) (A) (A) (A) (A) (A) (A) (A) (A)
                 (A) (A) (A) (A) (A) (A) (A) (A) (A) (A) (A) (A)
                 (A) (A) (A) (A) (A) (A) (A) (A) (A) (A) (A) (A)
                 (A) (A) (A) (A) (A) (A) (A) (A) (A) (A) (A) (A)
                 (A) (A) (A) (A) (A) (A) (A) (A) (A) (A) (A) (A)
                 (A) (A) (A) (A) (A) (A) (A) (A) (A) (A) (A) (A)
                 (A) (A) (A) (A) (A) (A) (A) (A) (A) (A) (A) (A)
                 (A) (A) (A) (A) (A) (A) (A) (A) (A) (A) (A) (A)
                 (A) (A) (A) (A) (A) (A) (A) (A) (A) (A) (A) (A)
                 (A) (A) (A) (A) (A) (A) (A) (A) (A) (A) (A) (A)
                 (A) (A) (A) (A) (A) (A) (A) (A) (A) (A) (A) (A)
                 (A) (A) (A) (A) (A) (A) (A) (A) (A) (A) (A) (A)
                 (A) (A) (A) (A) (A) (A) (A) (A) (A) (A) (A) (A)
                 (A) (A) (A) (A) (A) (A) (A) (A) (A) (A) (A) (A)
                 (A) (A) (A) (A) (A) (A) (A) (A) (A) (A) (A) (A)
                 (A) (A) (A) (A) (A) (A) (A) (A) (A) (A) (A) (A)
                 (A) (A) (A) (A) (A) (A) (A) (A) (A) (A) (A) (A)
                 (A) (A) (A) (A) (A) (A) (A) (A) (A) (A) (A) (A)
                 (A) (A) (A) (A) (A) (A) (A) (A) (A) (A) (A) (A)
                 (A) (A) (A) (A) (A) (A) (A) (A) (A) (A) (A) (A)
                 (A) (A) (A) (A) (A) (A) (A) (A) (A) (A) (A) (A)
                 (A) (A) (A) (A) (A) (A) (A) (A) (A) (A) (A) (A)
                 (A) (A) (A) (A) (A) (A) (A) (A) (A) (A) (A) (A)
                 (A) (A) (A) (A) (A) (A) (A) (A) (A) (A) (A) (A)
                 (A) (A) (A) (A) (A) (A) (A) (A) (A) (A) (A) (A)
                 (A) (A) (A) (A) (A) (A) (A) (A) (A) (A) (A) (A)
                 (A) (A) (A) (A) (A) (A) (A) (A) (A) (A) (A) (A)
                 (A) (A) (A) (A) (A) (A) (A) (A) (A) (A) (A) (A)
                 (A) (A) (A) (A) (A) (A) (A) (A) (A) (A) (A) (A)
                 (A) (A) (A) (A) (A) (A) (A) (A) (A) (A) (A) (A)
                 (A) (A) (A) (A) (A) (A) (A) (A) (A) (A) (A) (A)
                 (A) (A) (A) (A) (A) (A) (A) (A) (A) (A) (A) (A)
                 (A) (A) (A) (A) (A) (A) (A) (A) (A) (A) (A) (A)
                 (A) (A) (A) (A) (A) (A) (A) (A) (A) (A) (A) (A)
                 (A) (A) (A) (A) (A) (A) (A) (A) (A) (A) (A) (A)
                 (A) (A) (A) (A) (A) (A) (A) (A) (A) (A) (A) (A)
                 (A) (A) (A) (A) (A) (A) (A) (A) (A) (A) (A) (A)
                 (A) (A) (A) (A) (A) (A) (A) (A) (A) (A) (A) (A)
                 (A) (A) (A) (A) (A) (A) (A) (A) (A) (A) (A) (A)
                 (A) (A) (A) (A) (A) (A) (A) (A) (A) (A) (A) (A)
                 (A) (A) (A) (A) (A) (A) (A) (A) (A) (A) (A) (A)
                 (A) (A) (A) (A) (A) (A) (A) (A) (A) (A) (A) (A)
                 (A) (A) (A) (A) (A) (A) (A) (A) (A) (A) (A) (A)
                 (A) (A) (A) (A) (A) (A) (A) (A) (A) (A) (A) (A)
                 (A) (A) (A) (A) (A) (A) (A) (A) (A) (A) (A) (A)
                 (A) (A) (A) (A) (A) (A) (A) (A) (A) (A) (A) (A)
                 (A) (A) (A) (A) (A) (A) (A) (A) (A) (A) (A) (A)
                 (A) (A) (A) (A) (A) (A) (A) (A) (A) (A) (A) (A)
                 (A) (A) (A) (A) (A) (A) (A) (A) (A) (A) (A) (A)
                 (A) (A) (A) (A) (A) (A) (A) (A) (A) (A) (A) (A)
                 (A) (A) (A) (A) (A) (A) (A) (A) (A) (A) (A) (A)
                 (A) (A) (A) (A) (A) (A) (A) (A) (A) (A) (A) (A)
                 (A) (A)
    12 initial guesses have been made.
 Convergence on wavefunction:    0.001000000000000
 Iteration     1 Dimension    12 NMult     0 NNew     12
 CISAX will form    12 AO SS matrices at one time.
 New state      1 was old state      4
 Iteration     2 Dimension    18 NMult    12 NNew      6
 New state      1 was old state      3
 New state      2 was old state      1
 New state      3 was old state      2
 Iteration     3 Dimension    24 NMult    18 NNew      6
 Iteration     4 Dimension    30 NMult    24 NNew      6
 Iteration     5 Dimension    36 NMult    30 NNew      6
 Iteration     6 Dimension    40 NMult    36 NNew      4
 ***********************************************************************
 Excited states from <AA,BB:AA,BB> singles matrix:
 ***********************************************************************
 
 Ground to excited state transition densities written to RWF  633
 Ground to excited state transition electric dipole moments (Au):
       state          X           Y           Z        Dip. S.      Osc.
         1        -0.0004      0.0006      0.0001      0.0000      0.0000
         2         0.0009      0.0017     -0.0012      0.0000      0.0000
         3        -0.0017      0.0002      0.0007      0.0000      0.0000
 Ground to excited state transition velocity dipole moments (Au):
       state          X           Y           Z        Dip. S.      Osc.
         1         0.0000      0.0000      0.0000      0.0000      0.0000
         2         0.0000     -0.0001      0.0001      0.0000      0.0000
         3         0.0002      0.0000      0.0000      0.0000      0.0000
 Ground to excited state transition magnetic dipole moments (Au):
       state          X           Y           Z
         1        -0.0001      0.0002      6.8756
         2        -0.0007      0.0002     -0.1450
         3         0.0004      0.0024     -0.2657
 Ground to excited state transition velocity quadrupole moments (Au):
       state          XX          YY          ZZ          XY          XZ          YZ
         1        -0.0035      0.0036      0.0000     -0.0013      0.0000      0.0000
         2        -0.0568      0.0542      0.0002      0.0564      0.0001      0.0001
         3        -0.0547      0.0564     -0.0001     -0.0548     -0.0002      0.0000
 <0|del|b> * <b|rxdel|0> + <0|del|b> * <b|delr+rdel|0>
 Rotatory Strengths (R) in cgs (10**-40 erg-esu-cm/Gauss)
       state          XX          YY          ZZ    R(velocity)    E-M Angle
         1        -0.4293     -0.4295      0.0000     -0.2863       90.00
         2        -0.0332     -0.0751      0.0000     -0.0361       90.00
         3         0.0678      0.0452      0.0002      0.0377       90.00
 1/2[<0|r|b>*<b|rxdel|0> + (<0|rxdel|b>*<b|r|0>)*]
 Rotatory Strengths (R) in cgs (10**-40 erg-esu-cm/Gauss)
       state          XX          YY          ZZ     R(length)
         1         0.0000     -0.0001     -0.2495     -0.0832
         2         0.0004     -0.0003     -0.1274     -0.0424
         3         0.0005     -0.0003      0.1364      0.0456
  1/2[<0|del|b>*<b|r|0> + (<0|r|b>*<b|del|0>)*] (Au)
       state          X           Y           Z        Dip. S.   Osc.(frdel)
         1         0.0000      0.0000      0.0000      0.0000      0.0000
         2         0.0000      0.0000      0.0000      0.0000      0.0000
         3         0.0000      0.0000      0.0000      0.0000      0.0000

 Excitation energies and oscillator strengths:
 
 Excited State   1:      Singlet-A      1.9115 eV  648.61 nm  f=0.0000  <S**2>=0.000
     249 -> 251       -0.47735
     250 -> 252        0.51439
 This state for optimization and/or second-order correction.
 Total Energy, E(TD-HF/TD-KS) =  -3058.30708745    
 Copying the excited state density for this state as the 1-particle RhoCI density.
 
 Excited State   2:      Singlet-A      1.9181 eV  646.40 nm  f=0.0000  <S**2>=0.000
     247 -> 251        0.27611
     248 -> 252       -0.26811
     249 -> 251        0.17332
     249 -> 252        0.38744
     250 -> 251       -0.37969
     250 -> 252        0.15095
 
 Excited State   3:      Singlet-A      1.9183 eV  646.34 nm  f=0.0000  <S**2>=0.000
     247 -> 252        0.27702
     248 -> 251        0.28615
     249 -> 251        0.39339
     249 -> 252       -0.15725
     250 -> 251        0.16307
     250 -> 252        0.36117
 SavETr:  write IOETrn=   770 NScale= 10 NData=  16 NLR=1 NState=    3 LETran=      64.

 **********************************************************************

            Population analysis using the SCF density.

 **********************************************************************

 Orbital symmetries:
       Occupied  (A) (A) (A) (A) (A) (A) (A) (A) (A) (A) (A) (A)
                 (A) (A) (A) (A) (A) (A) (A) (A) (A) (A) (A) (A)
                 (A) (A) (A) (A) (A) (A) (A) (A) (A) (A) (A) (A)
                 (A) (A) (A) (A) (A) (A) (A) (A) (A) (A) (A) (A)
                 (A) (A) (A) (A) (A) (A) (A) (A) (A) (A) (A) (A)
                 (A) (A) (A) (A) (A) (A) (A) (A) (A) (A) (A) (A)
                 (A) (A) (A) (A) (A) (A) (A) (A) (A) (A) (A) (A)
                 (A) (A) (A) (A) (A) (A) (A) (A) (A) (A) (A) (A)
                 (A) (A) (A) (A) (A) (A) (A) (A) (A) (A) (A) (A)
                 (A) (A) (A) (A) (A) (A) (A) (A) (A) (A) (A) (A)
                 (A) (A) (A) (A) (A) (A) (A) (A) (A) (A) (A) (A)
                 (A) (A) (A) (A) (A) (A) (A) (A) (A) (A) (A) (A)
                 (A) (A) (A) (A) (A) (A) (A) (A) (A) (A) (A) (A)
                 (A) (A) (A) (A) (A) (A) (A) (A) (A) (A) (A) (A)
                 (A) (A) (A) (A) (A) (A) (A) (A) (A) (A) (A) (A)
                 (A) (A) (A) (A) (A) (A) (A) (A) (A) (A) (A) (A)
                 (A) (A) (A) (A) (A) (A) (A) (A) (A) (A) (A) (A)
                 (A) (A) (A) (A) (A) (A) (A) (A) (A) (A) (A) (A)
                 (A) (A) (A) (A) (A) (A) (A) (A) (A) (A) (A) (A)
                 (A) (A) (A) (A) (A) (A) (A) (A) (A) (A) (A) (A)
                 (A) (A) (A) (A) (A) (A) (A) (A) (A) (A)
       Virtual   (A) (A) (A) (A) (A) (A) (A) (A) (A) (A) (A) (A)
                 (A) (A) (A) (A) (A) (A) (A) (A) (A) (A) (A) (A)
                 (A) (A) (A) (A) (A) (A) (A) (A) (A) (A) (A) (A)
                 (A) (A) (A) (A) (A) (A) (A) (A) (A) (A) (A) (A)
                 (A) (A) (A) (A) (A) (A) (A) (A) (A) (A) (A) (A)
                 (A) (A) (A) (A) (A) (A) (A) (A) (A) (A) (A) (A)
                 (A) (A) (A) (A) (A) (A) (A) (A) (A) (A) (A) (A)
                 (A) (A) (A) (A) (A) (A) (A) (A) (A) (A) (A) (A)
                 (A) (A) (A) (A) (A) (A) (A) (A) (A) (A) (A) (A)
                 (A) (A) (A) (A) (A) (A) (A) (A) (A) (A) (A) (A)
                 (A) (A) (A) (A) (A) (A) (A) (A) (A) (A) (A) (A)
                 (A) (A) (A) (A) (A) (A) (A) (A) (A) (A) (A) (A)
                 (A) (A) (A) (A) (A) (A) (A) (A) (A) (A) (A) (A)
                 (A) (A) (A) (A) (A) (A) (A) (A) (A) (A) (A) (A)
                 (A) (A) (A) (A) (A) (A) (A) (A) (A) (A) (A) (A)
                 (A) (A) (A) (A) (A) (A) (A) (A) (A) (A) (A) (A)
                 (A) (A) (A) (A) (A) (A) (A) (A) (A) (A) (A) (A)
                 (A) (A) (A) (A) (A) (A) (A) (A) (A) (A) (A) (A)
                 (A) (A) (A) (A) (A) (A) (A) (A) (A) (A) (A) (A)
                 (A) (A) (A) (A) (A) (A) (A) (A) (A) (A) (A) (A)
                 (A) (A) (A) (A) (A) (A) (A) (A) (A) (A) (A) (A)
                 (A) (A) (A) (A) (A) (A) (A) (A) (A) (A) (A) (A)
                 (A) (A) (A) (A) (A) (A) (A) (A) (A) (A) (A) (A)
                 (A) (A) (A) (A) (A) (A) (A) (A) (A) (A) (A) (A)
                 (A) (A) (A) (A) (A) (A) (A) (A) (A) (A) (A) (A)
                 (A) (A) (A) (A) (A) (A) (A) (A) (A) (A) (A) (A)
                 (A) (A) (A) (A) (A) (A) (A) (A) (A) (A) (A) (A)
                 (A) (A) (A) (A) (A) (A) (A) (A) (A) (A) (A) (A)
                 (A) (A) (A) (A) (A) (A) (A) (A) (A) (A) (A) (A)
                 (A) (A) (A) (A) (A) (A) (A) (A) (A) (A) (A) (A)
                 (A) (A) (A) (A) (A) (A) (A) (A) (A) (A) (A) (A)
                 (A) (A) (A) (A) (A) (A) (A) (A) (A) (A) (A) (A)
                 (A) (A) (A) (A) (A) (A) (A) (A) (A) (A) (A) (A)
                 (A) (A) (A) (A) (A) (A) (A) (A) (A) (A) (A) (A)
                 (A) (A) (A) (A) (A) (A) (A) (A) (A) (A) (A) (A)
                 (A) (A) (A) (A) (A) (A) (A) (A) (A) (A) (A) (A)
                 (A) (A) (A) (A) (A) (A) (A) (A) (A) (A) (A) (A)
                 (A) (A) (A) (A) (A) (A) (A) (A) (A) (A) (A) (A)
                 (A) (A) (A) (A) (A) (A) (A) (A) (A) (A) (A) (A)
                 (A) (A) (A) (A) (A) (A) (A) (A) (A) (A) (A) (A)
                 (A) (A) (A) (A) (A) (A) (A) (A) (A) (A) (A) (A)
                 (A) (A) (A) (A) (A) (A) (A) (A) (A) (A) (A) (A)
                 (A) (A) (A) (A) (A) (A) (A) (A) (A) (A) (A) (A)
                 (A) (A) (A) (A) (A) (A) (A) (A) (A) (A) (A) (A)
                 (A) (A) (A) (A) (A) (A) (A) (A) (A) (A) (A) (A)
                 (A) (A) (A) (A) (A) (A) (A) (A) (A) (A) (A) (A)
                 (A) (A) (A) (A) (A) (A) (A) (A) (A) (A) (A) (A)
                 (A) (A) (A) (A) (A) (A) (A) (A) (A) (A) (A) (A)
                 (A) (A) (A) (A) (A) (A) (A) (A) (A) (A) (A) (A)
                 (A) (A) (A) (A) (A) (A) (A) (A) (A) (A) (A) (A)
                 (A) (A) (A) (A) (A) (A) (A) (A) (A) (A) (A) (A)
                 (A) (A) (A) (A) (A) (A) (A) (A) (A) (A) (A) (A)
                 (A) (A) (A) (A) (A) (A) (A) (A) (A) (A) (A) (A)
                 (A) (A) (A) (A) (A) (A) (A) (A) (A) (A) (A) (A)
                 (A) (A) (A) (A) (A) (A) (A) (A) (A) (A) (A) (A)
                 (A) (A) (A) (A) (A) (A) (A) (A) (A) (A) (A) (A)
                 (A) (A) (A) (A) (A) (A) (A) (A) (A) (A) (A) (A)
                 (A) (A) (A) (A) (A) (A) (A) (A) (A) (A) (A) (A)
                 (A) (A) (A) (A) (A) (A) (A) (A) (A) (A) (A) (A)
                 (A) (A) (A) (A) (A) (A) (A) (A) (A) (A) (A) (A)
                 (A) (A) (A) (A) (A) (A) (A) (A) (A) (A) (A) (A)
                 (A) (A) (A) (A) (A) (A) (A) (A) (A) (A) (A) (A)
                 (A) (A) (A) (A) (A) (A) (A) (A) (A) (A) (A) (A)
                 (A) (A) (A) (A) (A) (A) (A) (A) (A) (A) (A) (A)
                 (A) (A) (A) (A) (A) (A) (A) (A) (A) (A) (A) (A)
                 (A) (A) (A) (A) (A) (A) (A) (A) (A) (A) (A) (A)
                 (A) (A) (A) (A) (A) (A) (A) (A) (A) (A) (A) (A)
                 (A) (A) (A) (A) (A) (A) (A) (A) (A) (A) (A) (A)
                 (A) (A) (A) (A) (A) (A) (A) (A) (A) (A) (A) (A)
                 (A) (A) (A) (A) (A) (A) (A) (A) (A) (A) (A) (A)
                 (A) (A) (A) (A) (A) (A) (A) (A) (A) (A) (A) (A)
                 (A) (A) (A) (A) (A) (A) (A) (A) (A) (A) (A) (A)
                 (A) (A) (A) (A) (A) (A) (A) (A) (A) (A) (A) (A)
                 (A) (A) (A) (A) (A) (A) (A) (A) (A) (A) (A) (A)
                 (A) (A) (A) (A) (A) (A) (A) (A) (A) (A) (A) (A)
                 (A) (A) (A) (A) (A) (A) (A) (A) (A) (A) (A) (A)
                 (A) (A) (A) (A) (A) (A) (A) (A) (A) (A) (A) (A)
                 (A) (A) (A) (A) (A) (A) (A) (A) (A) (A) (A) (A)
                 (A) (A) (A) (A) (A) (A) (A) (A) (A) (A) (A) (A)
                 (A) (A) (A) (A) (A) (A) (A) (A) (A) (A) (A) (A)
                 (A) (A) (A) (A) (A) (A) (A) (A) (A) (A) (A) (A)
                 (A) (A) (A) (A) (A) (A) (A) (A) (A) (A) (A) (A)
                 (A) (A) (A) (A) (A) (A) (A) (A) (A) (A) (A) (A)
                 (A) (A) (A) (A) (A) (A) (A) (A) (A) (A) (A) (A)
                 (A) (A) (A) (A) (A) (A) (A) (A) (A) (A) (A) (A)
                 (A) (A) (A) (A) (A) (A) (A) (A) (A) (A) (A) (A)
                 (A) (A) (A) (A) (A) (A) (A) (A) (A) (A) (A) (A)
                 (A) (A) (A) (A) (A) (A) (A) (A) (A) (A) (A) (A)
                 (A) (A) (A) (A) (A) (A) (A) (A) (A) (A) (A) (A)
                 (A) (A) (A) (A) (A) (A) (A) (A) (A) (A) (A) (A)
                 (A) (A) (A) (A) (A) (A) (A) (A) (A) (A) (A) (A)
                 (A) (A) (A) (A) (A) (A) (A) (A) (A) (A) (A) (A)
                 (A) (A) (A) (A) (A) (A) (A) (A) (A) (A) (A) (A)
                 (A) (A) (A) (A) (A) (A) (A) (A) (A) (A) (A) (A)
                 (A) (A) (A) (A) (A) (A) (A) (A) (A) (A) (A) (A)
                 (A) (A) (A) (A) (A) (A) (A) (A) (A) (A) (A) (A)
                 (A) (A) (A) (A) (A) (A) (A) (A) (A) (A) (A) (A)
                 (A) (A) (A) (A) (A) (A) (A) (A) (A) (A) (A) (A)
                 (A) (A) (A) (A) (A) (A) (A) (A) (A) (A) (A) (A)
                 (A) (A) (A) (A) (A) (A) (A) (A) (A) (A) (A) (A)
                 (A) (A) (A) (A) (A) (A) (A) (A) (A) (A) (A) (A)
                 (A) (A) (A) (A) (A) (A) (A) (A) (A) (A) (A) (A)
                 (A) (A) (A) (A) (A) (A) (A) (A) (A) (A) (A) (A)
                 (A) (A) (A) (A) (A) (A) (A) (A) (A) (A) (A) (A)
                 (A) (A) (A) (A) (A) (A) (A) (A) (A) (A) (A) (A)
                 (A) (A) (A) (A) (A) (A) (A) (A) (A) (A) (A) (A)
                 (A) (A) (A) (A) (A) (A) (A) (A) (A) (A) (A) (A)
                 (A) (A) (A) (A) (A) (A) (A) (A) (A) (A) (A) (A)
                 (A) (A) (A) (A) (A) (A) (A) (A) (A) (A) (A) (A)
                 (A) (A)
 The electronic state is 1-A.
 Alpha  occ. eigenvalues --  -10.23897 -10.23896 -10.23895 -10.23894 -10.23892
 Alpha  occ. eigenvalues --  -10.23889 -10.23887 -10.23886 -10.23884 -10.23884
 Alpha  occ. eigenvalues --  -10.23851 -10.23851 -10.23850 -10.23848 -10.23846
 Alpha  occ. eigenvalues --  -10.23815 -10.23815 -10.23815 -10.23814 -10.23814
 Alpha  occ. eigenvalues --  -10.23804 -10.23804 -10.23803 -10.23802 -10.23801
 Alpha  occ. eigenvalues --  -10.23775 -10.23775 -10.23775 -10.23774 -10.23773
 Alpha  occ. eigenvalues --  -10.23754 -10.23753 -10.23751 -10.23750 -10.23749
 Alpha  occ. eigenvalues --  -10.23724 -10.23722 -10.23721 -10.23715 -10.23715
 Alpha  occ. eigenvalues --  -10.23708 -10.23708 -10.23704 -10.23702 -10.23701
 Alpha  occ. eigenvalues --  -10.23640 -10.23640 -10.23640 -10.23638 -10.23635
 Alpha  occ. eigenvalues --  -10.23592 -10.23589 -10.23587 -10.23584 -10.23582
 Alpha  occ. eigenvalues --  -10.22864 -10.22862 -10.22862 -10.22861 -10.22861
 Alpha  occ. eigenvalues --  -10.22860 -10.22860 -10.22859 -10.22859 -10.22859
 Alpha  occ. eigenvalues --  -10.22726 -10.22726 -10.22725 -10.22724 -10.22724
 Alpha  occ. eigenvalues --  -10.22651 -10.22650 -10.22649 -10.22649 -10.22648
 Alpha  occ. eigenvalues --  -10.22106 -10.22076 -10.22074 -10.22020 -10.22018
 Alpha  occ. eigenvalues --   -0.95472  -0.93498  -0.93498  -0.92389  -0.91638
 Alpha  occ. eigenvalues --   -0.91636  -0.89335  -0.89335  -0.89130  -0.89130
 Alpha  occ. eigenvalues --   -0.87059  -0.86666  -0.86666  -0.85989  -0.85987
 Alpha  occ. eigenvalues --   -0.83696  -0.83654  -0.82790  -0.82790  -0.82494
 Alpha  occ. eigenvalues --   -0.82492  -0.80186  -0.80184  -0.79744  -0.78882
 Alpha  occ. eigenvalues --   -0.78881  -0.78665  -0.78663  -0.76479  -0.76477
 Alpha  occ. eigenvalues --   -0.75191  -0.75189  -0.75026  -0.75011  -0.74906
 Alpha  occ. eigenvalues --   -0.74906  -0.72342  -0.72340  -0.71151  -0.71150
 Alpha  occ. eigenvalues --   -0.67825  -0.67648  -0.67647  -0.66856  -0.66856
 Alpha  occ. eigenvalues --   -0.66630  -0.66627  -0.64825  -0.64394  -0.64258
 Alpha  occ. eigenvalues --   -0.64256  -0.62620  -0.62565  -0.62564  -0.62338
 Alpha  occ. eigenvalues --   -0.62338  -0.60307  -0.60306  -0.57861  -0.57736
 Alpha  occ. eigenvalues --   -0.57735  -0.56998  -0.56997  -0.56829  -0.55986
 Alpha  occ. eigenvalues --   -0.55985  -0.54474  -0.54473  -0.53414  -0.53413
 Alpha  occ. eigenvalues --   -0.53058  -0.52092  -0.52090  -0.51510  -0.51508
 Alpha  occ. eigenvalues --   -0.50872  -0.50871  -0.50414  -0.49516  -0.49516
 Alpha  occ. eigenvalues --   -0.47730  -0.47729  -0.47597  -0.47596  -0.47535
 Alpha  occ. eigenvalues --   -0.47028  -0.46563  -0.45961  -0.45960  -0.45871
 Alpha  occ. eigenvalues --   -0.45871  -0.45201  -0.44577  -0.44577  -0.44371
 Alpha  occ. eigenvalues --   -0.44371  -0.43928  -0.43927  -0.43371  -0.43368
 Alpha  occ. eigenvalues --   -0.43192  -0.43190  -0.43096  -0.42879  -0.42878
 Alpha  occ. eigenvalues --   -0.42703  -0.42436  -0.42220  -0.42218  -0.41251
 Alpha  occ. eigenvalues --   -0.41045  -0.41044  -0.40634  -0.40632  -0.40233
 Alpha  occ. eigenvalues --   -0.40233  -0.40226  -0.39722  -0.39576  -0.39572
 Alpha  occ. eigenvalues --   -0.39483  -0.39482  -0.38847  -0.38844  -0.38363
 Alpha  occ. eigenvalues --   -0.38361  -0.36982  -0.36980  -0.36578  -0.36575
 Alpha  occ. eigenvalues --   -0.36337  -0.36154  -0.36150  -0.35922  -0.35920
 Alpha  occ. eigenvalues --   -0.35274  -0.35269  -0.34942  -0.34118  -0.34117
 Alpha  occ. eigenvalues --   -0.33660  -0.32650  -0.32585  -0.31976  -0.31974
 Alpha  occ. eigenvalues --   -0.31772  -0.31770  -0.31506  -0.31505  -0.31071
 Alpha  occ. eigenvalues --   -0.31069  -0.28639  -0.28638  -0.28622  -0.27912
 Alpha  occ. eigenvalues --   -0.27912  -0.27423  -0.27421  -0.24856  -0.24855
 Alpha  occ. eigenvalues --   -0.24171  -0.24170  -0.23883  -0.23744  -0.23742
 Alpha  occ. eigenvalues --   -0.23127  -0.19076  -0.19073  -0.19037  -0.19033
 Alpha virt. eigenvalues --   -0.11551  -0.11550  -0.08811  -0.07467  -0.07460
 Alpha virt. eigenvalues --   -0.06272  -0.06267  -0.06203  -0.05009  -0.04589
 Alpha virt. eigenvalues --   -0.04584  -0.02733  -0.02497  -0.02497  -0.02280
 Alpha virt. eigenvalues --   -0.02279  -0.00944  -0.00943   0.02091   0.02092
 Alpha virt. eigenvalues --    0.02716   0.02719   0.03681   0.04120   0.04148
 Alpha virt. eigenvalues --    0.04149   0.04552   0.04553   0.05399   0.05400
 Alpha virt. eigenvalues --    0.05553   0.05553   0.06418   0.06418   0.07206
 Alpha virt. eigenvalues --    0.07515   0.07875   0.08321   0.08323   0.09005
 Alpha virt. eigenvalues --    0.09006   0.09895   0.09897   0.10651   0.10651
 Alpha virt. eigenvalues --    0.12469   0.12469   0.13099   0.13103   0.14393
 Alpha virt. eigenvalues --    0.14394   0.14624   0.14627   0.15499   0.15765
 Alpha virt. eigenvalues --    0.16286   0.17447   0.17448   0.18270   0.18272
 Alpha virt. eigenvalues --    0.18605   0.18609   0.18713   0.19103   0.19112
 Alpha virt. eigenvalues --    0.19564   0.19781   0.19782   0.20766   0.20773
 Alpha virt. eigenvalues --    0.21202   0.21205   0.21552   0.21561   0.21574
 Alpha virt. eigenvalues --    0.22383   0.22454   0.22457   0.23142   0.23540
 Alpha virt. eigenvalues --    0.23545   0.24211   0.24216   0.24512   0.24515
 Alpha virt. eigenvalues --    0.24892   0.25388   0.25391   0.25474   0.26179
 Alpha virt. eigenvalues --    0.26183   0.26364   0.26367   0.26390   0.26400
 Alpha virt. eigenvalues --    0.26586   0.27954   0.27956   0.28208   0.28217
 Alpha virt. eigenvalues --    0.28320   0.29535   0.29545   0.30685   0.30687
 Alpha virt. eigenvalues --    0.30773   0.30775   0.30893   0.32501   0.32501
 Alpha virt. eigenvalues --    0.33792   0.33798   0.33926   0.33983   0.34357
 Alpha virt. eigenvalues --    0.34366   0.34979   0.34990   0.35106   0.35662
 Alpha virt. eigenvalues --    0.35772   0.35777   0.35882   0.35884   0.36175
 Alpha virt. eigenvalues --    0.36182   0.36313   0.36326   0.36629   0.36939
 Alpha virt. eigenvalues --    0.37086   0.37092   0.37907   0.37922   0.37957
 Alpha virt. eigenvalues --    0.37963   0.38010   0.38041   0.38044   0.38052
 Alpha virt. eigenvalues --    0.38059   0.38806   0.38842   0.38935   0.39069
 Alpha virt. eigenvalues --    0.39073   0.39290   0.39438   0.39439   0.39879
 Alpha virt. eigenvalues --    0.39905   0.40117   0.40457   0.40457   0.40644
 Alpha virt. eigenvalues --    0.40659   0.40894   0.40899   0.40923   0.41365
 Alpha virt. eigenvalues --    0.41368   0.41754   0.42121   0.42131   0.42192
 Alpha virt. eigenvalues --    0.42289   0.42306   0.42320   0.42340   0.42351
 Alpha virt. eigenvalues --    0.42362   0.42379   0.42499   0.42503   0.43007
 Alpha virt. eigenvalues --    0.43031   0.43090   0.43099   0.43434   0.43437
 Alpha virt. eigenvalues --    0.43812   0.43947   0.43952   0.44176   0.44183
 Alpha virt. eigenvalues --    0.44231   0.44258   0.44744   0.44747   0.44785
 Alpha virt. eigenvalues --    0.45134   0.45141   0.45157   0.45230   0.45232
 Alpha virt. eigenvalues --    0.45518   0.45536   0.45632   0.45852   0.45857
 Alpha virt. eigenvalues --    0.46027   0.46037   0.46374   0.46621   0.46640
 Alpha virt. eigenvalues --    0.46820   0.47046   0.47064   0.47525   0.47529
 Alpha virt. eigenvalues --    0.47770   0.47784   0.47800   0.47820   0.48088
 Alpha virt. eigenvalues --    0.48347   0.48367   0.48495   0.48506   0.48762
 Alpha virt. eigenvalues --    0.48782   0.48913   0.48939   0.49431   0.49446
 Alpha virt. eigenvalues --    0.49500   0.49759   0.50901   0.50975   0.51091
 Alpha virt. eigenvalues --    0.51092   0.51329   0.51741   0.51758   0.51949
 Alpha virt. eigenvalues --    0.51996   0.52691   0.52757   0.53115   0.53129
 Alpha virt. eigenvalues --    0.53163   0.53841   0.54300   0.54542   0.54579
 Alpha virt. eigenvalues --    0.54991   0.54994   0.55476   0.55503   0.55635
 Alpha virt. eigenvalues --    0.55643   0.56459   0.56488   0.57063   0.57114
 Alpha virt. eigenvalues --    0.57261   0.57304   0.57930   0.57991   0.58149
 Alpha virt. eigenvalues --    0.58155   0.58790   0.58800   0.59406   0.59629
 Alpha virt. eigenvalues --    0.59657   0.59706   0.59709   0.60471   0.60501
 Alpha virt. eigenvalues --    0.60972   0.61247   0.61253   0.61955   0.61981
 Alpha virt. eigenvalues --    0.61997   0.62022   0.62112   0.62627   0.62708
 Alpha virt. eigenvalues --    0.62774   0.62797   0.62803   0.62835   0.62862
 Alpha virt. eigenvalues --    0.64696   0.64712   0.64781   0.65000   0.65021
 Alpha virt. eigenvalues --    0.65420   0.65425   0.65665   0.65936   0.65946
 Alpha virt. eigenvalues --    0.66340   0.67768   0.67786   0.67795   0.67821
 Alpha virt. eigenvalues --    0.68125   0.68712   0.68739   0.69016   0.69158
 Alpha virt. eigenvalues --    0.69318   0.69362   0.69816   0.70270   0.70389
 Alpha virt. eigenvalues --    0.70897   0.70900   0.71621   0.71689   0.71939
 Alpha virt. eigenvalues --    0.71962   0.72209   0.72351   0.72776   0.73031
 Alpha virt. eigenvalues --    0.73304   0.73320   0.73333   0.73348   0.74037
 Alpha virt. eigenvalues --    0.74084   0.75116   0.75125   0.75307   0.75365
 Alpha virt. eigenvalues --    0.75371   0.76358   0.76479   0.76553   0.76733
 Alpha virt. eigenvalues --    0.76767   0.77069   0.77150   0.77189   0.77984
 Alpha virt. eigenvalues --    0.78006   0.78068   0.78130   0.78272   0.78534
 Alpha virt. eigenvalues --    0.78560   0.79526   0.79596   0.80604   0.80914
 Alpha virt. eigenvalues --    0.80924   0.80975   0.80997   0.81475   0.81521
 Alpha virt. eigenvalues --    0.82162   0.82165   0.82176   0.82527   0.82640
 Alpha virt. eigenvalues --    0.82772   0.82865   0.82925   0.82962   0.84011
 Alpha virt. eigenvalues --    0.84029   0.84190   0.84214   0.84987   0.85067
 Alpha virt. eigenvalues --    0.85091   0.85102   0.85249   0.85418   0.85715
 Alpha virt. eigenvalues --    0.85753   0.86558   0.86573   0.87101   0.87126
 Alpha virt. eigenvalues --    0.87349   0.87640   0.87769   0.87794   0.88005
 Alpha virt. eigenvalues --    0.88101   0.89063   0.89132   0.89295   0.89610
 Alpha virt. eigenvalues --    0.89621   0.90452   0.90496   0.90599   0.90605
 Alpha virt. eigenvalues --    0.91532   0.91690   0.91858   0.91904   0.92405
 Alpha virt. eigenvalues --    0.92528   0.93255   0.93273   0.93898   0.93956
 Alpha virt. eigenvalues --    0.94283   0.94327   0.95196   0.95339   0.95460
 Alpha virt. eigenvalues --    0.95583   0.95642   0.95692   0.95694   0.96618
 Alpha virt. eigenvalues --    0.96849   0.96853   0.96874   0.98504   0.98529
 Alpha virt. eigenvalues --    0.98744   0.98912   0.98919   0.98953   0.99016
 Alpha virt. eigenvalues --    0.99889   0.99908   1.00139   1.00290   1.00406
 Alpha virt. eigenvalues --    1.00476   1.01092   1.01126   1.01453   1.01543
 Alpha virt. eigenvalues --    1.01586   1.01598   1.02935   1.02966   1.03009
 Alpha virt. eigenvalues --    1.03042   1.03566   1.03578   1.03685   1.04282
 Alpha virt. eigenvalues --    1.04307   1.04993   1.05314   1.05339   1.05582
 Alpha virt. eigenvalues --    1.05642   1.06027   1.06066   1.06113   1.06134
 Alpha virt. eigenvalues --    1.06607   1.07142   1.07149   1.07592   1.07610
 Alpha virt. eigenvalues --    1.07940   1.08225   1.08403   1.08408   1.08626
 Alpha virt. eigenvalues --    1.08648   1.10727   1.10747   1.10882   1.10974
 Alpha virt. eigenvalues --    1.12300   1.12302   1.12882   1.13732   1.13743
 Alpha virt. eigenvalues --    1.14360   1.14407   1.15135   1.15644   1.15686
 Alpha virt. eigenvalues --    1.16552   1.16564   1.17088   1.17102   1.17591
 Alpha virt. eigenvalues --    1.18114   1.18345   1.18414   1.18441   1.18946
 Alpha virt. eigenvalues --    1.18959   1.19594   1.19657   1.20410   1.20582
 Alpha virt. eigenvalues --    1.20622   1.21322   1.21346   1.21773   1.23363
 Alpha virt. eigenvalues --    1.23552   1.23754   1.23878   1.23909   1.24000
 Alpha virt. eigenvalues --    1.24023   1.25908   1.25921   1.26238   1.26342
 Alpha virt. eigenvalues --    1.26490   1.26951   1.27076   1.27126   1.27368
 Alpha virt. eigenvalues --    1.27405   1.28563   1.28592   1.28758   1.28831
 Alpha virt. eigenvalues --    1.29142   1.29329   1.29343   1.29826   1.30183
 Alpha virt. eigenvalues --    1.30202   1.32002   1.32139   1.32167   1.32555
 Alpha virt. eigenvalues --    1.32600   1.32623   1.32817   1.32874   1.32949
 Alpha virt. eigenvalues --    1.34714   1.34834   1.34870   1.34893   1.34977
 Alpha virt. eigenvalues --    1.35047   1.35815   1.35977   1.36144   1.36263
 Alpha virt. eigenvalues --    1.38190   1.38245   1.38595   1.38630   1.39015
 Alpha virt. eigenvalues --    1.39101   1.39142   1.39527   1.39551   1.40238
 Alpha virt. eigenvalues --    1.40301   1.41389   1.41435   1.41487   1.41512
 Alpha virt. eigenvalues --    1.41676   1.41746   1.41916   1.41968   1.42010
 Alpha virt. eigenvalues --    1.42312   1.42360   1.42433   1.42859   1.43007
 Alpha virt. eigenvalues --    1.43029   1.43119   1.43804   1.43823   1.43987
 Alpha virt. eigenvalues --    1.44159   1.44297   1.44596   1.44685   1.45685
 Alpha virt. eigenvalues --    1.45749   1.46336   1.46365   1.47150   1.47170
 Alpha virt. eigenvalues --    1.47625   1.47691   1.47716   1.48063   1.48166
 Alpha virt. eigenvalues --    1.48199   1.48742   1.48788   1.49807   1.50290
 Alpha virt. eigenvalues --    1.50346   1.50404   1.50447   1.50467   1.50989
 Alpha virt. eigenvalues --    1.51009   1.51440   1.51631   1.51658   1.52190
 Alpha virt. eigenvalues --    1.52213   1.52235   1.52247   1.52560   1.52592
 Alpha virt. eigenvalues --    1.52831   1.53021   1.53819   1.53837   1.54399
 Alpha virt. eigenvalues --    1.54472   1.54488   1.54958   1.55271   1.55302
 Alpha virt. eigenvalues --    1.55323   1.55373   1.56415   1.56431   1.57313
 Alpha virt. eigenvalues --    1.57374   1.57968   1.58063   1.58159   1.58397
 Alpha virt. eigenvalues --    1.58455   1.58932   1.59132   1.59674   1.59708
 Alpha virt. eigenvalues --    1.59738   1.59885   1.59907   1.60731   1.60780
 Alpha virt. eigenvalues --    1.60810   1.62315   1.62326   1.62459   1.62582
 Alpha virt. eigenvalues --    1.62641   1.63414   1.63662   1.63841   1.64063
 Alpha virt. eigenvalues --    1.64118   1.64130   1.65197   1.65268   1.65989
 Alpha virt. eigenvalues --    1.66227   1.66266   1.66468   1.67300   1.67428
 Alpha virt. eigenvalues --    1.68841   1.68939   1.69433   1.70268   1.70922
 Alpha virt. eigenvalues --    1.70949   1.70980   1.72081   1.72121   1.72880
 Alpha virt. eigenvalues --    1.72884   1.73140   1.73845   1.73924   1.73927
 Alpha virt. eigenvalues --    1.74086   1.74819   1.74939   1.74969   1.75194
 Alpha virt. eigenvalues --    1.75207   1.75498   1.75717   1.75796   1.76894
 Alpha virt. eigenvalues --    1.76908   1.77954   1.78009   1.78208   1.78658
 Alpha virt. eigenvalues --    1.78720   1.79559   1.79573   1.80029   1.80128
 Alpha virt. eigenvalues --    1.80259   1.80300   1.80604   1.81157   1.81360
 Alpha virt. eigenvalues --    1.81648   1.81677   1.82391   1.82518   1.82561
 Alpha virt. eigenvalues --    1.83352   1.83378   1.83453   1.83667   1.83820
 Alpha virt. eigenvalues --    1.84603   1.84641   1.84708   1.84875   1.84948
 Alpha virt. eigenvalues --    1.85574   1.85854   1.85886   1.85994   1.86103
 Alpha virt. eigenvalues --    1.86302   1.86426   1.86462   1.86551   1.86765
 Alpha virt. eigenvalues --    1.86782   1.86971   1.87812   1.88006   1.88051
 Alpha virt. eigenvalues --    1.88346   1.88463   1.88753   1.88923   1.88998
 Alpha virt. eigenvalues --    1.89098   1.89274   1.89325   1.90253   1.90527
 Alpha virt. eigenvalues --    1.90636   1.90756   1.91960   1.91977   1.92017
 Alpha virt. eigenvalues --    1.92771   1.92825   1.92945   1.92996   1.93196
 Alpha virt. eigenvalues --    1.93825   1.94240   1.94280   1.95101   1.95138
 Alpha virt. eigenvalues --    1.95214   1.95259   1.95438   1.95507   1.96299
 Alpha virt. eigenvalues --    1.96561   1.97123   1.97138   1.97277   1.97361
 Alpha virt. eigenvalues --    1.97784   1.97879   1.98410   1.98832   1.98972
 Alpha virt. eigenvalues --    1.99088   1.99143   2.00215   2.00249   2.01307
 Alpha virt. eigenvalues --    2.01384   2.02306   2.02346   2.03392   2.03681
 Alpha virt. eigenvalues --    2.03966   2.04983   2.05234   2.05418   2.05479
 Alpha virt. eigenvalues --    2.05686   2.06095   2.06426   2.06484   2.06723
 Alpha virt. eigenvalues --    2.06776   2.08990   2.09057   2.09698   2.09781
 Alpha virt. eigenvalues --    2.09923   2.10565   2.10740   2.10845   2.11366
 Alpha virt. eigenvalues --    2.11460   2.12333   2.12340   2.12589   2.13297
 Alpha virt. eigenvalues --    2.13339   2.14446   2.14466   2.14636   2.14663
 Alpha virt. eigenvalues --    2.15204   2.15298   2.15749   2.15802   2.15973
 Alpha virt. eigenvalues --    2.17215   2.17234   2.18426   2.18718   2.18726
 Alpha virt. eigenvalues --    2.18846   2.18861   2.19600   2.20742   2.20821
 Alpha virt. eigenvalues --    2.21541   2.21578   2.23217   2.23313   2.23533
 Alpha virt. eigenvalues --    2.23690   2.23755   2.23806   2.23843   2.23872
 Alpha virt. eigenvalues --    2.25552   2.26387   2.26456   2.26938   2.27064
 Alpha virt. eigenvalues --    2.28376   2.28497   2.28804   2.28932   2.28989
 Alpha virt. eigenvalues --    2.29065   2.29112   2.29474   2.30697   2.30705
 Alpha virt. eigenvalues --    2.31119   2.31165   2.32453   2.32522   2.32537
 Alpha virt. eigenvalues --    2.32619   2.33145   2.34970   2.35185   2.35220
 Alpha virt. eigenvalues --    2.36339   2.36402   2.38236   2.38357   2.38555
 Alpha virt. eigenvalues --    2.38604   2.39152   2.39162   2.39241   2.39260
 Alpha virt. eigenvalues --    2.40226   2.40771   2.40912   2.40934   2.42707
 Alpha virt. eigenvalues --    2.42711   2.43118   2.43214   2.44623   2.44639
 Alpha virt. eigenvalues --    2.44738   2.44749   2.45378   2.47658   2.47842
 Alpha virt. eigenvalues --    2.47858   2.48410   2.48440   2.49855   2.49934
 Alpha virt. eigenvalues --    2.50448   2.50601   2.50967   2.50989   2.52199
 Alpha virt. eigenvalues --    2.52290   2.52478   2.53089   2.53131   2.53743
 Alpha virt. eigenvalues --    2.53750   2.53976   2.53984   2.54908   2.55043
 Alpha virt. eigenvalues --    2.55380   2.55993   2.56001   2.56946   2.56993
 Alpha virt. eigenvalues --    2.57314   2.57332   2.57423   2.58706   2.58716
 Alpha virt. eigenvalues --    2.58793   2.58819   2.58839   2.60149   2.60179
 Alpha virt. eigenvalues --    2.60777   2.60835   2.60857   2.60973   2.61011
 Alpha virt. eigenvalues --    2.61368   2.61385   2.61715   2.62862   2.62937
 Alpha virt. eigenvalues --    2.63292   2.63334   2.63552   2.64410   2.64420
 Alpha virt. eigenvalues --    2.64812   2.64825   2.65278   2.65557   2.65735
 Alpha virt. eigenvalues --    2.65745   2.65907   2.66250   2.66631   2.66669
 Alpha virt. eigenvalues --    2.66692   2.67324   2.67876   2.67880   2.68837
 Alpha virt. eigenvalues --    2.69066   2.69069   2.69466   2.69553   2.69843
 Alpha virt. eigenvalues --    2.69965   2.70310   2.70340   2.71440   2.71505
 Alpha virt. eigenvalues --    2.73291   2.73308   2.73507   2.73740   2.73796
 Alpha virt. eigenvalues --    2.73850   2.73989   2.75400   2.75475   2.76162
 Alpha virt. eigenvalues --    2.77479   2.77554   2.77591   2.77962   2.79367
 Alpha virt. eigenvalues --    2.79416   2.79611   2.79614   2.80668   2.81217
 Alpha virt. eigenvalues --    2.81236   2.81870   2.81930   2.82878   2.82883
 Alpha virt. eigenvalues --    2.83119   2.83255   2.83514   2.83577   2.84565
 Alpha virt. eigenvalues --    2.84692   2.84791   2.84968   2.85394   2.85984
 Alpha virt. eigenvalues --    2.85993   2.86500   2.86531   2.87112   2.87288
 Alpha virt. eigenvalues --    2.88654   2.88762   2.88810   2.90655   2.90696
 Alpha virt. eigenvalues --    2.92309   2.92536   2.92936   2.93062   2.93986
 Alpha virt. eigenvalues --    2.94806   2.94812   2.98253   2.98331   2.98408
 Alpha virt. eigenvalues --    2.99957   2.99977   3.00072   3.00116   3.00533
 Alpha virt. eigenvalues --    3.01083   3.01115   3.01163   3.03909   3.03950
 Alpha virt. eigenvalues --    3.04343   3.04504   3.04652   3.05329   3.06164
 Alpha virt. eigenvalues --    3.06185   3.08131   3.08139   3.08353   3.08379
 Alpha virt. eigenvalues --    3.10162   3.10207   3.10272   3.11505   3.11570
 Alpha virt. eigenvalues --    3.13960   3.13977   3.14001   3.14155   3.14204
 Alpha virt. eigenvalues --    3.14243   3.14511   3.14790   3.14848   3.15604
 Alpha virt. eigenvalues --    3.15795   3.16883   3.16896   3.17335   3.18047
 Alpha virt. eigenvalues --    3.18054   3.18489   3.18516   3.18524   3.18550
 Alpha virt. eigenvalues --    3.19090   3.19356   3.19387   3.19432   3.19518
 Alpha virt. eigenvalues --    3.20205   3.20241   3.20481   3.20487   3.21081
 Alpha virt. eigenvalues --    3.21542   3.22084   3.22115   3.22356   3.22376
 Alpha virt. eigenvalues --    3.23823   3.23843   3.24981   3.25011   3.25051
 Alpha virt. eigenvalues --    3.25095   3.26610   3.26750   3.26755   3.27310
 Alpha virt. eigenvalues --    3.29049   3.29334   3.29361   3.29874   3.29908
 Alpha virt. eigenvalues --    3.31838   3.31845   3.34997   3.35033   3.35977
 Alpha virt. eigenvalues --    3.35991   3.36947   3.37250   3.37367   3.37396
 Alpha virt. eigenvalues --    3.37493   3.37502   3.38127   3.38268   3.39765
 Alpha virt. eigenvalues --    3.40108   3.40136   3.40851   3.40871   3.41474
 Alpha virt. eigenvalues --    3.42035   3.42043   3.42739   3.43813   3.43823
 Alpha virt. eigenvalues --    3.44287   3.45260   3.45279   3.45955   3.45968
 Alpha virt. eigenvalues --    3.48358   3.48406   3.48455   3.48526   3.51142
 Alpha virt. eigenvalues --    3.51207   3.51266   3.51326   3.51350   3.51395
 Alpha virt. eigenvalues --    3.52307   3.52532   3.52657   3.53350   3.53363
 Alpha virt. eigenvalues --    3.55864   3.55890   3.55958   3.56000   3.58050
 Alpha virt. eigenvalues --    3.58053   3.58084   3.58236   3.58428   3.60012
 Alpha virt. eigenvalues --    3.61936   3.61945   3.62872   3.63015   3.63941
 Alpha virt. eigenvalues --    3.65616   3.65624   3.66829   3.66856   3.69116
 Alpha virt. eigenvalues --    3.72945   3.73032   3.73429   3.77157   3.77212
 Alpha virt. eigenvalues --    3.82454   3.82552   3.82606   3.82629   3.85959
 Alpha virt. eigenvalues --    3.87675   3.88569   3.88585   3.91187   3.91201
 Alpha virt. eigenvalues --    3.92439   3.92453   3.93084   3.93153   3.97960
 Alpha virt. eigenvalues --    4.03430   4.03475   4.07203   4.07216   4.08504
 Alpha virt. eigenvalues --    4.08576   4.08656   4.09934   4.09949   4.18858
 Alpha virt. eigenvalues --    4.18873   4.20980   4.20993   4.22991   4.24553
 Alpha virt. eigenvalues --    4.28358   4.28386   4.33257   4.34215   4.34239
 Alpha virt. eigenvalues --    4.43642   4.43663   4.51440   4.51628   4.51666
 Alpha virt. eigenvalues --    4.67593   4.67638   4.75470   4.75498   4.75738
 Alpha virt. eigenvalues --    4.78220   4.78245   4.78686   4.80461   4.80481
 Alpha virt. eigenvalues --    4.80519   4.80619   4.82118   4.82231   4.82991
 Alpha virt. eigenvalues --    4.83094   4.83108   4.83954   4.85574   4.85600
 Alpha virt. eigenvalues --    4.85646   4.85695   4.89105   4.95104   4.95719
 Alpha virt. eigenvalues --    4.97342   4.97569   5.00262   5.00344   5.04987
 Alpha virt. eigenvalues --   23.19712  23.37688  23.37726  23.55958  23.56607
 Alpha virt. eigenvalues --   23.56617  23.71212  23.71232  23.71547  23.71550
 Alpha virt. eigenvalues --   23.80867  23.81414  23.81432  23.81531  23.81539
 Alpha virt. eigenvalues --   23.87799  23.88307  23.88322  23.89593  23.89781
 Alpha virt. eigenvalues --   23.89793  23.92427  23.92454  23.93300  23.93302
 Alpha virt. eigenvalues --   23.95242  23.95255  23.95660  23.96485  23.96489
 Alpha virt. eigenvalues --   23.97269  23.99430  24.00128  24.00151  24.00259
 Alpha virt. eigenvalues --   24.00266  24.01474  24.01519  24.03547  24.03558
 Alpha virt. eigenvalues --   24.03879  24.05019  24.05027  24.06024  24.06034
 Alpha virt. eigenvalues --   24.06079  24.06096  24.06793  24.06810  24.07382
 Alpha virt. eigenvalues --   24.07591  24.08347  24.08371  24.09008  24.09038
 Alpha virt. eigenvalues --   24.11391  24.12196  24.12219  24.12448  24.12467
 Alpha virt. eigenvalues --   24.12634  24.16732  24.16739  24.16828  24.16885
 Alpha virt. eigenvalues --   24.16887  24.17365  24.17371  24.17372  24.17380
 Alpha virt. eigenvalues --   24.17528  24.20388  24.20466  24.21120  24.21141
 Alpha virt. eigenvalues --   24.26219  24.26229  24.26240  24.26402  24.26410
          Condensed to atoms (all electrons):
 Mulliken charges:
               1
     1  C   -0.060364
     2  C   -0.051034
     3  C   -0.071587
     4  C   -0.040834
     5  C   -0.064444
     6  C    0.111015
     7  C   -0.011787
     8  C   -0.012044
     9  C    0.088929
    10  C    0.012654
    11  C   -0.044189
    12  C    0.131607
    13  C    0.042862
    14  C    0.045238
    15  C   -0.056559
    16  C    0.050647
    17  C   -0.050878
    18  C    0.107237
    19  C    0.008501
    20  C   -0.039150
    21  C    0.055710
    22  C   -0.104922
    23  C    0.033968
    24  C   -0.045441
    25  C    0.079296
    26  C   -0.131847
    27  C    0.084663
    28  C    0.000634
    29  C   -0.060522
    30  C   -0.006073
    31  C    0.081187
    32  C   -0.111911
    33  C    0.030655
    34  C    0.077285
    35  C   -0.119970
    36  C    0.052684
    37  C   -0.057390
    38  C   -0.066136
    39  C   -0.078982
    40  C   -0.084365
    41  C   -0.031498
    42  C   -0.025466
    43  C   -0.088188
    44  C   -0.040664
    45  C   -0.082141
    46  C   -0.006198
    47  C   -0.060661
    48  C    0.018179
    49  C   -0.059272
    50  C   -0.011959
    51  C   -0.063319
    52  C   -0.062890
    53  C   -0.009086
    54  C   -0.060655
    55  C    0.021701
    56  C   -0.062452
    57  C   -0.002082
    58  C   -0.064095
    59  C   -0.062150
    60  C   -0.014070
    61  C   -0.058119
    62  C    0.018547
    63  C   -0.062400
    64  C   -0.000671
    65  C   -0.064212
    66  C   -0.061511
    67  C   -0.018252
    68  C   -0.054217
    69  C    0.003784
    70  C   -0.055279
    71  C   -0.016020
    72  C   -0.061818
    73  C   -0.064263
    74  C   -0.002381
    75  C   -0.062216
    76  C    0.023712
    77  C   -0.062401
    78  C   -0.003842
    79  C   -0.062391
    80  C   -0.063942
    81  H    0.082456
    82  H    0.094477
    83  H    0.094510
    84  H    0.082727
    85  H    0.082793
    86  H    0.094540
    87  H    0.094488
    88  H    0.082298
    89  H    0.082250
    90  H    0.094458
    91  H    0.094570
    92  H    0.082778
    93  H    0.082427
    94  H    0.094444
    95  H    0.094492
    96  H    0.082757
    97  H    0.082556
    98  H    0.094454
    99  H    0.094472
   100  H    0.082570
 Sum of Mulliken charges =   0.00000
 Mulliken charges with hydrogens summed into heavy atoms:
               1
     1  C   -0.060364
     2  C   -0.051034
     3  C   -0.071587
     4  C   -0.040834
     5  C   -0.064444
     6  C    0.111015
     7  C   -0.011787
     8  C   -0.012044
     9  C    0.088929
    10  C    0.012654
    11  C   -0.044189
    12  C    0.131607
    13  C    0.042862
    14  C    0.045238
    15  C   -0.056559
    16  C    0.050647
    17  C   -0.050878
    18  C    0.107237
    19  C    0.008501
    20  C   -0.039150
    21  C    0.055710
    22  C   -0.104922
    23  C    0.033968
    24  C   -0.045441
    25  C    0.079296
    26  C   -0.131847
    27  C    0.084663
    28  C    0.000634
    29  C   -0.060522
    30  C   -0.006073
    31  C    0.081187
    32  C   -0.111911
    33  C    0.030655
    34  C    0.077285
    35  C   -0.119970
    36  C    0.052684
    37  C   -0.057390
    38  C   -0.066136
    39  C   -0.078982
    40  C   -0.084365
    41  C   -0.031498
    42  C   -0.025466
    43  C   -0.088188
    44  C   -0.040664
    45  C   -0.082141
    46  C   -0.006198
    47  C    0.021909
    48  C    0.018179
    49  C    0.023184
    50  C   -0.011959
    51  C    0.031153
    52  C    0.031564
    53  C   -0.009086
    54  C    0.021901
    55  C    0.021701
    56  C    0.020304
    57  C   -0.002082
    58  C    0.030397
    59  C    0.032294
    60  C   -0.014070
    61  C    0.024308
    62  C    0.018547
    63  C    0.020378
    64  C   -0.000671
    65  C    0.030359
    66  C    0.032947
    67  C   -0.018252
    68  C    0.028032
    69  C    0.003784
    70  C    0.027019
    71  C   -0.016020
    72  C    0.032670
    73  C    0.030277
    74  C   -0.002381
    75  C    0.020577
    76  C    0.023712
    77  C    0.020326
    78  C   -0.003842
    79  C    0.032086
    80  C    0.030568
 Electronic spatial extent (au):  <R**2>=          55770.3354
 Charge=              0.0000 electrons
 Dipole moment (field-independent basis, Debye):
    X=              0.0037    Y=              0.0033    Z=             -7.2464  Tot=              7.2464
 Quadrupole moment (field-independent basis, Debye-Ang):
   XX=           -386.3373   YY=           -386.3477   ZZ=           -447.2674
   XY=             -0.0129   XZ=              0.0052   YZ=             -0.0083
 Traceless Quadrupole moment (field-independent basis, Debye-Ang):
   XX=             20.3135   YY=             20.3031   ZZ=            -40.6166
   XY=             -0.0129   XZ=              0.0052   YZ=             -0.0083
 Octapole moment (field-independent basis, Debye-Ang**2):
  XXX=              0.4288  YYY=              0.1622  ZZZ=            -47.2905  XYY=             -0.0981
  XXY=              0.0719  XXZ=           -291.3110  XZZ=             -0.0364  YZZ=              0.0077
  YYZ=           -291.2628  XYZ=             -0.0327
 Hexadecapole moment (field-independent basis, Debye-Ang**3):
 XXXX=         -34869.7482 YYYY=         -34862.4349 ZZZZ=          -4198.8645 XXXY=             -0.1568
 XXXZ=              0.3194 YYYX=             -1.6383 YYYZ=             -0.2194 ZZZX=              0.0867
 ZZZY=              0.0264 XXYY=         -11622.9680 XXZZ=          -6877.5015 YYZZ=          -6876.2077
 XXYZ=             -0.1624 YYXZ=             -0.0115 ZZXY=              0.1930
 N-N= 1.203606167474D+04 E-N=-3.117212482373D+04  KE= 3.045712924364D+03
 1\1\GINC-CARES005\SP\RHSEH1PBE TD-FC\6-311G(d,p)\C80H20\AM2145\06-Dec-
 2017\0\\#n HSEH1PBE/6-311G(d,p) TD(Root=1)\\1b\\0,1\C,0,-0.17762,1.195
 5,2.46505\C,0,1.08206,0.53839,2.46533\C,0,0.8461,-0.86266,2.46478\C,0,
 -0.55921,-1.07151,2.46531\C,0,-1.19186,0.20063,2.46533\C,0,-0.35695,2.
 40318,1.80349\C,0,0.80004,3.0726,1.29197\C,0,2.06295,2.41368,1.29161\C
 ,0,2.17571,1.08216,1.80396\C,0,3.17068,0.18885,1.29363\C,0,2.93317,-1.
 21559,1.29173\C,0,1.7014,-1.7344,1.80346\C,0,-1.12381,-2.15354,1.80276
 \C,0,-0.25007,-3.16578,1.29259\C,0,1.15864,-2.95513,1.29028\C,0,-2.454
 65,-2.01656,1.29398\C,0,-3.08749,-0.74042,1.29172\C,0,-2.3963,0.40324,
 1.80419\C,0,-2.67604,1.71065,1.29315\C,0,-1.65818,2.70707,1.2908\C,0,3
 .14247,2.94596,0.53376\C,0,4.2704,2.12391,0.22878\C,0,4.245,0.72834,0.
 53341\C,0,5.18508,-0.1499,-0.06232\C,0,3.77332,-2.07772,0.53422\C,0,3.
 33894,-3.40374,0.22705\C,0,2.0046,-3.81197,0.53335\C,0,-0.80993,-4.228
 13,0.5307\C,0,-2.20615,-4.2283,0.22874\C,0,-3.00495,-3.08286,0.53025\C
 ,0,-4.27483,-0.53671,0.53578\C,0,-4.70327,0.79142,0.22917\C,0,-3.86177
 ,1.9052,0.53217\C,0,-1.83121,3.89873,0.53408\C,0,-0.70043,4.71663,0.22
 808\C,0,0.61896,4.26153,0.5328\C,0,1.74446,4.88332,-0.06439\C,0,3.0077
 4,4.224,-0.06504\C,0,4.94707,-1.55472,-0.06484\C,0,1.45899,-4.97531,-0
 .06569\C,0,0.04982,-5.1863,-0.06316\C,0,-4.28279,-2.92584,-0.06314\C,0
 ,-4.91597,-1.64942,-0.06502\C,0,-4.1063,3.16848,-0.06323\C,0,-3.08778,
 4.16499,-0.06604\C,0,4.11537,4.7761,-0.79396\C,0,5.25759,4.00681,-0.98
 666\C,0,5.33588,2.65389,-0.55889\C,0,6.36825,1.77544,-0.98552\C,0,6.29
 298,0.40045,-0.79236\C,0,3.94174,6.08661,-1.37891\C,0,2.73769,6.71471,
 -1.37883\C,0,1.56342,6.10734,-0.79392\C,0,0.27893,6.60427,-0.98622\C,0
 ,-0.87541,5.89428,-0.5587\C,0,-2.1864,6.23816,-0.98618\C,0,-3.27105,5.
 38953,-0.79379\C,0,-4.57115,5.6295,-1.37855\C,0,-5.54059,4.67855,-1.37
 865\C,0,-5.32569,3.37405,-0.79393\C,0,-6.19528,2.30611,-0.98608\C,0,-5
 .87684,0.9889,-0.55844\C,0,-6.60959,-0.15163,-0.9847\C,0,-6.13768,-1.4
 4529,-0.79202\C,0,-6.76739,-2.60735,-1.37752\C,0,-6.16202,-3.82288,-1.
 37911\C,0,-4.85469,-4.02147,-0.79504\C,0,-4.10737,-5.17818,-0.98798\C,
 0,-2.75609,-5.28243,-0.56055\C,0,-1.89795,-6.33186,-0.98668\C,0,-0.521
 83,-6.2835,-0.79273\C,0,0.38904,-7.24262,-1.37603\C,0,1.73227,-7.04295
 ,-1.37638\C,0,2.32518,-5.86061,-0.79308\C,0,3.65599,-5.50697,-0.98683\
 C,0,4.17235,-4.25355,-0.56019\C,0,5.43516,-3.76129,-0.98719\C,0,5.8144
 3,-2.43752,-0.79367\C,0,7.2334,-0.52857,-1.37748\C,0,7.00754,-1.86767,
 -1.37819\H,0,7.19146,2.18226,-1.56489\H,0,8.1147,-0.12694,-1.86668\H,0
 ,7.7087,-2.53567,-1.86751\H,0,6.08017,-4.41563,-1.56569\H,0,4.29782,-6
 .16467,-1.56501\H,0,2.38653,-7.7575,-1.86494\H,0,-0.02937,-8.11658,-1.
 86435\H,0,-2.32077,-7.14719,-1.56576\H,0,-4.53406,-5.99146,-1.56709\H,
 0,-6.63892,-4.66564,-1.86864\H,0,-7.72792,-2.47921,-1.86566\H,0,-7.516
 44,-0.00155,-1.56258\H,0,-7.10121,2.46093,-1.5642\H,0,-6.48975,4.87176
 ,-1.86761\H,0,-4.74607,6.58232,-1.86722\H,0,-2.32353,7.14694,-1.5642\H
 ,0,0.14612,7.51341,-1.56472\H,0,2.62801,7.67703,-1.86791\H,0,4.79371,6
 .54742,-1.86787\H,0,6.07918,4.4181,-1.56517\\Version=ES64L-G09RevD.01\
 State=1-A\HF=-3058.3773351\RMSD=5.509e-09\PG=C01 [X(C80H20)]\\@


 IT IS WELL TO REMEMBER THAT MAN IS A PART OF NATURE AND THAT HIS WORKS,
 WHATEVER THEY MAY BE, ARE NO MORE "UNNATURAL" THAN 
 THE FLIGHT OF AN EAGLE OR THE PASSAGE OF A TORNADO.

                                    -- CHARLES MCCARRY IN "THE GREAT SOUTHWEST"
 Job cpu time:       0 days 10 hours 47 minutes  9.2 seconds.
 File lengths (MBytes):  RWF=   3279 Int=      0 D2E=      0 Chk=    333 Scr=      1
 Normal termination of Gaussian 09 at Wed Dec  6 05:34:18 2017.
