 Entering Gaussian System, Link 0=g09
 Input=0_0freq-b971_71-43-2.gau
 Output=0_0freq-b971_71-43-2.log
 Initial command:
 /opt/g09/l1.exe "/scratch/pb556/g09_run/add_hco//Gau-25701.inp" -scrdir="/scratch/pb556/g09_run/add_hco//"
 Entering Link 1 = /opt/g09/l1.exe PID=     25710.
  
 Copyright (c) 1988,1990,1992,1993,1995,1998,2003,2009,2013,
            Gaussian, Inc.  All Rights Reserved.
  
 This is part of the Gaussian(R) 09 program.  It is based on
 the Gaussian(R) 03 system (copyright 2003, Gaussian, Inc.),
 the Gaussian(R) 98 system (copyright 1998, Gaussian, Inc.),
 the Gaussian(R) 94 system (copyright 1995, Gaussian, Inc.),
 the Gaussian 92(TM) system (copyright 1992, Gaussian, Inc.),
 the Gaussian 90(TM) system (copyright 1990, Gaussian, Inc.),
 the Gaussian 88(TM) system (copyright 1988, Gaussian, Inc.),
 the Gaussian 86(TM) system (copyright 1986, Carnegie Mellon
 University), and the Gaussian 82(TM) system (copyright 1983,
 Carnegie Mellon University). Gaussian is a federally registered
 trademark of Gaussian, Inc.
  
 This software contains proprietary and confidential information,
 including trade secrets, belonging to Gaussian, Inc.
  
 This software is provided under written license and may be
 used, copied, transmitted, or stored only in accord with that
 written license.
  
 The following legend is applicable only to US Government
 contracts under FAR:
  
                    RESTRICTED RIGHTS LEGEND
  
 Use, reproduction and disclosure by the US Government is
 subject to restrictions as set forth in subparagraphs (a)
 and (c) of the Commercial Computer Software - Restricted
 Rights clause in FAR 52.227-19.
  
 Gaussian, Inc.
 340 Quinnipiac St., Bldg. 40, Wallingford CT 06492
  
  
 ---------------------------------------------------------------
 Warning -- This program may not be used in any manner that
 competes with the business of Gaussian, Inc. or will provide
 assistance to any competitor of Gaussian, Inc.  The licensee
 of this program is prohibited from giving any competitor of
 Gaussian, Inc. access to this program.  By using this program,
 the user acknowledges that Gaussian, Inc. is engaged in the
 business of creating and licensing software in the field of
 computational chemistry and represents and warrants to the
 licensee that it is not a competitor of Gaussian, Inc. and that
 it will not use this program in any manner prohibited above.
 ---------------------------------------------------------------
  

 Cite this work as:
 Gaussian 09, Revision D.01,
 M. J. Frisch, G. W. Trucks, H. B. Schlegel, G. E. Scuseria, 
 M. A. Robb, J. R. Cheeseman, G. Scalmani, V. Barone, B. Mennucci, 
 G. A. Petersson, H. Nakatsuji, M. Caricato, X. Li, H. P. Hratchian, 
 A. F. Izmaylov, J. Bloino, G. Zheng, J. L. Sonnenberg, M. Hada, 
 M. Ehara, K. Toyota, R. Fukuda, J. Hasegawa, M. Ishida, T. Nakajima, 
 Y. Honda, O. Kitao, H. Nakai, T. Vreven, J. A. Montgomery, Jr., 
 J. E. Peralta, F. Ogliaro, M. Bearpark, J. J. Heyd, E. Brothers, 
 K. N. Kudin, V. N. Staroverov, T. Keith, R. Kobayashi, J. Normand, 
 K. Raghavachari, A. Rendell, J. C. Burant, S. S. Iyengar, J. Tomasi, 
 M. Cossi, N. Rega, J. M. Millam, M. Klene, J. E. Knox, J. B. Cross, 
 V. Bakken, C. Adamo, J. Jaramillo, R. Gomperts, R. E. Stratmann, 
 O. Yazyev, A. J. Austin, R. Cammi, C. Pomelli, J. W. Ochterski, 
 R. L. Martin, K. Morokuma, V. G. Zakrzewski, G. A. Voth, 
 P. Salvador, J. J. Dannenberg, S. Dapprich, A. D. Daniels, 
 O. Farkas, J. B. Foresman, J. V. Ortiz, J. Cioslowski, 
 and D. J. Fox, Gaussian, Inc., Wallingford CT, 2013.
 
 ******************************************
 Gaussian 09:  ES64L-G09RevD.01 24-Apr-2013
                27-Apr-2015 
 ******************************************
 %NProcShared=8
 Will use up to    8 processors via shared memory.
 %Mem=500MW
 ----------------------------------------------------------------------
 #p rB971/6-311+G(d,p) Opt=(Tight, CalcAll) Freq GFInput Population=Non
 e Integral(Grid=UltraFine) Guess=MIX NoSymmetry
 ----------------------------------------------------------------------
 1/7=10,10=4,14=-1,18=20,19=15,26=4,38=1/1,3;
 2/9=110,12=2,15=1,17=6,18=5,40=1/2;
 3/5=4,6=6,7=111,11=2,16=1,24=10,25=1,30=1,71=2,74=-20,75=-5,116=1,140=1/1,2,3;
 4/13=-1/1;
 5/5=2,38=5/2;
 8/6=4,10=90,11=11/1;
 11/6=1,8=1,9=11,15=111,16=1,31=1/1,2,10;
 10/6=1,31=1/2;
 7/10=1,25=1,30=1/1,2,3,16;
 1/7=10,10=4,14=-1,18=20,19=15,26=4/3(3);
 2/9=110,15=1/2;
 7/8=1,9=1,25=1,30=1,44=-1/16;
 99//99;
 2/9=110,15=1/2;
 3/5=4,6=6,7=111,11=2,16=1,25=1,30=1,71=2,74=-20,75=-5,116=1,140=1/1,2,3;
 4/5=5,16=3,69=1/1;
 5/5=2,38=5/2;
 8/6=4,10=90,11=11/1;
 11/6=1,8=1,9=11,15=111,16=1,31=1/1,2,10;
 10/6=1,31=1/2;
 7/10=1,25=1,30=1/1,2,3,16;
 1/7=10,10=4,14=-1,18=20,19=15,26=4/3(-8);
 2/9=110,15=1/2;
 7/8=1,9=1,25=1,30=1,44=-1/16;
 99//99;
 Leave Link    1 at Mon Apr 27 05:10:44 2015, MaxMem=   524288000 cpu:         0.5
 (Enter /opt/g09/l101.exe)
 ---------------------
 freq-b971_71-43-2.gau
 ---------------------
 Symbolic Z-matrix:
 Charge =  0 Multiplicity = 1
 C                     3.29221   3.39454   0.23496 
 C                     1.90203   3.53953   0.22406 
 C                     3.8626    2.12059   0.16135 
 C                     1.08226   2.41057   0.13954 
 C                     3.04283   0.99161   0.07682 
 C                     1.65266   1.13661   0.06592 
 H                     3.92921   4.2718    0.30065 
 H                     1.4588    4.52945   0.28128 
 H                     4.94283   2.00793   0.16981 
 H                     0.00203   2.52321   0.13107 
 H                     3.48608   0.0017    0.01961 
 H                     1.01566   0.25935   0.00023 
 
 NAtoms=     12 NQM=       12 NQMF=       0 NMMI=      0 NMMIF=      0
                NMic=       0 NMicF=      0.
                    Isotopes and Nuclear Properties:
 (Nuclear quadrupole moments (NQMom) in fm**2, nuclear magnetic moments (NMagM)
  in nuclear magnetons)

  Atom         1           2           3           4           5           6           7           8           9          10
 IAtWgt=          12          12          12          12          12          12           1           1           1           1
 AtmWgt=  12.0000000  12.0000000  12.0000000  12.0000000  12.0000000  12.0000000   1.0078250   1.0078250   1.0078250   1.0078250
 NucSpn=           0           0           0           0           0           0           1           1           1           1
 AtZEff=   0.0000000   0.0000000   0.0000000   0.0000000   0.0000000   0.0000000   0.0000000   0.0000000   0.0000000   0.0000000
 NQMom=    0.0000000   0.0000000   0.0000000   0.0000000   0.0000000   0.0000000   0.0000000   0.0000000   0.0000000   0.0000000
 NMagM=    0.0000000   0.0000000   0.0000000   0.0000000   0.0000000   0.0000000   2.7928460   2.7928460   2.7928460   2.7928460
 AtZNuc=   6.0000000   6.0000000   6.0000000   6.0000000   6.0000000   6.0000000   1.0000000   1.0000000   1.0000000   1.0000000

  Atom        11          12
 IAtWgt=           1           1
 AtmWgt=   1.0078250   1.0078250
 NucSpn=           1           1
 AtZEff=   0.0000000   0.0000000
 NQMom=    0.0000000   0.0000000
 NMagM=    2.7928460   2.7928460
 AtZNuc=   1.0000000   1.0000000
 Leave Link  101 at Mon Apr 27 05:10:44 2015, MaxMem=   524288000 cpu:         1.9
 (Enter /opt/g09/l103.exe)

 GradGradGradGradGradGradGradGradGradGradGradGradGradGradGradGradGradGrad
 Berny optimization.
 Initialization pass.
                           ----------------------------
                           !    Initial Parameters    !
                           ! (Angstroms and Degrees)  !
 --------------------------                            --------------------------
 ! Name  Definition              Value          Derivative Info.                !
 --------------------------------------------------------------------------------
 ! R1    R(1,2)                  1.3978         calculate D2E/DX2 analytically  !
 ! R2    R(1,3)                  1.3978         calculate D2E/DX2 analytically  !
 ! R3    R(1,7)                  1.0861         calculate D2E/DX2 analytically  !
 ! R4    R(2,4)                  1.3978         calculate D2E/DX2 analytically  !
 ! R5    R(2,8)                  1.0861         calculate D2E/DX2 analytically  !
 ! R6    R(3,5)                  1.3978         calculate D2E/DX2 analytically  !
 ! R7    R(3,9)                  1.0861         calculate D2E/DX2 analytically  !
 ! R8    R(4,6)                  1.3978         calculate D2E/DX2 analytically  !
 ! R9    R(4,10)                 1.0861         calculate D2E/DX2 analytically  !
 ! R10   R(5,6)                  1.3978         calculate D2E/DX2 analytically  !
 ! R11   R(5,11)                 1.0861         calculate D2E/DX2 analytically  !
 ! R12   R(6,12)                 1.0861         calculate D2E/DX2 analytically  !
 ! A1    A(2,1,3)              119.9996         calculate D2E/DX2 analytically  !
 ! A2    A(2,1,7)              119.9997         calculate D2E/DX2 analytically  !
 ! A3    A(3,1,7)              120.0006         calculate D2E/DX2 analytically  !
 ! A4    A(1,2,4)              119.9999         calculate D2E/DX2 analytically  !
 ! A5    A(1,2,8)              120.0001         calculate D2E/DX2 analytically  !
 ! A6    A(4,2,8)              120.0001         calculate D2E/DX2 analytically  !
 ! A7    A(1,3,5)              120.001          calculate D2E/DX2 analytically  !
 ! A8    A(1,3,9)              119.9995         calculate D2E/DX2 analytically  !
 ! A9    A(5,3,9)              119.9995         calculate D2E/DX2 analytically  !
 ! A10   A(2,4,6)              120.0003         calculate D2E/DX2 analytically  !
 ! A11   A(2,4,10)             120.0011         calculate D2E/DX2 analytically  !
 ! A12   A(6,4,10)             119.9986         calculate D2E/DX2 analytically  !
 ! A13   A(3,5,6)              119.9989         calculate D2E/DX2 analytically  !
 ! A14   A(3,5,11)             119.9994         calculate D2E/DX2 analytically  !
 ! A15   A(6,5,11)             120.0017         calculate D2E/DX2 analytically  !
 ! A16   A(4,6,5)              120.0003         calculate D2E/DX2 analytically  !
 ! A17   A(4,6,12)             120.0005         calculate D2E/DX2 analytically  !
 ! A18   A(5,6,12)             119.9993         calculate D2E/DX2 analytically  !
 ! D1    D(3,1,2,4)             -0.0005         calculate D2E/DX2 analytically  !
 ! D2    D(3,1,2,8)            179.9987         calculate D2E/DX2 analytically  !
 ! D3    D(7,1,2,4)           -179.9992         calculate D2E/DX2 analytically  !
 ! D4    D(7,1,2,8)              0.0            calculate D2E/DX2 analytically  !
 ! D5    D(2,1,3,5)              0.0009         calculate D2E/DX2 analytically  !
 ! D6    D(2,1,3,9)            179.9994         calculate D2E/DX2 analytically  !
 ! D7    D(7,1,3,5)            179.9996         calculate D2E/DX2 analytically  !
 ! D8    D(7,1,3,9)             -0.0019         calculate D2E/DX2 analytically  !
 ! D9    D(1,2,4,6)              0.0            calculate D2E/DX2 analytically  !
 ! D10   D(1,2,4,10)           179.9999         calculate D2E/DX2 analytically  !
 ! D11   D(8,2,4,6)           -179.9991         calculate D2E/DX2 analytically  !
 ! D12   D(8,2,4,10)             0.0008         calculate D2E/DX2 analytically  !
 ! D13   D(1,3,5,6)             -0.0009         calculate D2E/DX2 analytically  !
 ! D14   D(1,3,5,11)           179.9992         calculate D2E/DX2 analytically  !
 ! D15   D(9,3,5,6)           -179.9994         calculate D2E/DX2 analytically  !
 ! D16   D(9,3,5,11)             0.0007         calculate D2E/DX2 analytically  !
 ! D17   D(2,4,6,5)              0.0            calculate D2E/DX2 analytically  !
 ! D18   D(2,4,6,12)          -179.9992         calculate D2E/DX2 analytically  !
 ! D19   D(10,4,6,5)          -179.9999         calculate D2E/DX2 analytically  !
 ! D20   D(10,4,6,12)            0.0009         calculate D2E/DX2 analytically  !
 ! D21   D(3,5,6,4)              0.0004         calculate D2E/DX2 analytically  !
 ! D22   D(3,5,6,12)           179.9996         calculate D2E/DX2 analytically  !
 ! D23   D(11,5,6,4)          -179.9997         calculate D2E/DX2 analytically  !
 ! D24   D(11,5,6,12)           -0.0005         calculate D2E/DX2 analytically  !
 --------------------------------------------------------------------------------
 Trust Radius=3.00D-01 FncErr=1.00D-07 GrdErr=1.00D-06
 Number of steps in this run=     64 maximum allowed number of steps=    100.
 GradGradGradGradGradGradGradGradGradGradGradGradGradGradGradGradGradGrad

 Leave Link  103 at Mon Apr 27 05:10:44 2015, MaxMem=   524288000 cpu:         0.1
 (Enter /opt/g09/l202.exe)
                          Input orientation:                          
 ---------------------------------------------------------------------
 Center     Atomic      Atomic             Coordinates (Angstroms)
 Number     Number       Type             X           Y           Z
 ---------------------------------------------------------------------
      1          6           0        3.292210    3.394540    0.234960
      2          6           0        1.902030    3.539530    0.224060
      3          6           0        3.862600    2.120590    0.161350
      4          6           0        1.082260    2.410570    0.139540
      5          6           0        3.042830    0.991610    0.076820
      6          6           0        1.652660    1.136610    0.065920
      7          1           0        3.929210    4.271800    0.300650
      8          1           0        1.458800    4.529450    0.281280
      9          1           0        4.942830    2.007930    0.169810
     10          1           0        0.002030    2.523210    0.131070
     11          1           0        3.486080    0.001700    0.019610
     12          1           0        1.015660    0.259350    0.000230
 ---------------------------------------------------------------------
                    Distance matrix (angstroms):
                    1          2          3          4          5
     1  C    0.000000
     2  C    1.397763   0.000000
     3  C    1.397752   2.420983   0.000000
     4  C    2.420988   1.397754   2.795506   0.000000
     5  C    2.421006   2.795532   1.397771   2.420995   0.000000
     6  C    2.795523   2.420995   2.420983   1.397766   1.397754
     7  H    1.086126   2.156744   2.156744   3.405181   3.405204
     8  H    2.156747   1.086125   3.405179   2.156739   3.881658
     9  H    2.156729   3.405173   1.086122   3.881628   2.156746
    10  H    3.405186   2.156746   3.881626   1.086120   3.405173
    11  H    3.405191   3.881656   2.156746   3.405200   1.086124
    12  H    3.881648   3.405192   3.405179   2.156755   2.156731
                    6          7          8          9         10
     6  C    0.000000
     7  H    3.881648   0.000000
     8  H    3.405191   2.483885   0.000000
     9  H    3.405174   2.483878   4.302203   0.000000
    10  H    2.156730   4.302217   2.483896   4.967748   0.000000
    11  H    2.156755   4.302221   4.967782   2.483876   4.302213
    12  H    1.086126   4.967774   4.302222   4.302203   2.483873
                   11         12
    11  H    0.000000
    12  H    2.483895   0.000000
 Symmetry turned off by external request.
 Stoichiometry    C6H6
 Framework group  C1[X(C6H6)]
 Deg. of freedom    30
 Full point group                 C1      NOp   1
 Rotational constants (GHZ):      5.6792028      5.6791247      2.8395819
 Leave Link  202 at Mon Apr 27 05:10:45 2015, MaxMem=   524288000 cpu:         0.0
 (Enter /opt/g09/l301.exe)
 Standard basis: 6-311+G(d,p) (5D, 7F)
 Ernie: Thresh=  0.10000D-02 Tol=  0.10000D-05 Strict=F.
 AO basis set in the form of general basis input (Overlap normalization):
      1 0
 S   6 1.00       0.000000000000
      0.4563240000D+04  0.1966650249D-02
      0.6820240000D+03  0.1523060193D-01
      0.1549730000D+03  0.7612690966D-01
      0.4445530000D+02  0.2608010331D+00
      0.1302900000D+02  0.6164620782D+00
      0.1827730000D+01  0.2210060280D+00
 SP   3 1.00       0.000000000000
      0.2096420000D+02  0.1146600807D+00  0.4024869267D-01
      0.4803310000D+01  0.9199996477D+00  0.2375939567D+00
      0.1459330000D+01 -0.3030682134D-02  0.8158538515D+00
 SP   1 1.00       0.000000000000
      0.4834560000D+00  0.1000000000D+01  0.1000000000D+01
 SP   1 1.00       0.000000000000
      0.1455850000D+00  0.1000000000D+01  0.1000000000D+01
 SP   1 1.00       0.000000000000
      0.4380000000D-01  0.1000000000D+01  0.1000000000D+01
 D   1 1.00       0.000000000000
      0.6260000000D+00  0.1000000000D+01
 ****
      2 0
 S   6 1.00       0.000000000000
      0.4563240000D+04  0.1966650249D-02
      0.6820240000D+03  0.1523060193D-01
      0.1549730000D+03  0.7612690966D-01
      0.4445530000D+02  0.2608010331D+00
      0.1302900000D+02  0.6164620782D+00
      0.1827730000D+01  0.2210060280D+00
 SP   3 1.00       0.000000000000
      0.2096420000D+02  0.1146600807D+00  0.4024869267D-01
      0.4803310000D+01  0.9199996477D+00  0.2375939567D+00
      0.1459330000D+01 -0.3030682134D-02  0.8158538515D+00
 SP   1 1.00       0.000000000000
      0.4834560000D+00  0.1000000000D+01  0.1000000000D+01
 SP   1 1.00       0.000000000000
      0.1455850000D+00  0.1000000000D+01  0.1000000000D+01
 SP   1 1.00       0.000000000000
      0.4380000000D-01  0.1000000000D+01  0.1000000000D+01
 D   1 1.00       0.000000000000
      0.6260000000D+00  0.1000000000D+01
 ****
      3 0
 S   6 1.00       0.000000000000
      0.4563240000D+04  0.1966650249D-02
      0.6820240000D+03  0.1523060193D-01
      0.1549730000D+03  0.7612690966D-01
      0.4445530000D+02  0.2608010331D+00
      0.1302900000D+02  0.6164620782D+00
      0.1827730000D+01  0.2210060280D+00
 SP   3 1.00       0.000000000000
      0.2096420000D+02  0.1146600807D+00  0.4024869267D-01
      0.4803310000D+01  0.9199996477D+00  0.2375939567D+00
      0.1459330000D+01 -0.3030682134D-02  0.8158538515D+00
 SP   1 1.00       0.000000000000
      0.4834560000D+00  0.1000000000D+01  0.1000000000D+01
 SP   1 1.00       0.000000000000
      0.1455850000D+00  0.1000000000D+01  0.1000000000D+01
 SP   1 1.00       0.000000000000
      0.4380000000D-01  0.1000000000D+01  0.1000000000D+01
 D   1 1.00       0.000000000000
      0.6260000000D+00  0.1000000000D+01
 ****
      4 0
 S   6 1.00       0.000000000000
      0.4563240000D+04  0.1966650249D-02
      0.6820240000D+03  0.1523060193D-01
      0.1549730000D+03  0.7612690966D-01
      0.4445530000D+02  0.2608010331D+00
      0.1302900000D+02  0.6164620782D+00
      0.1827730000D+01  0.2210060280D+00
 SP   3 1.00       0.000000000000
      0.2096420000D+02  0.1146600807D+00  0.4024869267D-01
      0.4803310000D+01  0.9199996477D+00  0.2375939567D+00
      0.1459330000D+01 -0.3030682134D-02  0.8158538515D+00
 SP   1 1.00       0.000000000000
      0.4834560000D+00  0.1000000000D+01  0.1000000000D+01
 SP   1 1.00       0.000000000000
      0.1455850000D+00  0.1000000000D+01  0.1000000000D+01
 SP   1 1.00       0.000000000000
      0.4380000000D-01  0.1000000000D+01  0.1000000000D+01
 D   1 1.00       0.000000000000
      0.6260000000D+00  0.1000000000D+01
 ****
      5 0
 S   6 1.00       0.000000000000
      0.4563240000D+04  0.1966650249D-02
      0.6820240000D+03  0.1523060193D-01
      0.1549730000D+03  0.7612690966D-01
      0.4445530000D+02  0.2608010331D+00
      0.1302900000D+02  0.6164620782D+00
      0.1827730000D+01  0.2210060280D+00
 SP   3 1.00       0.000000000000
      0.2096420000D+02  0.1146600807D+00  0.4024869267D-01
      0.4803310000D+01  0.9199996477D+00  0.2375939567D+00
      0.1459330000D+01 -0.3030682134D-02  0.8158538515D+00
 SP   1 1.00       0.000000000000
      0.4834560000D+00  0.1000000000D+01  0.1000000000D+01
 SP   1 1.00       0.000000000000
      0.1455850000D+00  0.1000000000D+01  0.1000000000D+01
 SP   1 1.00       0.000000000000
      0.4380000000D-01  0.1000000000D+01  0.1000000000D+01
 D   1 1.00       0.000000000000
      0.6260000000D+00  0.1000000000D+01
 ****
      6 0
 S   6 1.00       0.000000000000
      0.4563240000D+04  0.1966650249D-02
      0.6820240000D+03  0.1523060193D-01
      0.1549730000D+03  0.7612690966D-01
      0.4445530000D+02  0.2608010331D+00
      0.1302900000D+02  0.6164620782D+00
      0.1827730000D+01  0.2210060280D+00
 SP   3 1.00       0.000000000000
      0.2096420000D+02  0.1146600807D+00  0.4024869267D-01
      0.4803310000D+01  0.9199996477D+00  0.2375939567D+00
      0.1459330000D+01 -0.3030682134D-02  0.8158538515D+00
 SP   1 1.00       0.000000000000
      0.4834560000D+00  0.1000000000D+01  0.1000000000D+01
 SP   1 1.00       0.000000000000
      0.1455850000D+00  0.1000000000D+01  0.1000000000D+01
 SP   1 1.00       0.000000000000
      0.4380000000D-01  0.1000000000D+01  0.1000000000D+01
 D   1 1.00       0.000000000000
      0.6260000000D+00  0.1000000000D+01
 ****
      7 0
 S   3 1.00       0.000000000000
      0.3386500000D+02  0.2549381454D-01
      0.5094790000D+01  0.1903731086D+00
      0.1158790000D+01  0.8521614860D+00
 S   1 1.00       0.000000000000
      0.3258400000D+00  0.1000000000D+01
 S   1 1.00       0.000000000000
      0.1027410000D+00  0.1000000000D+01
 P   1 1.00       0.000000000000
      0.7500000000D+00  0.1000000000D+01
 ****
      8 0
 S   3 1.00       0.000000000000
      0.3386500000D+02  0.2549381454D-01
      0.5094790000D+01  0.1903731086D+00
      0.1158790000D+01  0.8521614860D+00
 S   1 1.00       0.000000000000
      0.3258400000D+00  0.1000000000D+01
 S   1 1.00       0.000000000000
      0.1027410000D+00  0.1000000000D+01
 P   1 1.00       0.000000000000
      0.7500000000D+00  0.1000000000D+01
 ****
      9 0
 S   3 1.00       0.000000000000
      0.3386500000D+02  0.2549381454D-01
      0.5094790000D+01  0.1903731086D+00
      0.1158790000D+01  0.8521614860D+00
 S   1 1.00       0.000000000000
      0.3258400000D+00  0.1000000000D+01
 S   1 1.00       0.000000000000
      0.1027410000D+00  0.1000000000D+01
 P   1 1.00       0.000000000000
      0.7500000000D+00  0.1000000000D+01
 ****
     10 0
 S   3 1.00       0.000000000000
      0.3386500000D+02  0.2549381454D-01
      0.5094790000D+01  0.1903731086D+00
      0.1158790000D+01  0.8521614860D+00
 S   1 1.00       0.000000000000
      0.3258400000D+00  0.1000000000D+01
 S   1 1.00       0.000000000000
      0.1027410000D+00  0.1000000000D+01
 P   1 1.00       0.000000000000
      0.7500000000D+00  0.1000000000D+01
 ****
     11 0
 S   3 1.00       0.000000000000
      0.3386500000D+02  0.2549381454D-01
      0.5094790000D+01  0.1903731086D+00
      0.1158790000D+01  0.8521614860D+00
 S   1 1.00       0.000000000000
      0.3258400000D+00  0.1000000000D+01
 S   1 1.00       0.000000000000
      0.1027410000D+00  0.1000000000D+01
 P   1 1.00       0.000000000000
      0.7500000000D+00  0.1000000000D+01
 ****
     12 0
 S   3 1.00       0.000000000000
      0.3386500000D+02  0.2549381454D-01
      0.5094790000D+01  0.1903731086D+00
      0.1158790000D+01  0.8521614860D+00
 S   1 1.00       0.000000000000
      0.3258400000D+00  0.1000000000D+01
 S   1 1.00       0.000000000000
      0.1027410000D+00  0.1000000000D+01
 P   1 1.00       0.000000000000
      0.7500000000D+00  0.1000000000D+01
 ****

   168 basis functions,   264 primitive gaussians,   174 cartesian basis functions
    21 alpha electrons       21 beta electrons
       nuclear repulsion energy       203.0705018765 Hartrees.
 IExCor= 1614 DFT=T Ex+Corr=B971 ExCW=0 ScaHFX=  0.210000
 ScaDFX=  1.000000  1.000000  1.000000  1.000000 ScalE2=  1.000000  1.000000
 IRadAn=      5 IRanWt=     -1 IRanGd=            0 ICorTp=0 IEmpDi=  4
 NAtoms=   12 NActive=   12 NUniq=   12 SFac= 1.00D+00 NAtFMM=   60 NAOKFM=F Big=F
 Integral buffers will be    131072 words long.
 Raffenetti 2 integral format.
 Two-electron integral symmetry is turned off.
 Leave Link  301 at Mon Apr 27 05:10:45 2015, MaxMem=   524288000 cpu:         0.4
 (Enter /opt/g09/l302.exe)
 NPDir=0 NMtPBC=     1 NCelOv=     1 NCel=       1 NClECP=     1 NCelD=      1
         NCelK=      1 NCelE2=     1 NClLst=     1 CellRange=     0.0.
 One-electron integrals computed using PRISM.
 NBasis=   168 RedAO= T EigKep=  4.24D-06  NBF=   168
 NBsUse=   168 1.00D-06 EigRej= -1.00D+00 NBFU=   168
 Precomputing XC quadrature grid using
 IXCGrd= 4 IRadAn=           5 IRanWt=          -1 IRanGd=           0 AccXCQ= 0.00D+00.
 Generated NRdTot=       0 NPtTot=           0 NUsed=           0 NTot=          32
 NSgBfM=   174   174   174   174   174 MxSgAt=    12 MxSgA2=    12.
 Leave Link  302 at Mon Apr 27 05:10:45 2015, MaxMem=   524288000 cpu:         1.9
 (Enter /opt/g09/l303.exe)
 DipDrv:  MaxL=1.
 Leave Link  303 at Mon Apr 27 05:10:45 2015, MaxMem=   524288000 cpu:         0.3
 (Enter /opt/g09/l401.exe)
 ExpMin= 4.38D-02 ExpMax= 4.56D+03 ExpMxC= 6.82D+02 IAcc=3 IRadAn=         5 AccDes= 0.00D+00
 Harris functional with IExCor= 1614 and IRadAn=       5 diagonalized for initial guess.
 HarFok:  IExCor= 1614 AccDes= 0.00D+00 IRadAn=         5 IDoV= 1 UseB2=F ITyADJ=14
 ICtDFT=  3500011 ScaDFX=  1.000000  1.000000  1.000000  1.000000
 FoFCou: FMM=F IPFlag=           0 FMFlag=      100000 FMFlg1=           0
         NFxFlg=           0 DoJE=T BraDBF=F KetDBF=T FulRan=T
         wScrn=  0.000000 ICntrl=     500 IOpCl=  0 I1Cent=   200000004 NGrid=           0
         NMat0=    1 NMatS0=      1 NMatT0=    0 NMatD0=    1 NMtDS0=    0 NMtDT0=    0
 Symmetry not used in FoFCou.
 Harris En= -225.385261683749    
 JPrj=0 DoOrth=F DoCkMO=T.
 Mixing orbitals, IMix= 1 IMixAn=  0 NRI=1 NE=   21 Coef=  7.07106781D-01  7.07106781D-01
 Leave Link  401 at Mon Apr 27 05:10:46 2015, MaxMem=   524288000 cpu:         8.7
 (Enter /opt/g09/l502.exe)
 Closed shell SCF:
 Using DIIS extrapolation, IDIIS=  1040.
 Two-electron integral symmetry not used.
 Keep R1 ints in memory in canonical form, NReq=103561744.
 IVT=      111838 IEndB=      111838 NGot=   524288000 MDV=   423405857
 LenX=   423405857 LenY=   423375140
 Requested convergence on RMS density matrix=1.00D-08 within 128 cycles.
 Requested convergence on MAX density matrix=1.00D-06.
 Requested convergence on             energy=1.00D-06.
 No special actions if energy rises.
 FoFCou: FMM=F IPFlag=           0 FMFlag=           0 FMFlg1=           0
         NFxFlg=           0 DoJE=F BraDBF=F KetDBF=F FulRan=T
         wScrn=  0.000000 ICntrl=     600 IOpCl=  0 I1Cent=           0 NGrid=           0
         NMat0=    1 NMatS0=  14196 NMatT0=    0 NMatD0=    1 NMtDS0=    0 NMtDT0=    0
 Symmetry not used in FoFCou.

 Cycle   1  Pass 1  IDiag  1:
 E= -231.879166291277    
 DIIS: error= 8.18D-02 at cycle   1 NSaved=   1.
 NSaved= 1 IEnMin= 1 EnMin= -231.879166291277     IErMin= 1 ErrMin= 8.18D-02
 ErrMax= 8.18D-02  0.00D+00 EMaxC= 1.00D-01 BMatC= 4.86D-01 BMatP= 4.86D-01
 IDIUse=3 WtCom= 1.82D-01 WtEn= 8.18D-01
 Coeff-Com:  0.100D+01
 Coeff-En:   0.100D+01
 Coeff:      0.100D+01
 Gap=    -0.157 Goal=   None    Shift=    0.000
 GapD=   -0.157 DampG=0.250 DampE=0.500 DampFc=0.2500 IDamp=-1.
 Damping current iteration by 2.50D-01
 RMSDP=6.58D-03 MaxDP=1.43D-01              OVMax= 7.56D-01

 Cycle   2  Pass 1  IDiag  1:
 E= -231.981491041654     Delta-E=       -0.102324750378 Rises=F Damp=T
 DIIS: error= 6.11D-02 at cycle   2 NSaved=   2.
 NSaved= 2 IEnMin= 2 EnMin= -231.981491041654     IErMin= 2 ErrMin= 6.11D-02
 ErrMax= 6.11D-02  0.00D+00 EMaxC= 1.00D-01 BMatC= 2.32D-01 BMatP= 4.86D-01
 IDIUse=3 WtCom= 3.89D-01 WtEn= 6.11D-01
 Coeff-Com: -0.112D+01 0.212D+01
 Coeff-En:   0.000D+00 0.100D+01
 Coeff:     -0.436D+00 0.144D+01
 Gap=     0.295 Goal=   None    Shift=    0.000
 RMSDP=3.48D-03 MaxDP=6.74D-02 DE=-1.02D-01 OVMax= 3.77D-01

 Cycle   3  Pass 1  IDiag  1:
 E= -232.224958467458     Delta-E=       -0.243467425803 Rises=F Damp=F
 DIIS: error= 1.27D-02 at cycle   3 NSaved=   3.
 NSaved= 3 IEnMin= 3 EnMin= -232.224958467458     IErMin= 3 ErrMin= 1.27D-02
 ErrMax= 1.27D-02  0.00D+00 EMaxC= 1.00D-01 BMatC= 8.73D-03 BMatP= 2.32D-01
 IDIUse=3 WtCom= 8.73D-01 WtEn= 1.27D-01
 Coeff-Com: -0.167D+00 0.295D+00 0.871D+00
 Coeff-En:   0.000D+00 0.000D+00 0.100D+01
 Coeff:     -0.145D+00 0.258D+00 0.888D+00
 Gap=     0.242 Goal=   None    Shift=    0.000
 RMSDP=8.42D-04 MaxDP=2.89D-02 DE=-2.43D-01 OVMax= 7.32D-02

 Cycle   4  Pass 1  IDiag  1:
 E= -232.224070750854     Delta-E=        0.000887716603 Rises=F Damp=F
 DIIS: error= 1.70D-02 at cycle   4 NSaved=   4.
 NSaved= 4 IEnMin= 3 EnMin= -232.224958467458     IErMin= 3 ErrMin= 1.27D-02
 ErrMax= 1.70D-02  0.00D+00 EMaxC= 1.00D-01 BMatC= 9.71D-03 BMatP= 8.73D-03
 IDIUse=2 WtCom= 0.00D+00 WtEn= 1.00D+00
 Coeff-En:   0.000D+00 0.000D+00 0.520D+00 0.480D+00
 Coeff:      0.000D+00 0.000D+00 0.520D+00 0.480D+00
 Gap=     0.246 Goal=   None    Shift=    0.000
 RMSDP=4.49D-04 MaxDP=1.49D-02 DE= 8.88D-04 OVMax= 4.99D-02

 Cycle   5  Pass 1  IDiag  1:
 E= -232.234200067094     Delta-E=       -0.010129316240 Rises=F Damp=F
 DIIS: error= 1.75D-03 at cycle   5 NSaved=   5.
 NSaved= 5 IEnMin= 5 EnMin= -232.234200067094     IErMin= 5 ErrMin= 1.75D-03
 ErrMax= 1.75D-03  0.00D+00 EMaxC= 1.00D-01 BMatC= 2.71D-04 BMatP= 8.73D-03
 IDIUse=3 WtCom= 9.83D-01 WtEn= 1.75D-02
 Coeff-Com:  0.383D-01-0.462D-01 0.140D+00 0.181D+00 0.686D+00
 Coeff-En:   0.000D+00 0.000D+00 0.000D+00 0.000D+00 0.100D+01
 Coeff:      0.376D-01-0.454D-01 0.137D+00 0.178D+00 0.692D+00
 Gap=     0.245 Goal=   None    Shift=    0.000
 RMSDP=6.80D-05 MaxDP=2.70D-03 DE=-1.01D-02 OVMax= 4.28D-03

 Cycle   6  Pass 1  IDiag  1:
 E= -232.234424510110     Delta-E=       -0.000224443016 Rises=F Damp=F
 DIIS: error= 5.84D-04 at cycle   6 NSaved=   6.
 NSaved= 6 IEnMin= 6 EnMin= -232.234424510110     IErMin= 6 ErrMin= 5.84D-04
 ErrMax= 5.84D-04  0.00D+00 EMaxC= 1.00D-01 BMatC= 2.16D-05 BMatP= 2.71D-04
 IDIUse=3 WtCom= 9.94D-01 WtEn= 5.84D-03
 Coeff-Com:  0.242D-01-0.315D-01 0.334D-01 0.503D-01 0.208D+00 0.716D+00
 Coeff-En:   0.000D+00 0.000D+00 0.000D+00 0.000D+00 0.000D+00 0.100D+01
 Coeff:      0.241D-01-0.313D-01 0.332D-01 0.500D-01 0.207D+00 0.717D+00
 Gap=     0.246 Goal=   None    Shift=    0.000
 RMSDP=3.23D-05 MaxDP=9.05D-04 DE=-2.24D-04 OVMax= 2.35D-03

 Cycle   7  Pass 1  IDiag  1:
 E= -232.234444306465     Delta-E=       -0.000019796355 Rises=F Damp=F
 DIIS: error= 3.17D-04 at cycle   7 NSaved=   7.
 NSaved= 7 IEnMin= 7 EnMin= -232.234444306465     IErMin= 7 ErrMin= 3.17D-04
 ErrMax= 3.17D-04  0.00D+00 EMaxC= 1.00D-01 BMatC= 6.07D-06 BMatP= 2.16D-05
 IDIUse=3 WtCom= 9.97D-01 WtEn= 3.17D-03
 Coeff-Com:  0.762D-02-0.105D-01-0.728D-02-0.793D-02-0.629D-01 0.383D+00
 Coeff-Com:  0.698D+00
 Coeff-En:   0.000D+00 0.000D+00 0.000D+00 0.000D+00 0.000D+00 0.000D+00
 Coeff-En:   0.100D+01
 Coeff:      0.760D-02-0.105D-01-0.725D-02-0.790D-02-0.627D-01 0.382D+00
 Coeff:      0.699D+00
 Gap=     0.245 Goal=   None    Shift=    0.000
 RMSDP=1.81D-05 MaxDP=3.98D-04 DE=-1.98D-05 OVMax= 1.29D-03

 Cycle   8  Pass 1  IDiag  1:
 E= -232.234450143995     Delta-E=       -0.000005837530 Rises=F Damp=F
 DIIS: error= 1.57D-04 at cycle   8 NSaved=   8.
 NSaved= 8 IEnMin= 8 EnMin= -232.234450143995     IErMin= 8 ErrMin= 1.57D-04
 ErrMax= 1.57D-04  0.00D+00 EMaxC= 1.00D-01 BMatC= 8.03D-07 BMatP= 6.07D-06
 IDIUse=3 WtCom= 9.98D-01 WtEn= 1.57D-03
 Coeff-Com:  0.163D-02-0.237D-02-0.642D-02-0.865D-02-0.609D-01 0.129D+00
 Coeff-Com:  0.399D+00 0.549D+00
 Coeff-En:   0.000D+00 0.000D+00 0.000D+00 0.000D+00 0.000D+00 0.000D+00
 Coeff-En:   0.000D+00 0.100D+01
 Coeff:      0.162D-02-0.237D-02-0.641D-02-0.864D-02-0.608D-01 0.129D+00
 Coeff:      0.399D+00 0.549D+00
 Gap=     0.245 Goal=   None    Shift=    0.000
 RMSDP=5.82D-06 MaxDP=1.50D-04 DE=-5.84D-06 OVMax= 5.68D-04

 Cycle   9  Pass 1  IDiag  1:
 E= -232.234450957891     Delta-E=       -0.000000813897 Rises=F Damp=F
 DIIS: error= 4.04D-05 at cycle   9 NSaved=   9.
 NSaved= 9 IEnMin= 9 EnMin= -232.234450957891     IErMin= 9 ErrMin= 4.04D-05
 ErrMax= 4.04D-05  0.00D+00 EMaxC= 1.00D-01 BMatC= 9.87D-08 BMatP= 8.03D-07
 IDIUse=1 WtCom= 1.00D+00 WtEn= 0.00D+00
 Coeff-Com:  0.303D-04-0.546D-04-0.130D-02-0.216D-02-0.211D-01 0.237D-01
 Coeff-Com:  0.123D+00 0.303D+00 0.575D+00
 Coeff:      0.303D-04-0.546D-04-0.130D-02-0.216D-02-0.211D-01 0.237D-01
 Coeff:      0.123D+00 0.303D+00 0.575D+00
 Gap=     0.245 Goal=   None    Shift=    0.000
 RMSDP=1.85D-06 MaxDP=3.54D-05 DE=-8.14D-07 OVMax= 1.40D-04

 Cycle  10  Pass 1  IDiag  1:
 E= -232.234451066809     Delta-E=       -0.000000108917 Rises=F Damp=F
 DIIS: error= 4.60D-06 at cycle  10 NSaved=  10.
 NSaved=10 IEnMin=10 EnMin= -232.234451066809     IErMin=10 ErrMin= 4.60D-06
 ErrMax= 4.60D-06  0.00D+00 EMaxC= 1.00D-01 BMatC= 1.74D-09 BMatP= 9.87D-08
 IDIUse=1 WtCom= 1.00D+00 WtEn= 0.00D+00
 Coeff-Com:  0.248D-04-0.310D-04-0.163D-03-0.324D-03-0.538D-02 0.636D-02
 Coeff-Com:  0.323D-01 0.887D-01 0.213D+00 0.665D+00
 Coeff:      0.248D-04-0.310D-04-0.163D-03-0.324D-03-0.538D-02 0.636D-02
 Coeff:      0.323D-01 0.887D-01 0.213D+00 0.665D+00
 Gap=     0.245 Goal=   None    Shift=    0.000
 RMSDP=2.74D-07 MaxDP=7.83D-06 DE=-1.09D-07 OVMax= 1.79D-05

 Cycle  11  Pass 1  IDiag  1:
 E= -232.234451068088     Delta-E=       -0.000000001279 Rises=F Damp=F
 DIIS: error= 2.02D-06 at cycle  11 NSaved=  11.
 NSaved=11 IEnMin=11 EnMin= -232.234451068088     IErMin=11 ErrMin= 2.02D-06
 ErrMax= 2.02D-06  0.00D+00 EMaxC= 1.00D-01 BMatC= 5.33D-10 BMatP= 1.74D-09
 IDIUse=1 WtCom= 1.00D+00 WtEn= 0.00D+00
 Coeff-Com: -0.115D-04 0.153D-04 0.194D-04 0.719D-04 0.138D-03-0.118D-02
 Coeff-Com: -0.365D-02-0.338D-02 0.232D-01 0.361D+00 0.623D+00
 Coeff:     -0.115D-04 0.153D-04 0.194D-04 0.719D-04 0.138D-03-0.118D-02
 Coeff:     -0.365D-02-0.338D-02 0.232D-01 0.361D+00 0.623D+00
 Gap=     0.245 Goal=   None    Shift=    0.000
 RMSDP=1.25D-07 MaxDP=3.41D-06 DE=-1.28D-09 OVMax= 7.96D-06

 Cycle  12  Pass 1  IDiag  1:
 E= -232.234451068631     Delta-E=       -0.000000000543 Rises=F Damp=F
 DIIS: error= 1.82D-07 at cycle  12 NSaved=  12.
 NSaved=12 IEnMin=12 EnMin= -232.234451068631     IErMin=12 ErrMin= 1.82D-07
 ErrMax= 1.82D-07  0.00D+00 EMaxC= 1.00D-01 BMatC= 3.45D-12 BMatP= 5.33D-10
 IDIUse=1 WtCom= 1.00D+00 WtEn= 0.00D+00
 Coeff-Com: -0.659D-06 0.469D-06 0.367D-05 0.285D-04 0.272D-03-0.390D-03
 Coeff-Com: -0.204D-02-0.464D-02-0.574D-02 0.284D-01 0.109D+00 0.875D+00
 Coeff:     -0.659D-06 0.469D-06 0.367D-05 0.285D-04 0.272D-03-0.390D-03
 Coeff:     -0.204D-02-0.464D-02-0.574D-02 0.284D-01 0.109D+00 0.875D+00
 Gap=     0.245 Goal=   None    Shift=    0.000
 RMSDP=1.93D-08 MaxDP=3.20D-07 DE=-5.43D-10 OVMax= 1.37D-06

 Cycle  13  Pass 1  IDiag  1:
 E= -232.234451068641     Delta-E=       -0.000000000010 Rises=F Damp=F
 DIIS: error= 6.15D-08 at cycle  13 NSaved=  13.
 NSaved=13 IEnMin=13 EnMin= -232.234451068641     IErMin=13 ErrMin= 6.15D-08
 ErrMax= 6.15D-08  0.00D+00 EMaxC= 1.00D-01 BMatC= 1.90D-13 BMatP= 3.45D-12
 IDIUse=1 WtCom= 1.00D+00 WtEn= 0.00D+00
 Coeff-Com: -0.325D-06 0.374D-06-0.140D-05-0.839D-06 0.194D-04 0.138D-04
 Coeff-Com:  0.339D-04-0.124D-03-0.124D-02-0.106D-01-0.105D-01 0.588D-01
 Coeff-Com:  0.964D+00
 Coeff:     -0.325D-06 0.374D-06-0.140D-05-0.839D-06 0.194D-04 0.138D-04
 Coeff:      0.339D-04-0.124D-03-0.124D-02-0.106D-01-0.105D-01 0.588D-01
 Coeff:      0.964D+00
 Gap=     0.245 Goal=   None    Shift=    0.000
 RMSDP=4.23D-09 MaxDP=6.26D-08 DE=-9.89D-12 OVMax= 2.55D-07

 SCF Done:  E(RB971) =  -232.234451069     A.U. after   13 cycles
            NFock= 13  Conv=0.42D-08     -V/T= 2.0041
 KE= 2.312775140580D+02 PE=-9.446183879460D+02 EE= 2.780359209429D+02
 Leave Link  502 at Mon Apr 27 05:11:10 2015, MaxMem=   524288000 cpu:       151.3
 (Enter /opt/g09/l801.exe)
 DoSCS=F DFT=T ScalE2(SS,OS)=  1.000000  1.000000
 Range of M.O.s used for correlation:     1   168
 NBasis=   168 NAE=    21 NBE=    21 NFC=     0 NFV=     0
 NROrb=    168 NOA=    21 NOB=    21 NVA=   147 NVB=   147

 **** Warning!!: The largest alpha MO coefficient is  0.13904586D+03

 Leave Link  801 at Mon Apr 27 05:11:10 2015, MaxMem=   524288000 cpu:         0.3
 (Enter /opt/g09/l1101.exe)
 Using compressed storage, NAtomX=    12.
 Will process     13 centers per pass.
 Leave Link 1101 at Mon Apr 27 05:11:11 2015, MaxMem=   524288000 cpu:         1.8
 (Enter /opt/g09/l1102.exe)
 Symmetrizing basis deriv contribution to polar:
 IMax=3 JMax=2 DiffMx= 0.00D+00
 Leave Link 1102 at Mon Apr 27 05:11:11 2015, MaxMem=   524288000 cpu:         0.3
 (Enter /opt/g09/l1110.exe)
 Forming Gx(P) for the SCF density, NAtomX=    12.
 Integral derivatives from FoFJK, PRISM(SPDF).
 Do as many integral derivatives as possible in FoFJK.
 G2DrvN: MDV=     524287800.
 G2DrvN: will do    13 centers at a time, making    1 passes.
 Calling FoFCou, ICntrl=  3107 FMM=F I1Cent=   0 AccDes= 0.00D+00.
 FoFJK:  IHMeth= 1 ICntrl=    3107 DoSepK=F KAlg= 0 I1Cent=   0 FoldK=F
 IRaf=         0 NMat=   1 IRICut=       1 DoRegI=T DoRafI=F ISym2E= 0.
 FoFCou: FMM=F IPFlag=           0 FMFlag=      100000 FMFlg1=           0
         NFxFlg=           0 DoJE=F BraDBF=F KetDBF=F FulRan=T
         wScrn=  0.000000 ICntrl=    3107 IOpCl=  0 I1Cent=           0 NGrid=           0
         NMat0=    1 NMatS0=      1 NMatT0=    0 NMatD0=    1 NMtDS0=    0 NMtDT0=    0
 Symmetry not used in FoFCou.
 End of G2Drv F.D. properties file   721 does not exist.
 End of G2Drv F.D. properties file   722 does not exist.
 End of G2Drv F.D. properties file   788 does not exist.
 Leave Link 1110 at Mon Apr 27 05:11:54 2015, MaxMem=   524288000 cpu:       345.5
 (Enter /opt/g09/l1002.exe)
 Minotr:  Closed shell wavefunction.
          IDoAtm=111111111111
          Direct CPHF calculation.
          Differentiating once with respect to electric field.
                with respect to dipole field.
          Differentiating once with respect to nuclear coordinates.
          Requested convergence is 1.0D-08 RMS, and 1.0D-07 maximum.
          Secondary convergence is 1.0D-12 RMS, and 1.0D-12 maximum.
          NewPWx=T KeepS1=F KeepF1=F KeepIn=T MapXYZ=F SortEE=F KeepMc=T.
          MDV=     524287708 using IRadAn=       1.
 Generate precomputed XC quadrature information.
 Keep R1 ints in memory in canonical form, NReq=103455184.
 FoFCou: FMM=F IPFlag=           0 FMFlag=           0 FMFlg1=           0
         NFxFlg=           0 DoJE=F BraDBF=F KetDBF=F FulRan=T
         wScrn=  0.000000 ICntrl=     600 IOpCl=  0 I1Cent=           0 NGrid=           0
         NMat0=    1 NMatS0=  14196 NMatT0=    0 NMatD0=    1 NMtDS0=    0 NMtDT0=    0
 Symmetry not used in FoFCou.
          Solving linear equations simultaneously, MaxMat=       0.
          There are    39 degrees of freedom in the 1st order CPHF.  IDoFFX=6 NUNeed=     3.
     36 vectors produced by pass  0 Test12= 7.92D-15 2.56D-09 XBig12= 9.42D+01 4.27D+00.
 AX will form    36 AO Fock derivatives at one time.
     36 vectors produced by pass  1 Test12= 7.92D-15 2.56D-09 XBig12= 1.52D+01 8.10D-01.
     36 vectors produced by pass  2 Test12= 7.92D-15 2.56D-09 XBig12= 1.45D-01 8.75D-02.
     36 vectors produced by pass  3 Test12= 7.92D-15 2.56D-09 XBig12= 3.54D-04 5.29D-03.
     36 vectors produced by pass  4 Test12= 7.92D-15 2.56D-09 XBig12= 5.77D-07 2.27D-04.
     30 vectors produced by pass  5 Test12= 7.92D-15 2.56D-09 XBig12= 4.59D-10 4.05D-06.
      7 vectors produced by pass  6 Test12= 7.92D-15 2.56D-09 XBig12= 3.10D-13 1.75D-07.
      2 vectors produced by pass  7 Test12= 7.92D-15 2.56D-09 XBig12= 2.53D-16 3.88D-09.
 InvSVY:  IOpt=1 It=  1 EMax= 2.66D-14
 Solved reduced A of dimension   219 with    39 vectors.
 FullF1:  Do perturbations    1 to     3.
 Isotropic polarizability for W=    0.000000       66.24 Bohr**3.
 End of Minotr F.D. properties file   721 does not exist.
 End of Minotr F.D. properties file   722 does not exist.
 End of Minotr F.D. properties file   788 does not exist.
 Leave Link 1002 at Mon Apr 27 05:12:42 2015, MaxMem=   524288000 cpu:       380.9
 (Enter /opt/g09/l701.exe)
 Compute integral second derivatives.
 ... and contract with generalized density number  0.
 Leave Link  701 at Mon Apr 27 05:12:42 2015, MaxMem=   524288000 cpu:         2.3
 (Enter /opt/g09/l702.exe)
 L702 exits ... SP integral derivatives will be done elsewhere.
 Leave Link  702 at Mon Apr 27 05:12:43 2015, MaxMem=   524288000 cpu:         0.3
 (Enter /opt/g09/l703.exe)
 Compute integral second derivatives, UseDBF=F ICtDFT=           0.
 Integral derivatives from FoFJK, PRISM(SPDF).
 Calling FoFJK, ICntrl=    100127 FMM=F ISym2X=0 I1Cent= 0 IOpClX= 0 NMat=1 NMatS=1 NMatT=0.
 FoFJK:  IHMeth= 1 ICntrl=  100127 DoSepK=F KAlg= 0 I1Cent=   0 FoldK=F
 IRaf=         0 NMat=   1 IRICut=       1 DoRegI=T DoRafI=F ISym2E= 0.
 FoFCou: FMM=F IPFlag=           0 FMFlag=      100000 FMFlg1=         800
         NFxFlg=           0 DoJE=F BraDBF=F KetDBF=F FulRan=T
         wScrn=  0.000000 ICntrl=  100127 IOpCl=  0 I1Cent=           0 NGrid=           0
         NMat0=    1 NMatS0=      1 NMatT0=    0 NMatD0=    1 NMtDS0=    0 NMtDT0=    0
 Symmetry not used in FoFCou.
 Leave Link  703 at Mon Apr 27 05:14:06 2015, MaxMem=   524288000 cpu:       668.9
 (Enter /opt/g09/l716.exe)
 Dipole        = 2.26214189D-06-1.16864678D-06 5.19374002D-08
 Polarizability= 7.86103100D+01-3.46896522D-02 7.84608073D+01
                 5.37178630D-01 2.37854263D+00 4.16458246D+01
 -------------------------------------------------------------------
 Center     Atomic                   Forces (Hartrees/Bohr)
 Number     Number              X              Y              Z
 -------------------------------------------------------------------
      1        6           0.000001641    0.000005478    0.000000858
      2        6          -0.000000595    0.000009011    0.000001339
      3        6           0.000001418   -0.000010891   -0.000001400
      4        6           0.000000902   -0.000005363   -0.000001930
      5        6           0.000007958    0.000004724    0.000001126
      6        6          -0.000008144   -0.000003895    0.000000005
      7        1          -0.000001179   -0.000003509   -0.000000028
      8        1           0.000001330   -0.000003009    0.000000007
      9        1          -0.000000572    0.000000000    0.000000496
     10        1          -0.000000211    0.000001836    0.000000299
     11        1          -0.000002785    0.000001866   -0.000000676
     12        1           0.000000236    0.000003752   -0.000000096
 -------------------------------------------------------------------
 Cartesian Forces:  Max     0.000010891 RMS     0.000003710
 Force constants in Cartesian coordinates: 
                1             2             3             4             5 
      1  0.677714D+00
      2  0.375766D-01  0.700670D+00
      3  0.103551D-01  0.370282D-01  0.135448D+00
      4 -0.326983D+00 -0.108091D-01 -0.454602D-02  0.663412D+00
      5  0.528693D-01 -0.128411D+00 -0.348803D-02 -0.305657D-01  0.714997D+00
      6 -0.464443D-03 -0.441807D-02 -0.623144D-01  0.574031D-02  0.369674D-01
      7 -0.160241D+00  0.107341D+00  0.545876D-02 -0.151801D-01  0.342289D-01
      8  0.436462D-01 -0.294667D+00 -0.142981D-01  0.801899D-01  0.222574D-01
      9  0.137286D-02 -0.133817D-01 -0.628710D-01  0.483182D-02  0.146294D-02
     10 -0.366401D-01 -0.218545D-01 -0.205034D-02 -0.196210D+00 -0.127813D+00
     11 -0.677823D-01  0.437905D-01  0.135762D-02 -0.641545D-01 -0.258501D+00
     12 -0.500087D-02  0.204124D-02  0.735485D-02 -0.607125D-02 -0.144880D-01
     13  0.626571D-01 -0.353252D-01 -0.146978D-02 -0.573057D-01 -0.249965D-01
     14  0.106169D-01 -0.551645D-01 -0.386297D-02 -0.249963D-01 -0.122324D-01
     15  0.148696D-02 -0.453291D-02  0.702348D-02 -0.234134D-02 -0.717197D-03
     16 -0.452720D-01  0.320184D-01  0.150656D-02  0.626575D-01  0.106171D-01
     17  0.320184D-01 -0.243195D-01 -0.658756D-03 -0.353255D-01 -0.551659D-01
     18  0.150680D-02 -0.658925D-03 -0.689781D-02 -0.147007D-02 -0.386290D-02
     19 -0.153270D+00 -0.130700D+00 -0.101024D-01 -0.126641D-01 -0.271135D-01
     20 -0.130698D+00 -0.238272D+00 -0.148864D-01  0.429668D-02  0.598051D-02
     21 -0.101034D-01 -0.148871D-01 -0.374997D-01  0.485791D-04 -0.207874D-03
     22 -0.729102D-02  0.299123D-01  0.177209D-02 -0.104301D+00  0.102648D+00
     23 -0.150129D-02  0.574876D-03 -0.183637D-03  0.102651D+00 -0.287493D+00
     24 -0.247539D-03  0.272240D-03  0.310422D-02  0.561420D-02 -0.146437D-01
     25 -0.860530D-02 -0.193114D-02 -0.294844D-03  0.129060D-02  0.264138D-02
     26  0.294813D-01  0.188374D-02  0.350918D-03  0.179693D-02 -0.509385D-02
     27  0.172413D-02 -0.105244D-03  0.310992D-02  0.291693D-04 -0.757977D-03
     28  0.130189D-03 -0.372896D-02 -0.344059D-03 -0.136942D-01  0.521596D-02
     29 -0.288456D-02 -0.392594D-02 -0.763084D-03 -0.261963D-01  0.700291D-02
     30 -0.290097D-03 -0.774861D-03  0.723434D-02 -0.192890D-02  0.327023D-03
     31 -0.160946D-02 -0.345336D-02 -0.351494D-03 -0.947269D-03 -0.749087D-03
     32 -0.429665D-02 -0.219200D-02 -0.671928D-03 -0.749370D-03  0.393176D-03
     33 -0.405881D-03 -0.659597D-03  0.723920D-02 -0.479844D-04  0.737814D-04
     34 -0.589447D-03  0.954244D-03  0.664234D-04 -0.747147D-04  0.301748D-02
     35  0.953631D-03  0.320372D-04  0.761772D-04  0.386213D-02 -0.373536D-02
     36  0.663940D-04  0.768147D-04 -0.930804D-03  0.141497D-03 -0.665481D-03
                6             7             8             9            10 
      6  0.135378D+00
      7  0.187919D-02  0.729625D+00
      8  0.213405D-02 -0.882640D-02  0.648874D+00
      9  0.745911D-02  0.811146D-02  0.330144D-01  0.135158D+00
     10 -0.101544D-01 -0.167557D-02 -0.690485D-02 -0.370296D-03  0.729640D+00
     11 -0.135576D-01 -0.690429D-02 -0.675412D-01 -0.400255D-02 -0.879063D-02
     12 -0.630548D-01 -0.370189D-03 -0.400253D-02 -0.713977D-02  0.811465D-02
     13 -0.234116D-02 -0.196196D+00 -0.641346D-01 -0.607043D-02 -0.151789D-01
     14 -0.717029D-03 -0.127794D+00 -0.258479D+00 -0.144872D-01  0.342283D-01
     15 -0.695413D-02 -0.101539D-01 -0.135568D-01 -0.630579D-01  0.187933D-02
     16  0.148664D-02 -0.366401D-01 -0.677828D-01 -0.500094D-02 -0.160238D+00
     17 -0.453321D-02 -0.218551D-01  0.437905D-01  0.204138D-02  0.107330D+00
     18  0.702360D-02 -0.205063D-02  0.135782D-02  0.735500D-02  0.545894D-02
     19 -0.197314D-02  0.109380D-01  0.120087D-01  0.886239D-03 -0.545119D-02
     20  0.248264D-03 -0.194029D-01 -0.175480D-01 -0.160894D-02  0.126149D-02
     21  0.307776D-02 -0.113428D-02 -0.115183D-02  0.300013D-02 -0.103968D-03
     22  0.561441D-02 -0.582559D-02 -0.527882D-03 -0.224803D-03  0.112237D-01
     23 -0.146459D-01  0.314491D-03  0.200041D-02 -0.335242D-03  0.133575D-01
     24 -0.372536D-01 -0.170831D-03 -0.347799D-03  0.726298D-02  0.976931D-03
     25  0.828201D-04 -0.331288D+00  0.284882D-01 -0.245324D-02  0.711594D-03
     26 -0.770050D-03  0.284862D-01 -0.612166D-01 -0.118242D-02 -0.207336D-03
     27  0.724011D-02 -0.245332D-02 -0.118247D-02 -0.364947D-01  0.107587D-04
     28  0.913126D-04  0.711583D-03 -0.207238D-03  0.103174D-04 -0.331294D+00
     29 -0.129455D-03 -0.207384D-03 -0.125970D-02 -0.238099D-04  0.284819D-01
     30  0.308334D-02  0.107204D-04 -0.240233D-04 -0.937913D-03 -0.245643D-02
     31 -0.483251D-04  0.112236D-01 -0.180549D-01 -0.104292D-02 -0.582532D-02
     32  0.744727D-04  0.133577D-01 -0.178342D-01 -0.115079D-02  0.314343D-03
     33 -0.932247D-03  0.977035D-03 -0.160917D-02  0.300106D-02 -0.170799D-03
     34  0.867432D-04 -0.545123D-02  0.210563D-02 -0.500661D-04  0.109379D-01
     35 -0.652820D-03  0.126144D-02  0.162345D-02 -0.346065D-03 -0.194027D-01
     36  0.724675D-02 -0.104032D-03 -0.333597D-03  0.726489D-02 -0.113441D-02
               11            12            13            14            15 
     11  0.648867D+00
     12  0.330151D-01  0.135157D+00
     13  0.801888D-01  0.483170D-02  0.663422D+00
     14  0.222572D-01  0.146300D-02 -0.305939D-01  0.714974D+00
     15  0.213409D-02  0.745877D-02  0.574084D-02  0.369644D-01  0.135379D+00
     16  0.436350D-01  0.137287D-02 -0.327002D+00  0.528732D-01 -0.464946D-03
     17 -0.294640D+00 -0.133817D-01 -0.108049D-01 -0.128411D+00 -0.441807D-02
     18 -0.142980D-01 -0.628731D-01 -0.454631D-02 -0.348817D-02 -0.623130D-01
     19  0.210565D-02 -0.500876D-04 -0.746676D-04  0.301741D-02  0.866951D-04
     20  0.162339D-02 -0.346026D-03  0.386209D-02 -0.373516D-02 -0.652748D-03
     21 -0.333620D-03  0.726445D-02  0.141421D-03 -0.665457D-03  0.724708D-02
     22 -0.180550D-01 -0.104302D-02 -0.947260D-03 -0.749128D-03 -0.483316D-04
     23 -0.178343D-01 -0.115101D-02 -0.749349D-03  0.393154D-03  0.744820D-04
     24 -0.160890D-02  0.300143D-02 -0.479194D-04  0.738050D-04 -0.932260D-03
     25 -0.207259D-03  0.103076D-04 -0.136948D-01  0.521595D-02  0.914370D-04
     26 -0.125970D-02 -0.238044D-04 -0.261964D-01  0.700279D-02 -0.129377D-03
     27 -0.239795D-04 -0.937916D-03 -0.192935D-02  0.326879D-03  0.308344D-02
     28  0.284839D-01 -0.245547D-02  0.129051D-02  0.264134D-02  0.827776D-04
     29 -0.612151D-01 -0.118228D-02  0.179696D-02 -0.509389D-02 -0.770045D-03
     30 -0.118236D-02 -0.364938D-01  0.291881D-04 -0.758092D-03  0.723967D-02
     31 -0.528028D-03 -0.224891D-03 -0.104305D+00  0.102654D+00  0.561369D-02
     32  0.200044D-02 -0.335209D-03  0.102656D+00 -0.287492D+00 -0.146441D-01
     33 -0.347759D-03  0.726329D-02  0.561324D-02 -0.146412D-01 -0.372521D-01
     34  0.120087D-01  0.886245D-03 -0.126647D-01 -0.271140D-01 -0.197323D-02
     35 -0.175475D-01 -0.160883D-02  0.429652D-02  0.598045D-02  0.248240D-03
     36 -0.115204D-02  0.299983D-02  0.485453D-04 -0.207912D-03  0.307834D-02
               16            17            18            19            20 
     16  0.677730D+00
     17  0.375847D-01  0.700644D+00
     18  0.103556D-01  0.370281D-01  0.135449D+00
     19 -0.589395D-03  0.954259D-03  0.664273D-04  0.159743D+00
     20  0.953648D-03  0.319787D-04  0.761688D-04  0.140633D+00  0.251175D+00
     21  0.663631D-04  0.767996D-04 -0.930773D-03  0.109970D-01  0.165725D-01
     22 -0.160941D-02 -0.345341D-02 -0.351433D-03  0.961576D-03 -0.433794D-03
     23 -0.429667D-02 -0.219190D-02 -0.671961D-03  0.374881D-03  0.708324D-03
     24 -0.405840D-03 -0.659560D-03  0.723963D-02  0.959430D-04  0.295627D-03
     25  0.129976D-03 -0.372912D-02 -0.344034D-03  0.764479D-03  0.310135D-03
     26 -0.288468D-02 -0.392606D-02 -0.763102D-03 -0.497879D-03  0.905370D-03
     27 -0.290064D-03 -0.774989D-03  0.723395D-02  0.373733D-04  0.318710D-03
     28 -0.860549D-02 -0.193104D-02 -0.294948D-03 -0.797679D-03  0.291701D-03
     29  0.294814D-01  0.188363D-02  0.351039D-03 -0.135622D-02  0.159666D-03
     30  0.172444D-02 -0.105318D-03  0.310969D-02 -0.101749D-03  0.133498D-05
     31 -0.729045D-02  0.299116D-01  0.177194D-02  0.382075D-03 -0.970965D-03
     32 -0.150162D-02  0.575431D-03 -0.183552D-03  0.677221D-03 -0.101645D-02
     33 -0.247368D-03  0.272235D-03  0.310396D-02  0.461114D-04 -0.926023D-04
     34 -0.153270D+00 -0.130700D+00 -0.101023D-01  0.582014D-04 -0.103149D-03
     35 -0.130698D+00 -0.238271D+00 -0.148865D-01 -0.103141D-03 -0.133411D-04
     36 -0.101033D-01 -0.148870D-01 -0.375001D-01  0.115808D-04  0.740532D-04
               21            22            23            24            25 
     21  0.265402D-01
     22  0.437736D-04  0.107048D+00
     23  0.306636D-03 -0.110468D+00  0.304144D+00
     24 -0.395928D-02 -0.591528D-02  0.163153D-01  0.262759D-01
     25  0.886409D-04 -0.543727D-03 -0.143451D-03 -0.200674D-04  0.351307D+00
     26  0.307261D-03  0.150508D-02 -0.962391D-04  0.246104D-05 -0.306617D-01
     27 -0.395948D-02  0.858542D-04 -0.214709D-04  0.205054D-03  0.276689D-02
     28  0.419894D-05  0.806233D-03 -0.295591D-03  0.504816D-04 -0.806703D-04
     29 -0.225647D-04  0.513780D-03  0.862147D-03  0.318808D-03  0.209812D-04
     30  0.203815D-03  0.102829D-03  0.307357D-03 -0.395980D-02  0.174652D-04
     31 -0.599004D-04  0.962695D-04  0.787541D-04  0.238192D-04  0.806247D-03
     32 -0.687858D-04  0.787425D-04 -0.517000D-04  0.743077D-04 -0.295585D-03
     33  0.199831D-03  0.238117D-04  0.743119D-04 -0.118413D-02  0.504370D-04
     34  0.115804D-04  0.382085D-03  0.677234D-03  0.461081D-04 -0.797731D-03
     35  0.740575D-04 -0.970971D-03 -0.101645D-02 -0.925902D-04  0.291700D-03
     36 -0.118404D-02 -0.599004D-04 -0.687931D-04  0.199847D-03  0.419177D-05
               26            27            28            29            30 
     26  0.606542D-01
     27  0.182711D-02  0.254587D-01
     28  0.209937D-04  0.174687D-04  0.351313D+00
     29  0.124630D-03  0.847893D-04 -0.306577D-01  0.606525D-01
     30  0.847877D-04 -0.118345D-02  0.276930D-02  0.182691D-02  0.254582D-01
     31  0.513714D-03  0.102856D-03 -0.543705D-03  0.150506D-02  0.858850D-04
     32  0.862127D-03  0.307303D-03 -0.143458D-03 -0.962136D-04 -0.214709D-04
     33  0.318789D-03 -0.395945D-02 -0.200631D-04  0.245376D-05  0.205071D-03
     34 -0.135626D-02 -0.101766D-03  0.764484D-03 -0.497902D-03  0.373508D-04
     35  0.159649D-03  0.133300D-05  0.310109D-03  0.905337D-03  0.318707D-03
     36 -0.225807D-04  0.203772D-03  0.886785D-04  0.307240D-03 -0.395918D-02
               31            32            33            34            35 
     31  0.107051D+00
     32 -0.110473D+00  0.304143D+00
     33 -0.591448D-02  0.163131D-01  0.262751D-01
     34  0.961588D-03  0.374943D-03  0.959370D-04  0.159744D+00
     35 -0.433784D-03  0.708299D-03  0.295649D-03  0.140633D+00  0.251174D+00
     36  0.438169D-04  0.306618D-03 -0.395954D-02  0.109970D-01  0.165726D-01
               36 
     36  0.265402D-01
 FormGI is forming the generalized inverse of G from B-inverse, IUseBI=4.
 Leave Link  716 at Mon Apr 27 05:14:07 2015, MaxMem=   524288000 cpu:         0.3
 (Enter /opt/g09/l103.exe)

 GradGradGradGradGradGradGradGradGradGradGradGradGradGradGradGradGradGrad
 Berny optimization.
 Red2BG is reusing G-inverse.
 Internal  Forces:  Max     0.000005031 RMS     0.000001732
 Search for a local minimum.
 Step number   1 out of a maximum of   64
 All quantities printed in internal units (Hartrees-Bohrs-Radians)
 RMS Force = .17317D-05 SwitMx=.10000D-02 MixMth= 2
 Mixed Optimization -- En-DIIS/RFO-DIIS
 Second derivative matrix not updated -- analytic derivatives used.
 ITU=  0
     Eigenvalues ---    0.01687   0.01688   0.01802   0.02350   0.02350
     Eigenvalues ---    0.02617   0.02824   0.02824   0.02860   0.10624
     Eigenvalues ---    0.11111   0.11112   0.11948   0.12478   0.12480
     Eigenvalues ---    0.19213   0.19227   0.19229   0.27829   0.35254
     Eigenvalues ---    0.35255   0.35569   0.35583   0.35584   0.35768
     Eigenvalues ---    0.40613   0.40627   0.46176   0.46181   0.50146
 RFO step:  Lambda= 0.00000000D+00 EMin= 1.68727069D-02
 Linear search not attempted -- first point.
 Iteration  1 RMS(Cart)=  0.00000602 RMS(Int)=  0.00000000
 Iteration  2 RMS(Cart)=  0.00000000 RMS(Int)=  0.00000000
 ITry= 1 IFail=0 DXMaxC= 1.62D-05 DCOld= 1.00D+10 DXMaxT= 3.00D-01 DXLimC= 3.00D+00 Rises=F
 Variable       Old X    -DE/DX   Delta X   Delta X   Delta X     New X
                                 (Linear)    (Quad)   (Total)
    R1        2.64139   0.00000   0.00000   0.00000   0.00000   2.64139
    R2        2.64137   0.00001   0.00000   0.00002   0.00002   2.64139
    R3        2.05248   0.00000   0.00000  -0.00001  -0.00001   2.05247
    R4        2.64137   0.00000   0.00000   0.00001   0.00001   2.64139
    R5        2.05248   0.00000   0.00000  -0.00001  -0.00001   2.05247
    R6        2.64140   0.00000   0.00000  -0.00002  -0.00002   2.64139
    R7        2.05247   0.00000   0.00000   0.00000   0.00000   2.05247
    R8        2.64140   0.00000   0.00000  -0.00001  -0.00001   2.64139
    R9        2.05247   0.00000   0.00000   0.00000   0.00000   2.05247
   R10        2.64137   0.00000   0.00000   0.00002   0.00002   2.64139
   R11        2.05248   0.00000   0.00000  -0.00001  -0.00001   2.05247
   R12        2.05248   0.00000   0.00000  -0.00001  -0.00001   2.05247
    A1        2.09439   0.00000   0.00000   0.00000   0.00000   2.09439
    A2        2.09439   0.00000   0.00000   0.00000   0.00000   2.09439
    A3        2.09441   0.00000   0.00000   0.00000   0.00000   2.09440
    A4        2.09439   0.00000   0.00000  -0.00001  -0.00001   2.09439
    A5        2.09440   0.00000   0.00000   0.00001   0.00001   2.09441
    A6        2.09440   0.00000   0.00000  -0.00001  -0.00001   2.09439
    A7        2.09441   0.00000   0.00000   0.00000   0.00000   2.09441
    A8        2.09439   0.00000   0.00000  -0.00001  -0.00001   2.09438
    A9        2.09439   0.00000   0.00000   0.00001   0.00001   2.09440
   A10        2.09440   0.00000   0.00000   0.00001   0.00001   2.09441
   A11        2.09441   0.00000   0.00000  -0.00001  -0.00001   2.09440
   A12        2.09437   0.00000   0.00000   0.00001   0.00001   2.09438
   A13        2.09438   0.00000   0.00000   0.00001   0.00001   2.09439
   A14        2.09438   0.00000   0.00000   0.00001   0.00001   2.09439
   A15        2.09442   0.00000   0.00000  -0.00002  -0.00002   2.09441
   A16        2.09440   0.00000   0.00000  -0.00001  -0.00001   2.09439
   A17        2.09440   0.00000   0.00000   0.00000   0.00000   2.09440
   A18        2.09438   0.00000   0.00000   0.00001   0.00001   2.09439
    D1       -0.00001   0.00000   0.00000   0.00000   0.00000  -0.00001
    D2        3.14157   0.00000   0.00000   0.00000   0.00000   3.14157
    D3       -3.14158   0.00000   0.00000  -0.00001  -0.00001  -3.14158
    D4        0.00000   0.00000   0.00000   0.00000   0.00000   0.00000
    D5        0.00002   0.00000   0.00000  -0.00001  -0.00001   0.00001
    D6        3.14158   0.00000   0.00000   0.00000   0.00000   3.14159
    D7        3.14159   0.00000   0.00000   0.00000   0.00000   3.14158
    D8       -0.00003   0.00000   0.00000   0.00001   0.00001  -0.00003
    D9        0.00000   0.00000   0.00000   0.00001   0.00001   0.00001
   D10        3.14159   0.00000   0.00000  -0.00001  -0.00001   3.14159
   D11       -3.14158   0.00000   0.00000   0.00000   0.00000  -3.14157
   D12        0.00001   0.00000   0.00000  -0.00001  -0.00001   0.00000
   D13       -0.00002   0.00000   0.00000   0.00000   0.00000  -0.00001
   D14        3.14158   0.00000   0.00000  -0.00001  -0.00001   3.14157
   D15       -3.14158   0.00000   0.00000   0.00000   0.00000  -3.14159
   D16        0.00001   0.00000   0.00000  -0.00002  -0.00002   0.00000
   D17        0.00000   0.00000   0.00000  -0.00001  -0.00001  -0.00001
   D18       -3.14158   0.00000   0.00000  -0.00001  -0.00001  -3.14158
   D19       -3.14159   0.00000   0.00000   0.00000   0.00000  -3.14159
   D20        0.00002   0.00000   0.00000   0.00001   0.00001   0.00003
   D21        0.00001   0.00000   0.00000   0.00000   0.00000   0.00001
   D22        3.14159   0.00000   0.00000   0.00000   0.00000   3.14158
   D23       -3.14159   0.00000   0.00000   0.00001   0.00001  -3.14157
   D24       -0.00001   0.00000   0.00000   0.00001   0.00001   0.00000
         Item               Value     Threshold  Converged?
 Maximum Force            0.000005     0.000015     YES
 RMS     Force            0.000002     0.000010     YES
 Maximum Displacement     0.000016     0.000060     YES
 RMS     Displacement     0.000006     0.000040     YES
 Predicted change in Energy=-3.228986D-10
 Optimization completed.
    -- Stationary point found.
                           ----------------------------
                           !   Optimized Parameters   !
                           ! (Angstroms and Degrees)  !
 --------------------------                            --------------------------
 ! Name  Definition              Value          Derivative Info.                !
 --------------------------------------------------------------------------------
 ! R1    R(1,2)                  1.3978         -DE/DX =    0.0                 !
 ! R2    R(1,3)                  1.3978         -DE/DX =    0.0                 !
 ! R3    R(1,7)                  1.0861         -DE/DX =    0.0                 !
 ! R4    R(2,4)                  1.3978         -DE/DX =    0.0                 !
 ! R5    R(2,8)                  1.0861         -DE/DX =    0.0                 !
 ! R6    R(3,5)                  1.3978         -DE/DX =    0.0                 !
 ! R7    R(3,9)                  1.0861         -DE/DX =    0.0                 !
 ! R8    R(4,6)                  1.3978         -DE/DX =    0.0                 !
 ! R9    R(4,10)                 1.0861         -DE/DX =    0.0                 !
 ! R10   R(5,6)                  1.3978         -DE/DX =    0.0                 !
 ! R11   R(5,11)                 1.0861         -DE/DX =    0.0                 !
 ! R12   R(6,12)                 1.0861         -DE/DX =    0.0                 !
 ! A1    A(2,1,3)              119.9996         -DE/DX =    0.0                 !
 ! A2    A(2,1,7)              119.9997         -DE/DX =    0.0                 !
 ! A3    A(3,1,7)              120.0006         -DE/DX =    0.0                 !
 ! A4    A(1,2,4)              119.9999         -DE/DX =    0.0                 !
 ! A5    A(1,2,8)              120.0001         -DE/DX =    0.0                 !
 ! A6    A(4,2,8)              120.0001         -DE/DX =    0.0                 !
 ! A7    A(1,3,5)              120.001          -DE/DX =    0.0                 !
 ! A8    A(1,3,9)              119.9995         -DE/DX =    0.0                 !
 ! A9    A(5,3,9)              119.9995         -DE/DX =    0.0                 !
 ! A10   A(2,4,6)              120.0003         -DE/DX =    0.0                 !
 ! A11   A(2,4,10)             120.0011         -DE/DX =    0.0                 !
 ! A12   A(6,4,10)             119.9986         -DE/DX =    0.0                 !
 ! A13   A(3,5,6)              119.9989         -DE/DX =    0.0                 !
 ! A14   A(3,5,11)             119.9994         -DE/DX =    0.0                 !
 ! A15   A(6,5,11)             120.0017         -DE/DX =    0.0                 !
 ! A16   A(4,6,5)              120.0003         -DE/DX =    0.0                 !
 ! A17   A(4,6,12)             120.0005         -DE/DX =    0.0                 !
 ! A18   A(5,6,12)             119.9993         -DE/DX =    0.0                 !
 ! D1    D(3,1,2,4)             -0.0005         -DE/DX =    0.0                 !
 ! D2    D(3,1,2,8)            179.9987         -DE/DX =    0.0                 !
 ! D3    D(7,1,2,4)           -179.9992         -DE/DX =    0.0                 !
 ! D4    D(7,1,2,8)              0.0            -DE/DX =    0.0                 !
 ! D5    D(2,1,3,5)              0.0009         -DE/DX =    0.0                 !
 ! D6    D(2,1,3,9)            179.9994         -DE/DX =    0.0                 !
 ! D7    D(7,1,3,5)            179.9996         -DE/DX =    0.0                 !
 ! D8    D(7,1,3,9)             -0.0019         -DE/DX =    0.0                 !
 ! D9    D(1,2,4,6)              0.0            -DE/DX =    0.0                 !
 ! D10   D(1,2,4,10)           179.9999         -DE/DX =    0.0                 !
 ! D11   D(8,2,4,6)           -179.9991         -DE/DX =    0.0                 !
 ! D12   D(8,2,4,10)             0.0008         -DE/DX =    0.0                 !
 ! D13   D(1,3,5,6)             -0.0009         -DE/DX =    0.0                 !
 ! D14   D(1,3,5,11)           179.9992         -DE/DX =    0.0                 !
 ! D15   D(9,3,5,6)           -179.9994         -DE/DX =    0.0                 !
 ! D16   D(9,3,5,11)             0.0007         -DE/DX =    0.0                 !
 ! D17   D(2,4,6,5)              0.0            -DE/DX =    0.0                 !
 ! D18   D(2,4,6,12)          -179.9992         -DE/DX =    0.0                 !
 ! D19   D(10,4,6,5)          -179.9999         -DE/DX =    0.0                 !
 ! D20   D(10,4,6,12)            0.0009         -DE/DX =    0.0                 !
 ! D21   D(3,5,6,4)              0.0004         -DE/DX =    0.0                 !
 ! D22   D(3,5,6,12)           179.9996         -DE/DX =    0.0                 !
 ! D23   D(11,5,6,4)          -179.9997         -DE/DX =    0.0                 !
 ! D24   D(11,5,6,12)           -0.0005         -DE/DX =    0.0                 !
 --------------------------------------------------------------------------------
 Lowest energy point so far.  Saving SCF results.
 GradGradGradGradGradGradGradGradGradGradGradGradGradGradGradGradGradGrad

 Largest change from initial coordinates is atom    0       0.000 Angstoms.
 Leave Link  103 at Mon Apr 27 05:14:07 2015, MaxMem=   524288000 cpu:         0.2
 (Enter /opt/g09/l202.exe)
                          Input orientation:                          
 ---------------------------------------------------------------------
 Center     Atomic      Atomic             Coordinates (Angstroms)
 Number     Number       Type             X           Y           Z
 ---------------------------------------------------------------------
      1          6           0        3.292210    3.394540    0.234960
      2          6           0        1.902030    3.539530    0.224060
      3          6           0        3.862600    2.120590    0.161350
      4          6           0        1.082260    2.410570    0.139540
      5          6           0        3.042830    0.991610    0.076820
      6          6           0        1.652660    1.136610    0.065920
      7          1           0        3.929210    4.271800    0.300650
      8          1           0        1.458800    4.529450    0.281280
      9          1           0        4.942830    2.007930    0.169810
     10          1           0        0.002030    2.523210    0.131070
     11          1           0        3.486080    0.001700    0.019610
     12          1           0        1.015660    0.259350    0.000230
 ---------------------------------------------------------------------
                    Distance matrix (angstroms):
                    1          2          3          4          5
     1  C    0.000000
     2  C    1.397763   0.000000
     3  C    1.397752   2.420983   0.000000
     4  C    2.420988   1.397754   2.795506   0.000000
     5  C    2.421006   2.795532   1.397771   2.420995   0.000000
     6  C    2.795523   2.420995   2.420983   1.397766   1.397754
     7  H    1.086126   2.156744   2.156744   3.405181   3.405204
     8  H    2.156747   1.086125   3.405179   2.156739   3.881658
     9  H    2.156729   3.405173   1.086122   3.881628   2.156746
    10  H    3.405186   2.156746   3.881626   1.086120   3.405173
    11  H    3.405191   3.881656   2.156746   3.405200   1.086124
    12  H    3.881648   3.405192   3.405179   2.156755   2.156731
                    6          7          8          9         10
     6  C    0.000000
     7  H    3.881648   0.000000
     8  H    3.405191   2.483885   0.000000
     9  H    3.405174   2.483878   4.302203   0.000000
    10  H    2.156730   4.302217   2.483896   4.967748   0.000000
    11  H    2.156755   4.302221   4.967782   2.483876   4.302213
    12  H    1.086126   4.967774   4.302222   4.302203   2.483873
                   11         12
    11  H    0.000000
    12  H    2.483895   0.000000
 Symmetry turned off by external request.
 Stoichiometry    C6H6
 Framework group  C1[X(C6H6)]
 Deg. of freedom    30
 Full point group                 C1      NOp   1
 Rotational constants (GHZ):      5.6792028      5.6791247      2.8395819
 Leave Link  202 at Mon Apr 27 05:14:07 2015, MaxMem=   524288000 cpu:         0.0
 (Enter /opt/g09/l716.exe)
 Dipole        = 2.26214189D-06-1.16864678D-06 5.19374002D-08
 Polarizability= 7.86103100D+01-3.46896522D-02 7.84608073D+01
                 5.37178630D-01 2.37854263D+00 4.16458246D+01
 Full mass-weighted force constant matrix:
 Low frequencies ---   -3.8362   -0.0004   -0.0002    0.0004    5.4066   11.8730
 Low frequencies ---  407.1427  407.1768  616.1360
 Diagonal vibrational polarizability:
        0.3322630       0.3594886       7.2674846
 Harmonic frequencies (cm**-1), IR intensities (KM/Mole), Raman scattering
 activities (A**4/AMU), depolarization ratios for plane and unpolarized
 incident light, reduced masses (AMU), force constants (mDyne/A),
 and normal coordinates:
                      1                      2                      3
                      A                      A                      A
 Frequencies --    407.1427               407.1768               616.1359
 Red. masses --      2.8742                 2.8738                 6.0687
 Frc consts  --      0.2807                 0.2807                 1.3574
 IR Inten    --      0.0000                 0.0000                 0.0000
  Atom  AN      X      Y      Z        X      Y      Z        X      Y      Z
     1   6     0.00  -0.02   0.24     0.00   0.00  -0.02    -0.08  -0.28  -0.02
     2   6     0.00   0.01  -0.10     0.00  -0.01   0.22    -0.11  -0.12  -0.01
     3   6     0.00   0.01  -0.14     0.00   0.01  -0.19     0.33  -0.09   0.00
     4   6     0.00   0.01  -0.14     0.00   0.01  -0.19    -0.33   0.09   0.00
     5   6     0.00   0.01  -0.10     0.00  -0.01   0.22     0.11   0.12   0.01
     6   6     0.00  -0.02   0.24     0.00   0.00  -0.02     0.08   0.28   0.02
     7   1    -0.01  -0.03   0.52     0.00   0.00  -0.05    -0.28  -0.14  -0.01
     8   1     0.00   0.01  -0.22    -0.01  -0.03   0.48     0.23   0.03   0.01
     9   1     0.00   0.02  -0.30     0.01   0.03  -0.43     0.34   0.04   0.01
    10   1     0.00   0.02  -0.30     0.01   0.03  -0.43    -0.34  -0.04  -0.01
    11   1     0.00   0.01  -0.22    -0.01  -0.03   0.48    -0.23  -0.03  -0.01
    12   1    -0.01  -0.03   0.52     0.00   0.00  -0.05     0.28   0.14   0.01
                      4                      5                      6
                      A                      A                      A
 Frequencies --    616.3860               686.2516               713.3512
 Red. masses --      6.0679                 1.0848                 3.7133
 Frc consts  --      1.3583                 0.3010                 1.1133
 IR Inten    --      0.0000               127.7084                 0.0000
  Atom  AN      X      Y      Z        X      Y      Z        X      Y      Z
     1   6    -0.23  -0.12  -0.01     0.00   0.00   0.03     0.00  -0.01   0.20
     2   6    -0.17   0.31   0.02     0.00   0.00   0.03     0.00   0.01  -0.20
     3   6    -0.14  -0.13  -0.01     0.00   0.00   0.03     0.00   0.01  -0.20
     4   6     0.14   0.13   0.01     0.00   0.00   0.03     0.00  -0.01   0.20
     5   6     0.17  -0.31  -0.02     0.00   0.00   0.03     0.00  -0.01   0.20
     6   6     0.23   0.12   0.01     0.00   0.00   0.03     0.00   0.01  -0.20
     7   1     0.00  -0.29  -0.02     0.01   0.03  -0.41    -0.01  -0.02   0.35
     8   1    -0.11   0.34   0.02     0.01   0.03  -0.41     0.01   0.02  -0.35
     9   1    -0.10   0.22   0.01     0.01   0.03  -0.41     0.01   0.02  -0.35
    10   1     0.10  -0.22  -0.01     0.01   0.03  -0.41    -0.01  -0.02   0.35
    11   1     0.11  -0.34  -0.02     0.01   0.03  -0.41    -0.01  -0.02   0.35
    12   1     0.00   0.29   0.02     0.01   0.03  -0.41     0.01   0.02  -0.35
                      7                      8                      9
                      A                      A                      A
 Frequencies --    860.2719               860.4237               981.6400
 Red. masses --      1.2473                 1.2473                 1.3744
 Frc consts  --      0.5439                 0.5441                 0.7803
 IR Inten    --      0.0000                 0.0000                 0.0000
  Atom  AN      X      Y      Z        X      Y      Z        X      Y      Z
     1   6     0.00   0.00   0.04     0.00   0.00  -0.08     0.00   0.00  -0.05
     2   6     0.00   0.00  -0.05     0.00   0.00  -0.07     0.00   0.00  -0.06
     3   6     0.00  -0.01   0.08     0.00   0.00   0.00     0.00  -0.01   0.11
     4   6     0.00   0.01  -0.08     0.00   0.00   0.00     0.00  -0.01   0.11
     5   6     0.00   0.00   0.05     0.00   0.00   0.07     0.00   0.00  -0.06
     6   6     0.00   0.00  -0.04     0.00   0.00   0.08     0.00   0.00  -0.05
     7   1     0.00   0.02  -0.26    -0.01  -0.03   0.51     0.00  -0.02   0.27
     8   1     0.00  -0.02   0.31    -0.01  -0.03   0.48     0.00  -0.02   0.30
     9   1     0.01   0.04  -0.57     0.00   0.00   0.03     0.01   0.04  -0.57
    10   1    -0.01  -0.04   0.57     0.00   0.00  -0.03     0.01   0.04  -0.57
    11   1     0.00   0.02  -0.31     0.01   0.03  -0.48     0.00  -0.02   0.30
    12   1     0.00  -0.02   0.26     0.01   0.03  -0.51     0.00  -0.02   0.27
                     10                     11                     12
                      A                      A                      A
 Frequencies --    981.7336              1005.9573              1009.2293
 Red. masses --      1.3743                 6.0161                 1.2403
 Frc consts  --      0.7804                 3.5869                 0.7443
 IR Inten    --      0.0000                 0.0000                 0.0000
  Atom  AN      X      Y      Z        X      Y      Z        X      Y      Z
     1   6     0.00   0.01  -0.09     0.16   0.22   0.02     0.00   0.00   0.06
     2   6     0.00  -0.01   0.09    -0.11   0.25   0.01     0.00   0.00  -0.06
     3   6     0.00   0.00   0.00     0.27  -0.03   0.00     0.00   0.00  -0.06
     4   6     0.00   0.00   0.00    -0.27   0.03   0.00     0.00   0.00   0.06
     5   6     0.00  -0.01   0.09     0.11  -0.25  -0.01     0.00   0.00   0.06
     6   6     0.00   0.01  -0.09    -0.16  -0.22  -0.02     0.00   0.00  -0.06
     7   1    -0.01  -0.03   0.50     0.18   0.24   0.02     0.01   0.03  -0.40
     8   1     0.01   0.03  -0.48    -0.12   0.27   0.02    -0.01  -0.03   0.40
     9   1     0.00   0.00  -0.02     0.30  -0.03   0.00    -0.01  -0.03   0.40
    10   1     0.00   0.00  -0.02    -0.30   0.03   0.00     0.01   0.03  -0.40
    11   1     0.01   0.03  -0.48     0.12  -0.27  -0.02     0.01   0.03  -0.40
    12   1    -0.01  -0.03   0.50    -0.18  -0.24  -0.02    -0.01  -0.03   0.40
                     13                     14                     15
                      A                      A                      A
 Frequencies --   1014.7302              1054.4540              1054.5813
 Red. masses --      6.5490                 1.7084                 1.7079
 Frc consts  --      3.9731                 1.1191                 1.1191
 IR Inten    --      0.0000                 6.4805                 6.4773
  Atom  AN      X      Y      Z        X      Y      Z        X      Y      Z
     1   6    -0.17  -0.23  -0.02     0.07   0.10   0.01     0.07  -0.05   0.00
     2   6    -0.12   0.26   0.02    -0.09   0.03   0.00     0.00   0.11   0.01
     3   6     0.29  -0.03   0.00     0.05  -0.08   0.00    -0.11  -0.03   0.00
     4   6     0.29  -0.03   0.00     0.05  -0.08   0.00    -0.11  -0.03   0.00
     5   6    -0.12   0.26   0.02    -0.09   0.03   0.00     0.00   0.11   0.01
     6   6    -0.17  -0.23  -0.02     0.07   0.10   0.01     0.07  -0.05   0.00
     7   1    -0.17  -0.23  -0.02     0.08   0.10   0.01     0.44  -0.32  -0.01
     8   1    -0.12   0.26   0.02    -0.45  -0.13  -0.01     0.21   0.21   0.02
     9   1     0.29  -0.03   0.00     0.01  -0.48  -0.03    -0.14  -0.25  -0.02
    10   1     0.29  -0.03   0.00     0.01  -0.48  -0.03    -0.14  -0.25  -0.02
    11   1    -0.12   0.26   0.02    -0.45  -0.13  -0.01     0.21   0.21   0.02
    12   1    -0.17  -0.23  -0.02     0.08   0.10   0.01     0.44  -0.32  -0.01
                     16                     17                     18
                      A                      A                      A
 Frequencies --   1168.7117              1192.6275              1192.6942
 Red. masses --      1.0905                 1.1370                 1.1370
 Frc consts  --      0.8776                 0.9528                 0.9530
 IR Inten    --      0.0000                 0.0000                 0.0000
  Atom  AN      X      Y      Z        X      Y      Z        X      Y      Z
     1   6    -0.03   0.02   0.00     0.03  -0.02   0.00     0.04  -0.03   0.00
     2   6     0.03   0.01   0.00     0.03   0.01   0.00    -0.05  -0.02   0.00
     3   6     0.00  -0.04   0.00     0.01   0.06   0.00     0.00  -0.01   0.00
     4   6     0.00  -0.04   0.00    -0.01  -0.06   0.00     0.00   0.01   0.00
     5   6     0.03   0.01   0.00    -0.03  -0.01   0.00     0.05   0.02   0.00
     6   6    -0.03   0.02   0.00    -0.03   0.02   0.00    -0.04   0.03   0.00
     7   1    -0.33   0.24   0.01     0.26  -0.19  -0.01     0.38  -0.28  -0.01
     8   1     0.37   0.17   0.02     0.23   0.10   0.01    -0.47  -0.21  -0.02
     9   1    -0.04  -0.40  -0.03     0.06   0.57   0.04     0.00  -0.04   0.00
    10   1    -0.04  -0.40  -0.03    -0.06  -0.57  -0.04     0.00   0.04   0.00
    11   1     0.37   0.17   0.02    -0.23  -0.10  -0.01     0.47   0.21   0.02
    12   1    -0.33   0.24   0.01    -0.26   0.19   0.01    -0.38   0.28   0.01
                     19                     20                     21
                      A                      A                      A
 Frequencies --   1334.1925              1371.6201              1502.1258
 Red. masses --      6.3061                 1.2473                 2.0044
 Frc consts  --      6.6138                 1.3826                 2.6646
 IR Inten    --      0.0000                 0.0000                 7.0428
  Atom  AN      X      Y      Z        X      Y      Z        X      Y      Z
     1   6    -0.23   0.17   0.01    -0.05   0.04   0.00    -0.07  -0.06   0.00
     2   6     0.26   0.12   0.01    -0.05  -0.02   0.00     0.13  -0.01   0.00
     3   6    -0.03  -0.28  -0.02     0.01   0.06   0.00    -0.02   0.14   0.01
     4   6    -0.03  -0.28  -0.02    -0.01  -0.06   0.00    -0.02   0.14   0.01
     5   6     0.26   0.12   0.01     0.05   0.02   0.00     0.13  -0.01   0.00
     6   6    -0.23   0.17   0.01     0.05  -0.04   0.00    -0.07  -0.06   0.00
     7   1     0.24  -0.17  -0.01     0.33  -0.24  -0.01     0.00  -0.14  -0.01
     8   1    -0.27  -0.12  -0.01     0.37   0.16   0.02    -0.35  -0.24  -0.02
     9   1     0.03   0.29   0.02    -0.04  -0.40  -0.03    -0.09  -0.50  -0.03
    10   1     0.03   0.29   0.02     0.04   0.40   0.03    -0.09  -0.50  -0.03
    11   1    -0.27  -0.12  -0.01    -0.37  -0.16  -0.02    -0.35  -0.24  -0.02
    12   1     0.24  -0.17  -0.01    -0.33   0.24   0.01     0.00  -0.14  -0.01
                     22                     23                     24
                      A                      A                      A
 Frequencies --   1502.2287              1627.6881              1627.8418
 Red. masses --      2.0047                 5.3369                 5.3391
 Frc consts  --      2.6655                 8.3307                 8.3357
 IR Inten    --      7.0392                 0.0000                 0.0000
  Atom  AN      X      Y      Z        X      Y      Z        X      Y      Z
     1   6     0.11  -0.10   0.00     0.17   0.05   0.01    -0.23   0.22   0.01
     2   6     0.06   0.10   0.01    -0.28  -0.16  -0.01     0.12  -0.11  -0.01
     3   6    -0.09  -0.04   0.00    -0.13  -0.21  -0.02     0.07  -0.26  -0.02
     4   6    -0.09  -0.04   0.00     0.13   0.21   0.02    -0.07   0.26   0.02
     5   6     0.06   0.10   0.01     0.28   0.16   0.01    -0.12   0.11   0.01
     6   6     0.11  -0.10   0.00    -0.17  -0.05  -0.01     0.23  -0.22  -0.01
     7   1    -0.44   0.30   0.01    -0.01   0.21   0.01     0.35  -0.19  -0.01
     8   1    -0.35  -0.06  -0.01     0.39   0.14   0.01    -0.01  -0.18  -0.01
     9   1    -0.09   0.20   0.01    -0.10   0.29   0.02     0.14   0.30   0.02
    10   1    -0.09   0.20   0.01     0.10  -0.29  -0.02    -0.14  -0.30  -0.02
[...]
 Variable       Old X    -DE/DX   Delta X   Delta X   Delta X     New X
                                 (Linear)    (Quad)   (Total)
    R1        2.64139   0.00000   0.00000   0.00000   0.00000   2.64139
    R2        2.64137   0.00001   0.00000   0.00002   0.00002   2.64139
    R3        2.05248   0.00000   0.00000  -0.00001  -0.00001   2.05247
    R4        2.64137   0.00000   0.00000   0.00001   0.00001   2.64139
    R5        2.05248   0.00000   0.00000  -0.00001  -0.00001   2.05247
    R6        2.64140   0.00000   0.00000  -0.00002  -0.00002   2.64139
    R7        2.05247   0.00000   0.00000   0.00000   0.00000   2.05247
    R8        2.64140   0.00000   0.00000  -0.00001  -0.00001   2.64139
    R9        2.05247   0.00000   0.00000   0.00000   0.00000   2.05247
   R10        2.64137   0.00000   0.00000   0.00002   0.00002   2.64139
   R11        2.05248   0.00000   0.00000  -0.00001  -0.00001   2.05247
   R12        2.05248   0.00000   0.00000  -0.00001  -0.00001   2.05247
    A1        2.09439   0.00000   0.00000   0.00000   0.00000   2.09439
    A2        2.09439   0.00000   0.00000   0.00000   0.00000   2.09439
    A3        2.09441   0.00000   0.00000   0.00000   0.00000   2.09440
    A4        2.09439   0.00000   0.00000  -0.00001  -0.00001   2.09439
    A5        2.09440   0.00000   0.00000   0.00001   0.00001   2.09441
    A6        2.09440   0.00000   0.00000  -0.00001  -0.00001   2.09439
    A7        2.09441   0.00000   0.00000   0.00000   0.00000   2.09441
    A8        2.09439   0.00000   0.00000  -0.00001  -0.00001   2.09438
    A9        2.09439   0.00000   0.00000   0.00001   0.00001   2.09440
   A10        2.09440   0.00000   0.00000   0.00001   0.00001   2.09441
   A11        2.09441   0.00000   0.00000  -0.00001  -0.00001   2.09440
   A12        2.09437   0.00000   0.00000   0.00001   0.00001   2.09438
   A13        2.09438   0.00000   0.00000   0.00001   0.00001   2.09439
   A14        2.09438   0.00000   0.00000   0.00001   0.00001   2.09439
   A15        2.09442   0.00000   0.00000  -0.00001  -0.00001   2.09441
   A16        2.09440   0.00000   0.00000  -0.00001  -0.00001   2.09439
   A17        2.09440   0.00000   0.00000   0.00000   0.00000   2.09440
   A18        2.09438   0.00000   0.00000   0.00001   0.00001   2.09439
    D1       -0.00001   0.00000   0.00000   0.00000   0.00000  -0.00001
    D2        3.14157   0.00000   0.00000   0.00000   0.00000   3.14157
    D3       -3.14158   0.00000   0.00000  -0.00001  -0.00001  -3.14158
    D4        0.00000   0.00000   0.00000   0.00000   0.00000   0.00000
    D5        0.00002   0.00000   0.00000  -0.00001  -0.00001   0.00001
    D6        3.14158   0.00000   0.00000   0.00000   0.00000   3.14159
    D7        3.14159   0.00000   0.00000   0.00000   0.00000   3.14158
    D8       -0.00003   0.00000   0.00000   0.00001   0.00001  -0.00003
    D9        0.00000   0.00000   0.00000   0.00001   0.00001   0.00001
   D10        3.14159   0.00000   0.00000  -0.00001  -0.00001   3.14159
   D11       -3.14158   0.00000   0.00000   0.00000   0.00000  -3.14157
   D12        0.00001   0.00000   0.00000  -0.00001  -0.00001   0.00000
   D13       -0.00002   0.00000   0.00000   0.00000   0.00000  -0.00001
   D14        3.14158   0.00000   0.00000  -0.00001  -0.00001   3.14157
   D15       -3.14158   0.00000   0.00000   0.00000   0.00000  -3.14159
   D16        0.00001   0.00000   0.00000  -0.00002  -0.00002   0.00000
   D17        0.00000   0.00000   0.00000  -0.00001  -0.00001  -0.00001
   D18       -3.14158   0.00000   0.00000  -0.00001  -0.00001  -3.14158
   D19       -3.14159   0.00000   0.00000   0.00000   0.00000  -3.14159
   D20        0.00002   0.00000   0.00000   0.00001   0.00001   0.00003
   D21        0.00001   0.00000   0.00000   0.00000   0.00000   0.00001
   D22        3.14159   0.00000   0.00000   0.00000   0.00000   3.14158
   D23       -3.14159   0.00000   0.00000   0.00001   0.00001  -3.14157
   D24       -0.00001   0.00000   0.00000   0.00001   0.00001   0.00000
         Item               Value     Threshold  Converged?
 Maximum Force            0.000005     0.000015     YES
 RMS     Force            0.000002     0.000010     YES
 Maximum Displacement     0.000016     0.000060     YES
 RMS     Displacement     0.000006     0.000040     YES
 Predicted change in Energy=-3.224285D-10
 Optimization completed.
    -- Stationary point found.
                           ----------------------------
                           !   Optimized Parameters   !
                           ! (Angstroms and Degrees)  !
 --------------------------                            --------------------------
 ! Name  Definition              Value          Derivative Info.                !
 --------------------------------------------------------------------------------
 ! R1    R(1,2)                  1.3978         -DE/DX =    0.0                 !
 ! R2    R(1,3)                  1.3978         -DE/DX =    0.0                 !
 ! R3    R(1,7)                  1.0861         -DE/DX =    0.0                 !
 ! R4    R(2,4)                  1.3978         -DE/DX =    0.0                 !
 ! R5    R(2,8)                  1.0861         -DE/DX =    0.0                 !
 ! R6    R(3,5)                  1.3978         -DE/DX =    0.0                 !
 ! R7    R(3,9)                  1.0861         -DE/DX =    0.0                 !
 ! R8    R(4,6)                  1.3978         -DE/DX =    0.0                 !
 ! R9    R(4,10)                 1.0861         -DE/DX =    0.0                 !
 ! R10   R(5,6)                  1.3978         -DE/DX =    0.0                 !
 ! R11   R(5,11)                 1.0861         -DE/DX =    0.0                 !
 ! R12   R(6,12)                 1.0861         -DE/DX =    0.0                 !
 ! A1    A(2,1,3)              119.9996         -DE/DX =    0.0                 !
 ! A2    A(2,1,7)              119.9997         -DE/DX =    0.0                 !
 ! A3    A(3,1,7)              120.0006         -DE/DX =    0.0                 !
 ! A4    A(1,2,4)              119.9999         -DE/DX =    0.0                 !
 ! A5    A(1,2,8)              120.0001         -DE/DX =    0.0                 !
 ! A6    A(4,2,8)              120.0001         -DE/DX =    0.0                 !
 ! A7    A(1,3,5)              120.001          -DE/DX =    0.0                 !
 ! A8    A(1,3,9)              119.9995         -DE/DX =    0.0                 !
 ! A9    A(5,3,9)              119.9995         -DE/DX =    0.0                 !
 ! A10   A(2,4,6)              120.0003         -DE/DX =    0.0                 !
 ! A11   A(2,4,10)             120.0011         -DE/DX =    0.0                 !
 ! A12   A(6,4,10)             119.9986         -DE/DX =    0.0                 !
 ! A13   A(3,5,6)              119.9989         -DE/DX =    0.0                 !
 ! A14   A(3,5,11)             119.9994         -DE/DX =    0.0                 !
 ! A15   A(6,5,11)             120.0017         -DE/DX =    0.0                 !
 ! A16   A(4,6,5)              120.0003         -DE/DX =    0.0                 !
 ! A17   A(4,6,12)             120.0005         -DE/DX =    0.0                 !
 ! A18   A(5,6,12)             119.9993         -DE/DX =    0.0                 !
 ! D1    D(3,1,2,4)             -0.0005         -DE/DX =    0.0                 !
 ! D2    D(3,1,2,8)            179.9987         -DE/DX =    0.0                 !
 ! D3    D(7,1,2,4)           -179.9992         -DE/DX =    0.0                 !
 ! D4    D(7,1,2,8)              0.0            -DE/DX =    0.0                 !
 ! D5    D(2,1,3,5)              0.0009         -DE/DX =    0.0                 !
 ! D6    D(2,1,3,9)            179.9994         -DE/DX =    0.0                 !
 ! D7    D(7,1,3,5)            179.9996         -DE/DX =    0.0                 !
 ! D8    D(7,1,3,9)             -0.0019         -DE/DX =    0.0                 !
 ! D9    D(1,2,4,6)              0.0            -DE/DX =    0.0                 !
 ! D10   D(1,2,4,10)           179.9999         -DE/DX =    0.0                 !
 ! D11   D(8,2,4,6)           -179.9991         -DE/DX =    0.0                 !
 ! D12   D(8,2,4,10)             0.0008         -DE/DX =    0.0                 !
 ! D13   D(1,3,5,6)             -0.0009         -DE/DX =    0.0                 !
 ! D14   D(1,3,5,11)           179.9992         -DE/DX =    0.0                 !
 ! D15   D(9,3,5,6)           -179.9994         -DE/DX =    0.0                 !
 ! D16   D(9,3,5,11)             0.0007         -DE/DX =    0.0                 !
 ! D17   D(2,4,6,5)              0.0            -DE/DX =    0.0                 !
 ! D18   D(2,4,6,12)          -179.9992         -DE/DX =    0.0                 !
 ! D19   D(10,4,6,5)          -179.9999         -DE/DX =    0.0                 !
 ! D20   D(10,4,6,12)            0.0009         -DE/DX =    0.0                 !
 ! D21   D(3,5,6,4)              0.0004         -DE/DX =    0.0                 !
 ! D22   D(3,5,6,12)           179.9996         -DE/DX =    0.0                 !
 ! D23   D(11,5,6,4)          -179.9997         -DE/DX =    0.0                 !
 ! D24   D(11,5,6,12)           -0.0005         -DE/DX =    0.0                 !
 --------------------------------------------------------------------------------
 GradGradGradGradGradGradGradGradGradGradGradGradGradGradGradGradGradGrad

 Leave Link  103 at Mon Apr 27 05:17:13 2015, MaxMem=   524288000 cpu:         0.1
 (Enter /opt/g09/l9999.exe)
 1\1\GINC-HALS\Freq\RB971\6-311+G(d,p)\C6H6\PB556\27-Apr-2015\0\\#P Geo
 m=AllCheck Guess=TCheck SCRF=Check GenChk RB971/6-311+G(d,p) Freq\\fre
 q-b971_71-43-2.gau\\0,1\C,3.29221,3.39454,0.23496\C,1.90203,3.53953,0.
 22406\C,3.8626,2.12059,0.16135\C,1.08226,2.41057,0.13954\C,3.04283,0.9
 9161,0.07682\C,1.65266,1.13661,0.06592\H,3.92921,4.2718,0.30065\H,1.45
 88,4.52945,0.28128\H,4.94283,2.00793,0.16981\H,0.00203,2.52321,0.13107
 \H,3.48608,0.0017,0.01961\H,1.01566,0.25935,0.00023\\Version=ES64L-G09
 RevD.01\HF=-232.2344511\RMSD=9.848e-10\RMSF=3.707e-06\ZeroPoint=0.0998
 322\Thermal=0.1042553\Dipole=0.0000016,-0.0000018,0.\DipoleDeriv=-0.00
 32047,0.0651673,0.0061741,0.0650368,0.0389157,0.0125982,0.0062161,0.01
 26192,-0.1415916,-0.0276168,-0.0512527,-0.0015561,-0.0512118,0.0635682
 ,0.0125005,-0.00163,0.0125185,-0.1416733,0.0857491,-0.0143786,0.002372
 ,-0.0142844,-0.0494774,0.0057994,0.0023975,0.0057813,-0.1420688,0.0857
 411,-0.0143816,0.0023712,-0.0142866,-0.0494836,0.0057985,0.0024122,0.0
 057785,-0.1420694,-0.0276283,-0.0512527,-0.0015555,-0.051211,0.0635609
 ,0.0124996,-0.0016222,0.0125089,-0.1416764,-0.0031989,0.0651637,0.0061
 737,0.0650352,0.0389256,0.0126004,0.0062106,0.0126195,-0.1415912,0.008
 5359,-0.0813871,-0.0071787,-0.081396,-0.0442201,-0.0131913,-0.0071874,
 -0.0132042,0.1415369,0.0390155,0.0640421,0.0026111,0.064016,-0.0748918
 ,-0.0130486,0.0026102,-0.0130557,0.1416628,-0.1024741,0.0178131,-0.002
 4218,0.0178467,0.0661038,-0.0046583,-0.0024101,-0.0046563,0.1421345,-0
 .1024664,0.017812,-0.0024219,0.0178417,0.0661058,-0.0046583,-0.0024176
 ,-0.0046559,0.1421357,0.039015,0.0640439,0.0026107,0.0640127,-0.074882
 7,-0.0130478,0.0026069,-0.0130505,0.1416646,0.0085326,-0.0813894,-0.00
 71788,-0.0813993,-0.0442244,-0.0131922,-0.0071862,-0.0132033,0.1415363
 \Polar=78.6103097,-0.0346897,78.4608072,0.5371786,2.3785426,41.6458245
 \PG=C01 [X(C6H6)]\NImag=0\\0.67771431,0.03757659,0.70066967,0.01035507
 ,0.03702819,0.13544749,-0.32698263,-0.01080910,-0.00454602,0.66341155,
 0.05286925,-0.12841052,-0.00348804,-0.03056573,0.71499738,-0.00046444,
 -0.00441808,-0.06231426,0.00574031,0.03696737,0.13537835,-0.16024127,0
 .10734092,0.00545875,-0.01518010,0.03422888,0.00187919,0.72962532,0.04
 364622,-0.29466683,-0.01429814,0.08018989,0.02225742,0.00213405,-0.008
 82640,0.64887355,0.00137286,-0.01338173,-0.06287090,0.00483182,0.00146
 294,0.00745905,0.00811146,0.03301445,0.13515806,-0.03664009,-0.0218544
 7,-0.00205034,-0.19621048,-0.12781316,-0.01015437,-0.00167557,-0.00690
 485,-0.00037030,0.72964018,-0.06778228,0.04379046,0.00135762,-0.064154
 47,-0.25850080,-0.01355757,-0.00690429,-0.06754119,-0.00400255,-0.0087
 9062,0.64886736,-0.00500087,0.00204124,0.00735482,-0.00607125,-0.01448
 798,-0.06305477,-0.00037019,-0.00400253,-0.00713977,0.00811464,0.03301
 510,0.13515675,0.06265704,-0.03532523,-0.00146978,-0.05730568,-0.02499
 654,-0.00234116,-0.19619648,-0.06413458,-0.00607043,-0.01517891,0.0801
 8881,0.00483170,0.66342201,0.01061694,-0.05516444,-0.00386296,-0.02499
 626,-0.01223236,-0.00071703,-0.12779351,-0.25847880,-0.01448723,0.0342
 2830,0.02225720,0.00146300,-0.03059390,0.71497403,0.00148696,-0.004532
 91,0.00702345,-0.00234134,-0.00071720,-0.00695413,-0.01015389,-0.01355
 677,-0.06305792,0.00187933,0.00213409,0.00745882,0.00574084,0.03696437
 ,0.13537871,-0.04527200,0.03201839,0.00150656,0.06265754,0.01061714,0.
 00148664,-0.03664011,-0.06778281,-0.00500094,-0.16023811,0.04363492,0.
 00137287,-0.32700218,0.05287317,-0.00046495,0.67773000,0.03201842,-0.0
 2431950,-0.00065876,-0.03532546,-0.05516590,-0.00453321,-0.02185513,0.
 04379050,0.00204138,0.10732969,-0.29464023,-0.01338166,-0.01080487,-0.
 12841077,-0.00441807,0.03758472,0.70064387,0.00150680,-0.00065893,-0.0
 0689781,-0.00147007,-0.00386290,0.00702364,-0.00205063,0.00135782,0.00
 735502,0.00545895,-0.01429803,-0.06287319,-0.00454630,-0.00348817,-0.0
 6231307,0.01035560,0.03702811,0.13544904,-0.15327033,-0.13070014,-0.01
 010237,-0.01266409,-0.02711346,-0.00197314,0.01093797,0.01200874,0.000
 88624,-0.00545119,0.00210565,-0.00005009,-0.00007467,0.00301741,0.0000
 8669,-0.00058939,0.00095426,0.00006643,0.15974304,-0.13069761,-0.23827
 154,-0.01488636,0.00429668,0.00598051,0.00024826,-0.01940291,-0.017548
 04,-0.00160894,0.00126149,0.00162339,-0.00034603,0.00386209,-0.0037351
 6,-0.00065275,0.00095365,0.00003198,0.00007617,0.14063268,0.25117529,-
 0.01010338,-0.01488714,-0.03749966,0.00004858,-0.00020787,0.00307774,-
 0.00113428,-0.00115183,0.00300011,-0.00010397,-0.00033362,0.00726446,0
 .00014142,-0.00066546,0.00724709,0.00006636,0.00007680,-0.00093078,0.0
 1099697,0.01657252,0.02654019,-0.00729102,0.02991226,0.00177209,-0.104
 30054,0.10264789,0.00561441,-0.00582559,-0.00052788,-0.00022480,0.0112
 2371,-0.01805502,-0.00104302,-0.00094726,-0.00074913,-0.00004833,-0.00
 160940,-0.00345341,-0.00035143,0.00096158,-0.00043379,0.00004377,0.107
 04766,-0.00150128,0.00057488,-0.00018364,0.10265104,-0.28749262,-0.014
 64594,0.00031449,0.00200041,-0.00033524,0.01335750,-0.01783433,-0.0011
 5101,-0.00074935,0.00039315,0.00007448,-0.00429667,-0.00219190,-0.0006
 7196,0.00037488,0.00070832,0.00030664,-0.11046755,0.30414432,-0.000247
 54,0.00027224,0.00310421,0.00561420,-0.01464367,-0.03725358,-0.0001708
 3,-0.00034780,0.00726298,0.00097693,-0.00160890,0.00300143,-0.00004792
 ,0.00007381,-0.00093226,-0.00040584,-0.00065956,0.00723964,0.00009594,
 0.00029563,-0.00395928,-0.00591528,0.01631527,0.02627589,-0.00860529,-
 0.00193114,-0.00029484,0.00129060,0.00264137,0.00008282,-0.33128813,0.
 02848815,-0.00245324,0.00071159,-0.00020726,0.00001031,-0.01369476,0.0
 0521595,0.00009144,0.00012998,-0.00372913,-0.00034403,0.00076448,0.000
 31014,0.00008864,-0.00054373,-0.00014345,-0.00002007,0.35130741,0.0294
 8133,0.00188374,0.00035092,0.00179693,-0.00509385,-0.00077005,0.028486
 23,-0.06121661,-0.00118242,-0.00020734,-0.00125970,-0.00002380,-0.0261
 9639,0.00700279,-0.00012938,-0.00288468,-0.00392606,-0.00076310,-0.000
 49788,0.00090537,0.00030726,0.00150508,-0.00009624,0.00000246,-0.03066
 173,0.06065416,0.00172413,-0.00010524,0.00310991,0.00002917,-0.0007579
 8,0.00724011,-0.00245332,-0.00118247,-0.03649468,0.00001076,-0.0000239
 8,-0.00093792,-0.00192935,0.00032688,0.00308343,-0.00029006,-0.0007749
 9,0.00723396,0.00003737,0.00031871,-0.00395947,0.00008585,-0.00002147,
 0.00020505,0.00276689,0.00182711,0.02545873,0.00013019,-0.00372896,-0.
 00034406,-0.01369420,0.00521596,0.00009131,0.00071158,-0.00020724,0.00
 001032,-0.33129377,0.02848391,-0.00245547,0.00129051,0.00264135,0.0000
 8278,-0.00860550,-0.00193104,-0.00029495,-0.00079768,0.00029170,0.0000
 0420,0.00080623,-0.00029559,0.00005048,-0.00008067,0.00002099,0.000017
 47,0.35131252,-0.00288456,-0.00392595,-0.00076308,-0.02619627,0.007002
 91,-0.00012946,-0.00020738,-0.00125970,-0.00002381,0.02848188,-0.06121
 509,-0.00118228,0.00179696,-0.00509389,-0.00077005,0.02948141,0.001883
 63,0.00035104,-0.00135622,0.00015967,-0.00002256,0.00051378,0.00086215
 ,0.00031881,0.00002098,0.00012463,0.00008479,-0.03065773,0.06065251,-0
 .00029010,-0.00077486,0.00723433,-0.00192890,0.00032702,0.00308335,0.0
 0001072,-0.00002402,-0.00093791,-0.00245643,-0.00118236,-0.03649378,0.
 00002919,-0.00075809,0.00723967,0.00172444,-0.00010532,0.00310970,-0.0
 0010175,0.00000133,0.00020382,0.00010283,0.00030736,-0.00395980,0.0000
 1747,0.00008479,-0.00118345,0.00276930,0.00182691,0.02545818,-0.001609
 46,-0.00345336,-0.00035149,-0.00094727,-0.00074908,-0.00004832,0.01122
 360,-0.01805486,-0.00104292,-0.00582532,-0.00052803,-0.00022489,-0.104
 30493,0.10265371,0.00561369,-0.00729045,0.02991157,0.00177194,0.000382
 07,-0.00097097,-0.00005990,0.00009627,0.00007875,0.00002382,0.00080625
 ,0.00051371,0.00010286,-0.00054371,0.00150506,0.00008589,0.10705136,-0
 .00429665,-0.00219200,-0.00067193,-0.00074937,0.00039318,0.00007447,0.
 01335766,-0.01783417,-0.00115079,0.00031434,0.00200044,-0.00033521,0.1
 0265649,-0.28749220,-0.01464407,-0.00150163,0.00057543,-0.00018355,0.0
 0067722,-0.00101645,-0.00006879,0.00007874,-0.00005170,0.00007431,-0.0
 0029558,0.00086213,0.00030730,-0.00014346,-0.00009621,-0.00002147,-0.1
 1047271,0.30414325,-0.00040588,-0.00065960,0.00723920,-0.00004798,0.00
 007378,-0.00093224,0.00097704,-0.00160917,0.00300106,-0.00017080,-0.00
 034776,0.00726329,0.00561324,-0.01464121,-0.03725213,-0.00024737,0.000
 27223,0.00310397,0.00004611,-0.00009260,0.00019983,0.00002381,0.000074
 31,-0.00118413,0.00005044,0.00031879,-0.00395945,-0.00002006,0.0000024
 5,0.00020507,-0.00591448,0.01631311,0.02627507,-0.00058945,0.00095424,
 0.00006642,-0.00007471,0.00301748,0.00008674,-0.00545123,0.00210563,-0
 .00005007,0.01093795,0.01200867,0.00088624,-0.01266471,-0.02711402,-0.
 00197323,-0.15327039,-0.13069961,-0.01010228,0.00005820,-0.00010315,0.
 00001158,0.00038208,0.00067723,0.00004611,-0.00079773,-0.00135626,-0.0
 0010177,0.00076449,-0.00049790,0.00003735,0.00096159,0.00037494,0.0000
 9594,0.15974391,0.00095363,0.00003204,0.00007618,0.00386213,-0.0037353
 6,-0.00065282,0.00126144,0.00162345,-0.00034606,-0.01940276,-0.0175475
 2,-0.00160883,0.00429652,0.00598045,0.00024824,-0.13069762,-0.23827104
 ,-0.01488650,-0.00010314,-0.00001334,0.00007406,-0.00097097,-0.0010164
 5,-0.00009259,0.00029170,0.00015965,0.00000133,0.00031011,0.00090534,0
 .00031871,-0.00043378,0.00070830,0.00029565,0.14063274,0.25117449,0.00
 006639,0.00007681,-0.00093080,0.00014150,-0.00066548,0.00724674,-0.000
 10403,-0.00033360,0.00726488,-0.00113441,-0.00115204,0.00299985,0.0000
 4854,-0.00020791,0.00307835,-0.01010332,-0.01488696,-0.03750011,0.0000
 1158,0.00007405,-0.00118404,-0.00005990,-0.00006879,0.00019985,0.00000
 419,-0.00002258,0.00020377,0.00008868,0.00030724,-0.00395918,0.0000438
 2,0.00030662,-0.00395954,0.01099696,0.01657264,0.02654023\\-0.00000166
 ,-0.00000549,-0.00000086,0.00000063,-0.00000899,-0.00000134,-0.0000014
 2,0.00001091,0.00000140,-0.00000090,0.00000539,0.00000193,-0.00000792,
 -0.00000470,-0.00000112,0.00000813,0.00000387,0.,0.00000117,0.00000350
 ,0.00000003,-0.00000133,0.00000300,0.,0.00000056,0.,-0.00000050,0.0000
 0019,-0.00000184,-0.00000030,0.00000279,-0.00000188,0.00000067,-0.0000
 0024,-0.00000376,0.00000010\\\@


 FAULTILY FAULTLESS, ICILY REGULAR, SPLENDIDLY NULL...
           MAUDE BY TENNYSON
 Job cpu time:       0 days  0 hours 23 minutes 49.4 seconds.
 File lengths (MBytes):  RWF=     36 Int=      0 D2E=      0 Chk=      3 Scr=      1
 Normal termination of Gaussian 09 at Mon Apr 27 05:17:13 2015.
