 Entering Gaussian System, Link 0=g09
 Input=0_0freq-b971_71-41-0.gau
 Output=0_0freq-b971_71-41-0.log
 Initial command:
 /opt/g09/l1.exe "/scratch/pb556/g09_run/add_hco//Gau-14534.inp" -scrdir="/scratch/pb556/g09_run/add_hco//"
 Entering Link 1 = /opt/g09/l1.exe PID=     14543.
  
 Copyright (c) 1988,1990,1992,1993,1995,1998,2003,2009,2013,
            Gaussian, Inc.  All Rights Reserved.
  
 This is part of the Gaussian(R) 09 program.  It is based on
 the Gaussian(R) 03 system (copyright 2003, Gaussian, Inc.),
 the Gaussian(R) 98 system (copyright 1998, Gaussian, Inc.),
 the Gaussian(R) 94 system (copyright 1995, Gaussian, Inc.),
 the Gaussian 92(TM) system (copyright 1992, Gaussian, Inc.),
 the Gaussian 90(TM) system (copyright 1990, Gaussian, Inc.),
 the Gaussian 88(TM) system (copyright 1988, Gaussian, Inc.),
 the Gaussian 86(TM) system (copyright 1986, Carnegie Mellon
 University), and the Gaussian 82(TM) system (copyright 1983,
 Carnegie Mellon University). Gaussian is a federally registered
 trademark of Gaussian, Inc.
  
 This software contains proprietary and confidential information,
 including trade secrets, belonging to Gaussian, Inc.
  
 This software is provided under written license and may be
 used, copied, transmitted, or stored only in accord with that
 written license.
  
 The following legend is applicable only to US Government
 contracts under FAR:
  
                    RESTRICTED RIGHTS LEGEND
  
 Use, reproduction and disclosure by the US Government is
 subject to restrictions as set forth in subparagraphs (a)
 and (c) of the Commercial Computer Software - Restricted
 Rights clause in FAR 52.227-19.
  
 Gaussian, Inc.
 340 Quinnipiac St., Bldg. 40, Wallingford CT 06492
  
  
 ---------------------------------------------------------------
 Warning -- This program may not be used in any manner that
 competes with the business of Gaussian, Inc. or will provide
 assistance to any competitor of Gaussian, Inc.  The licensee
 of this program is prohibited from giving any competitor of
 Gaussian, Inc. access to this program.  By using this program,
 the user acknowledges that Gaussian, Inc. is engaged in the
 business of creating and licensing software in the field of
 computational chemistry and represents and warrants to the
 licensee that it is not a competitor of Gaussian, Inc. and that
 it will not use this program in any manner prohibited above.
 ---------------------------------------------------------------
  

 Cite this work as:
 Gaussian 09, Revision D.01,
 M. J. Frisch, G. W. Trucks, H. B. Schlegel, G. E. Scuseria, 
 M. A. Robb, J. R. Cheeseman, G. Scalmani, V. Barone, B. Mennucci, 
 G. A. Petersson, H. Nakatsuji, M. Caricato, X. Li, H. P. Hratchian, 
 A. F. Izmaylov, J. Bloino, G. Zheng, J. L. Sonnenberg, M. Hada, 
 M. Ehara, K. Toyota, R. Fukuda, J. Hasegawa, M. Ishida, T. Nakajima, 
 Y. Honda, O. Kitao, H. Nakai, T. Vreven, J. A. Montgomery, Jr., 
 J. E. Peralta, F. Ogliaro, M. Bearpark, J. J. Heyd, E. Brothers, 
 K. N. Kudin, V. N. Staroverov, T. Keith, R. Kobayashi, J. Normand, 
 K. Raghavachari, A. Rendell, J. C. Burant, S. S. Iyengar, J. Tomasi, 
 M. Cossi, N. Rega, J. M. Millam, M. Klene, J. E. Knox, J. B. Cross, 
 V. Bakken, C. Adamo, J. Jaramillo, R. Gomperts, R. E. Stratmann, 
 O. Yazyev, A. J. Austin, R. Cammi, C. Pomelli, J. W. Ochterski, 
 R. L. Martin, K. Morokuma, V. G. Zakrzewski, G. A. Voth, 
 P. Salvador, J. J. Dannenberg, S. Dapprich, A. D. Daniels, 
 O. Farkas, J. B. Foresman, J. V. Ortiz, J. Cioslowski, 
 and D. J. Fox, Gaussian, Inc., Wallingford CT, 2013.
 
 ******************************************
 Gaussian 09:  ES64L-G09RevD.01 24-Apr-2013
                27-Apr-2015 
 ******************************************
 %NProcShared=8
 Will use up to    8 processors via shared memory.
 %Mem=500MW
 ----------------------------------------------------------------------
 #p rB971/6-311+G(d,p) Opt=(Tight, CalcAll) Freq GFInput Population=Non
 e Integral(Grid=UltraFine) Guess=MIX NoSymmetry
 ----------------------------------------------------------------------
 1/7=10,10=4,14=-1,18=20,19=15,26=4,38=1/1,3;
 2/9=110,12=2,15=1,17=6,18=5,40=1/2;
 3/5=4,6=6,7=111,11=2,16=1,24=10,25=1,30=1,71=2,74=-20,75=-5,116=1,140=1/1,2,3;
 4/13=-1/1;
 5/5=2,38=5/2;
 8/6=4,10=90,11=11/1;
 11/6=1,8=1,9=11,15=111,16=1,31=1/1,2,10;
 10/6=1,31=1/2;
 7/10=1,25=1,30=1/1,2,3,16;
 1/7=10,10=4,14=-1,18=20,19=15,26=4/3(3);
 2/9=110,15=1/2;
 7/8=1,9=1,25=1,30=1,44=-1/16;
 99//99;
 2/9=110,15=1/2;
 3/5=4,6=6,7=111,11=2,16=1,25=1,30=1,71=2,74=-20,75=-5,116=1,140=1/1,2,3;
 4/5=5,16=3,69=1/1;
 5/5=2,38=5/2;
 8/6=4,10=90,11=11/1;
 11/6=1,8=1,9=11,15=111,16=1,31=1/1,2,10;
 10/6=1,31=1/2;
 7/10=1,25=1,30=1/1,2,3,16;
 1/7=10,10=4,14=-1,18=20,19=15,26=4/3(-8);
 2/9=110,15=1/2;
 7/8=1,9=1,25=1,30=1,44=-1/16;
 99//99;
 Leave Link    1 at Mon Apr 27 05:03:37 2015, MaxMem=   524288000 cpu:         0.8
 (Enter /opt/g09/l101.exe)
 ---------------------
 freq-b971_71-41-0.gau
 ---------------------
 Symbolic Z-matrix:
 Charge =  0 Multiplicity = 1
 C                     2.01013   2.29426   1.88337 
 C                     3.25289   1.66876   1.23466 
 C                     4.47177   1.63039   2.16815 
 C                     0.77124   2.28992   0.98212 
 C                     5.71396   1.01555   1.50973 
 O                     0.33607   0.97977   0.62367 
 H                     2.22185   3.33496   2.169 
 H                     1.77368   1.76478   2.81969 
 H                     3.01225   0.65166   0.90042 
 H                     3.50747   2.23689   0.32795 
 H                     4.70359   2.64993   2.5067 
 H                     4.21659   1.0594    3.07181 
 H                     0.99316   2.78885   0.03265 
 H                    -0.04554   2.84788   1.46466 
 H                     5.5212   -0.01516   1.18986 
 H                     6.01394   1.58643   0.6231 
 H                     6.56516   0.998     2.1988 
 H                     0.0681    0.52324   1.42646 
 
 NAtoms=     18 NQM=       18 NQMF=       0 NMMI=      0 NMMIF=      0
                NMic=       0 NMicF=      0.
                    Isotopes and Nuclear Properties:
 (Nuclear quadrupole moments (NQMom) in fm**2, nuclear magnetic moments (NMagM)
  in nuclear magnetons)

  Atom         1           2           3           4           5           6           7           8           9          10
 IAtWgt=          12          12          12          12          12          16           1           1           1           1
 AtmWgt=  12.0000000  12.0000000  12.0000000  12.0000000  12.0000000  15.9949146   1.0078250   1.0078250   1.0078250   1.0078250
 NucSpn=           0           0           0           0           0           0           1           1           1           1
 AtZEff=   0.0000000   0.0000000   0.0000000   0.0000000   0.0000000   0.0000000   0.0000000   0.0000000   0.0000000   0.0000000
 NQMom=    0.0000000   0.0000000   0.0000000   0.0000000   0.0000000   0.0000000   0.0000000   0.0000000   0.0000000   0.0000000
 NMagM=    0.0000000   0.0000000   0.0000000   0.0000000   0.0000000   0.0000000   2.7928460   2.7928460   2.7928460   2.7928460
 AtZNuc=   6.0000000   6.0000000   6.0000000   6.0000000   6.0000000   8.0000000   1.0000000   1.0000000   1.0000000   1.0000000

  Atom        11          12          13          14          15          16          17          18
 IAtWgt=           1           1           1           1           1           1           1           1
 AtmWgt=   1.0078250   1.0078250   1.0078250   1.0078250   1.0078250   1.0078250   1.0078250   1.0078250
 NucSpn=           1           1           1           1           1           1           1           1
 AtZEff=   0.0000000   0.0000000   0.0000000   0.0000000   0.0000000   0.0000000   0.0000000   0.0000000
 NQMom=    0.0000000   0.0000000   0.0000000   0.0000000   0.0000000   0.0000000   0.0000000   0.0000000
 NMagM=    2.7928460   2.7928460   2.7928460   2.7928460   2.7928460   2.7928460   2.7928460   2.7928460
 AtZNuc=   1.0000000   1.0000000   1.0000000   1.0000000   1.0000000   1.0000000   1.0000000   1.0000000
 Leave Link  101 at Mon Apr 27 05:03:37 2015, MaxMem=   524288000 cpu:         2.0
 (Enter /opt/g09/l103.exe)

 GradGradGradGradGradGradGradGradGradGradGradGradGradGradGradGradGradGrad
 Berny optimization.
 Initialization pass.
                           ----------------------------
                           !    Initial Parameters    !
                           ! (Angstroms and Degrees)  !
 --------------------------                            --------------------------
 ! Name  Definition              Value          Derivative Info.                !
 --------------------------------------------------------------------------------
 ! R1    R(1,2)                  1.5351         calculate D2E/DX2 analytically  !
 ! R2    R(1,4)                  1.532          calculate D2E/DX2 analytically  !
 ! R3    R(1,7)                  1.0998         calculate D2E/DX2 analytically  !
 ! R4    R(1,8)                  1.1013         calculate D2E/DX2 analytically  !
 ! R5    R(2,3)                  1.5358         calculate D2E/DX2 analytically  !
 ! R6    R(2,9)                  1.0973         calculate D2E/DX2 analytically  !
 ! R7    R(2,10)                 1.0999         calculate D2E/DX2 analytically  !
 ! R8    R(3,5)                  1.5345         calculate D2E/DX2 analytically  !
 ! R9    R(3,11)                 1.099          calculate D2E/DX2 analytically  !
 ! R10   R(3,12)                 1.099          calculate D2E/DX2 analytically  !
 ! R11   R(4,6)                  1.4263         calculate D2E/DX2 analytically  !
 ! R12   R(4,13)                 1.0953         calculate D2E/DX2 analytically  !
 ! R13   R(4,14)                 1.1006         calculate D2E/DX2 analytically  !
 ! R14   R(5,15)                 1.0963         calculate D2E/DX2 analytically  !
 ! R15   R(5,16)                 1.0964         calculate D2E/DX2 analytically  !
 ! R16   R(5,17)                 1.0953         calculate D2E/DX2 analytically  !
 ! R17   R(6,18)                 0.9616         calculate D2E/DX2 analytically  !
 ! A1    A(2,1,4)              113.8856         calculate D2E/DX2 analytically  !
 ! A2    A(2,1,7)              109.8455         calculate D2E/DX2 analytically  !
 ! A3    A(2,1,8)              109.7052         calculate D2E/DX2 analytically  !
 ! A4    A(4,1,7)              108.1283         calculate D2E/DX2 analytically  !
 ! A5    A(4,1,8)              108.9748         calculate D2E/DX2 analytically  !
 ! A6    A(7,1,8)              105.9899         calculate D2E/DX2 analytically  !
 ! A7    A(1,2,3)              113.3185         calculate D2E/DX2 analytically  !
 ! A8    A(1,2,9)              109.1996         calculate D2E/DX2 analytically  !
 ! A9    A(1,2,10)             108.9827         calculate D2E/DX2 analytically  !
 ! A10   A(3,2,9)              109.6356         calculate D2E/DX2 analytically  !
 ! A11   A(3,2,10)             109.2864         calculate D2E/DX2 analytically  !
 ! A12   A(9,2,10)             106.167          calculate D2E/DX2 analytically  !
 ! A13   A(2,3,5)              113.0597         calculate D2E/DX2 analytically  !
 ! A14   A(2,3,11)             109.3586         calculate D2E/DX2 analytically  !
 ! A15   A(2,3,12)             109.1779         calculate D2E/DX2 analytically  !
 ! A16   A(5,3,11)             109.4593         calculate D2E/DX2 analytically  !
 ! A17   A(5,3,12)             109.4276         calculate D2E/DX2 analytically  !
 ! A18   A(11,3,12)            106.1214         calculate D2E/DX2 analytically  !
 ! A19   A(1,4,6)              113.4012         calculate D2E/DX2 analytically  !
 ! A20   A(1,4,13)             110.1705         calculate D2E/DX2 analytically  !
 ! A21   A(1,4,14)             109.924          calculate D2E/DX2 analytically  !
 ! A22   A(6,4,13)             105.2118         calculate D2E/DX2 analytically  !
 ! A23   A(6,4,14)             110.4529         calculate D2E/DX2 analytically  !
 ! A24   A(13,4,14)            107.4274         calculate D2E/DX2 analytically  !
 ! A25   A(3,5,15)             111.0743         calculate D2E/DX2 analytically  !
 ! A26   A(3,5,16)             111.0918         calculate D2E/DX2 analytically  !
 ! A27   A(3,5,17)             111.444          calculate D2E/DX2 analytically  !
 ! A28   A(15,5,16)            107.5602         calculate D2E/DX2 analytically  !
 ! A29   A(15,5,17)            107.7668         calculate D2E/DX2 analytically  !
 ! A30   A(16,5,17)            107.7267         calculate D2E/DX2 analytically  !
 ! A31   A(4,6,18)             108.138          calculate D2E/DX2 analytically  !
 ! D1    D(4,1,2,3)           -177.7599         calculate D2E/DX2 analytically  !
 ! D2    D(4,1,2,9)            -55.2407         calculate D2E/DX2 analytically  !
 ! D3    D(4,1,2,10)            60.3272         calculate D2E/DX2 analytically  !
 ! D4    D(7,1,2,3)             60.8002         calculate D2E/DX2 analytically  !
 ! D5    D(7,1,2,9)           -176.6806         calculate D2E/DX2 analytically  !
 ! D6    D(7,1,2,10)           -61.1128         calculate D2E/DX2 analytically  !
 ! D7    D(8,1,2,3)            -55.3256         calculate D2E/DX2 analytically  !
 ! D8    D(8,1,2,9)             67.1936         calculate D2E/DX2 analytically  !
 ! D9    D(8,1,2,10)          -177.2385         calculate D2E/DX2 analytically  !
 ! D10   D(2,1,4,6)             61.9733         calculate D2E/DX2 analytically  !
 ! D11   D(2,1,4,13)           -55.6435         calculate D2E/DX2 analytically  !
 ! D12   D(2,1,4,14)          -173.8421         calculate D2E/DX2 analytically  !
 ! D13   D(7,1,4,6)           -175.638          calculate D2E/DX2 analytically  !
 ! D14   D(7,1,4,13)            66.7452         calculate D2E/DX2 analytically  !
 ! D15   D(7,1,4,14)           -51.4534         calculate D2E/DX2 analytically  !
 ! D16   D(8,1,4,6)            -60.8613         calculate D2E/DX2 analytically  !
 ! D17   D(8,1,4,13)          -178.4782         calculate D2E/DX2 analytically  !
 ! D18   D(8,1,4,14)            63.3233         calculate D2E/DX2 analytically  !
 ! D19   D(1,2,3,5)           -179.4866         calculate D2E/DX2 analytically  !
 ! D20   D(1,2,3,11)           -57.2557         calculate D2E/DX2 analytically  !
 ! D21   D(1,2,3,12)            58.4536         calculate D2E/DX2 analytically  !
 ! D22   D(9,2,3,5)             58.2364         calculate D2E/DX2 analytically  !
 ! D23   D(9,2,3,11)          -179.5326         calculate D2E/DX2 analytically  !
 ! D24   D(9,2,3,12)           -63.8233         calculate D2E/DX2 analytically  !
 ! D25   D(10,2,3,5)           -57.7434         calculate D2E/DX2 analytically  !
 ! D26   D(10,2,3,11)           64.4875         calculate D2E/DX2 analytically  !
 ! D27   D(10,2,3,12)         -179.8032         calculate D2E/DX2 analytically  !
 ! D28   D(2,3,5,15)           -59.6155         calculate D2E/DX2 analytically  !
 ! D29   D(2,3,5,16)            60.0664         calculate D2E/DX2 analytically  !
 ! D30   D(2,3,5,17)          -179.7941         calculate D2E/DX2 analytically  !
 ! D31   D(11,3,5,15)          178.2098         calculate D2E/DX2 analytically  !
 ! D32   D(11,3,5,16)          -62.1083         calculate D2E/DX2 analytically  !
 ! D33   D(11,3,5,17)           58.0313         calculate D2E/DX2 analytically  !
 ! D34   D(12,3,5,15)           62.3042         calculate D2E/DX2 analytically  !
 ! D35   D(12,3,5,16)         -178.0139         calculate D2E/DX2 analytically  !
 ! D36   D(12,3,5,17)          -57.8743         calculate D2E/DX2 analytically  !
 ! D37   D(1,4,6,18)            63.5799         calculate D2E/DX2 analytically  !
 ! D38   D(13,4,6,18)         -175.9535         calculate D2E/DX2 analytically  !
 ! D39   D(14,4,6,18)          -60.3168         calculate D2E/DX2 analytically  !
 --------------------------------------------------------------------------------
 Trust Radius=3.00D-01 FncErr=1.00D-07 GrdErr=1.00D-06
 Number of steps in this run=     97 maximum allowed number of steps=    108.
 GradGradGradGradGradGradGradGradGradGradGradGradGradGradGradGradGradGrad

 Leave Link  103 at Mon Apr 27 05:03:37 2015, MaxMem=   524288000 cpu:         0.1
 (Enter /opt/g09/l202.exe)
                          Input orientation:                          
 ---------------------------------------------------------------------
 Center     Atomic      Atomic             Coordinates (Angstroms)
 Number     Number       Type             X           Y           Z
 ---------------------------------------------------------------------
      1          6           0        2.010130    2.294260    1.883370
      2          6           0        3.252890    1.668760    1.234660
      3          6           0        4.471770    1.630390    2.168150
      4          6           0        0.771240    2.289920    0.982120
      5          6           0        5.713960    1.015550    1.509730
      6          8           0        0.336070    0.979770    0.623670
      7          1           0        2.221850    3.334960    2.169000
      8          1           0        1.773680    1.764780    2.819690
      9          1           0        3.012250    0.651660    0.900420
     10          1           0        3.507470    2.236890    0.327950
     11          1           0        4.703590    2.649930    2.506700
     12          1           0        4.216590    1.059400    3.071810
     13          1           0        0.993160    2.788850    0.032650
     14          1           0       -0.045540    2.847880    1.464660
     15          1           0        5.521200   -0.015160    1.189860
     16          1           0        6.013940    1.586430    0.623100
     17          1           0        6.565160    0.998000    2.198800
     18          1           0        0.068100    0.523240    1.426460
 ---------------------------------------------------------------------
                    Distance matrix (angstroms):
                    1          2          3          4          5
     1  C    0.000000
     2  C    1.535098   0.000000
     3  C    2.565442   1.535755   0.000000
     4  C    1.532031   2.570643   3.941519   0.000000
     5  C    3.936123   2.561096   1.534464   5.131557   0.000000
     6  O    2.473298   3.058734   4.462369   1.426307   5.450512
     7  H    1.099757   2.170773   2.822711   2.145941   4.243717
     8  H    1.101341   2.170162   2.778895   2.158083   4.219378
     9  H    2.160687   1.097322   2.166853   2.777174   2.793369
    10  H    2.159780   1.099866   2.164267   2.813842   2.785116
    11  H    2.787430   2.164558   1.099008   4.232886   2.164716
    12  H    2.793874   2.162211   1.098976   4.213243   2.164286
    13  H    2.168873   2.793888   4.243008   1.095296   5.254742
    14  H    2.169699   3.510394   4.731096   1.100588   6.044113
    15  H    4.259341   2.825389   2.183160   5.283812   1.096283
    16  H    4.256736   2.829166   2.183438   5.301858   1.096360
    17  H    4.746376   3.514345   2.187039   6.059610   1.095293
    18  H    2.667725   3.389969   4.600891   1.952691   5.667895
                    6          7          8          9         10
     6  O    0.000000
     7  H    3.389857   0.000000
     8  H    2.739611   1.757760   0.000000
     9  H    2.710385   3.071502   2.541002   0.000000
    10  H    3.424263   2.499608   3.072081   1.756678   0.000000
    11  H    5.040880   2.596602   3.076658   3.071457   2.519575
    12  H    4.588918   3.157883   2.555178   2.516271   3.068893
    13  H    2.013416   2.524264   3.070101   3.065507   2.591065
    14  H    2.083921   2.423716   2.513717   3.806813   3.780119
    15  H    5.309993   4.802888   4.457403   2.612136   3.141612
    16  H    5.710188   4.452764   4.778768   3.156081   2.606262
    17  H    6.425179   4.932202   4.892007   3.798541   3.792677
    18  H    0.961613   3.618808   2.528144   2.993531   3.996572
                   11         12         13         14         15
    11  H    0.000000
    12  H    1.756788   0.000000
    13  H    4.461784   4.755838   0.000000
    14  H    4.866135   4.893602   1.770038   0.000000
    15  H    3.083060   2.529510   5.450207   6.265868   0.000000
    16  H    2.529031   3.082922   5.196410   6.246341   1.768926
    17  H    2.507811   2.506331   6.240716   6.903794   1.770397
    18  H    5.213204   4.494954   2.816280   2.327729   5.484720
                   16         17         18
    16  H    0.000000
    17  H    1.770007   0.000000
    18  H    6.093338   6.560007   0.000000
 Symmetry turned off by external request.
 Stoichiometry    C5H12O
 Framework group  C1[X(C5H12O)]
 Deg. of freedom    48
 Full point group                 C1      NOp   1
 Rotational constants (GHZ):      9.0834156      1.3405225      1.2529321
 Leave Link  202 at Mon Apr 27 05:03:37 2015, MaxMem=   524288000 cpu:         0.0
 (Enter /opt/g09/l301.exe)
 Standard basis: 6-311+G(d,p) (5D, 7F)
 Ernie: Thresh=  0.10000D-02 Tol=  0.10000D-05 Strict=F.
 AO basis set in the form of general basis input (Overlap normalization):
      1 0
 S   6 1.00       0.000000000000
      0.4563240000D+04  0.1966650249D-02
      0.6820240000D+03  0.1523060193D-01
      0.1549730000D+03  0.7612690966D-01
      0.4445530000D+02  0.2608010331D+00
      0.1302900000D+02  0.6164620782D+00
      0.1827730000D+01  0.2210060280D+00
 SP   3 1.00       0.000000000000
      0.2096420000D+02  0.1146600807D+00  0.4024869267D-01
      0.4803310000D+01  0.9199996477D+00  0.2375939567D+00
      0.1459330000D+01 -0.3030682134D-02  0.8158538515D+00
 SP   1 1.00       0.000000000000
      0.4834560000D+00  0.1000000000D+01  0.1000000000D+01
 SP   1 1.00       0.000000000000
      0.1455850000D+00  0.1000000000D+01  0.1000000000D+01
 SP   1 1.00       0.000000000000
      0.4380000000D-01  0.1000000000D+01  0.1000000000D+01
 D   1 1.00       0.000000000000
      0.6260000000D+00  0.1000000000D+01
 ****
      2 0
 S   6 1.00       0.000000000000
      0.4563240000D+04  0.1966650249D-02
      0.6820240000D+03  0.1523060193D-01
      0.1549730000D+03  0.7612690966D-01
      0.4445530000D+02  0.2608010331D+00
      0.1302900000D+02  0.6164620782D+00
      0.1827730000D+01  0.2210060280D+00
 SP   3 1.00       0.000000000000
      0.2096420000D+02  0.1146600807D+00  0.4024869267D-01
      0.4803310000D+01  0.9199996477D+00  0.2375939567D+00
      0.1459330000D+01 -0.3030682134D-02  0.8158538515D+00
 SP   1 1.00       0.000000000000
      0.4834560000D+00  0.1000000000D+01  0.1000000000D+01
 SP   1 1.00       0.000000000000
      0.1455850000D+00  0.1000000000D+01  0.1000000000D+01
 SP   1 1.00       0.000000000000
      0.4380000000D-01  0.1000000000D+01  0.1000000000D+01
 D   1 1.00       0.000000000000
      0.6260000000D+00  0.1000000000D+01
 ****
      3 0
 S   6 1.00       0.000000000000
      0.4563240000D+04  0.1966650249D-02
      0.6820240000D+03  0.1523060193D-01
      0.1549730000D+03  0.7612690966D-01
      0.4445530000D+02  0.2608010331D+00
      0.1302900000D+02  0.6164620782D+00
      0.1827730000D+01  0.2210060280D+00
 SP   3 1.00       0.000000000000
      0.2096420000D+02  0.1146600807D+00  0.4024869267D-01
      0.4803310000D+01  0.9199996477D+00  0.2375939567D+00
      0.1459330000D+01 -0.3030682134D-02  0.8158538515D+00
 SP   1 1.00       0.000000000000
      0.4834560000D+00  0.1000000000D+01  0.1000000000D+01
 SP   1 1.00       0.000000000000
      0.1455850000D+00  0.1000000000D+01  0.1000000000D+01
 SP   1 1.00       0.000000000000
      0.4380000000D-01  0.1000000000D+01  0.1000000000D+01
 D   1 1.00       0.000000000000
      0.6260000000D+00  0.1000000000D+01
 ****
      4 0
 S   6 1.00       0.000000000000
      0.4563240000D+04  0.1966650249D-02
      0.6820240000D+03  0.1523060193D-01
      0.1549730000D+03  0.7612690966D-01
      0.4445530000D+02  0.2608010331D+00
      0.1302900000D+02  0.6164620782D+00
      0.1827730000D+01  0.2210060280D+00
 SP   3 1.00       0.000000000000
      0.2096420000D+02  0.1146600807D+00  0.4024869267D-01
      0.4803310000D+01  0.9199996477D+00  0.2375939567D+00
      0.1459330000D+01 -0.3030682134D-02  0.8158538515D+00
 SP   1 1.00       0.000000000000
      0.4834560000D+00  0.1000000000D+01  0.1000000000D+01
 SP   1 1.00       0.000000000000
      0.1455850000D+00  0.1000000000D+01  0.1000000000D+01
 SP   1 1.00       0.000000000000
      0.4380000000D-01  0.1000000000D+01  0.1000000000D+01
 D   1 1.00       0.000000000000
      0.6260000000D+00  0.1000000000D+01
 ****
      5 0
 S   6 1.00       0.000000000000
      0.4563240000D+04  0.1966650249D-02
      0.6820240000D+03  0.1523060193D-01
      0.1549730000D+03  0.7612690966D-01
      0.4445530000D+02  0.2608010331D+00
      0.1302900000D+02  0.6164620782D+00
      0.1827730000D+01  0.2210060280D+00
 SP   3 1.00       0.000000000000
      0.2096420000D+02  0.1146600807D+00  0.4024869267D-01
      0.4803310000D+01  0.9199996477D+00  0.2375939567D+00
      0.1459330000D+01 -0.3030682134D-02  0.8158538515D+00
 SP   1 1.00       0.000000000000
      0.4834560000D+00  0.1000000000D+01  0.1000000000D+01
 SP   1 1.00       0.000000000000
      0.1455850000D+00  0.1000000000D+01  0.1000000000D+01
 SP   1 1.00       0.000000000000
      0.4380000000D-01  0.1000000000D+01  0.1000000000D+01
 D   1 1.00       0.000000000000
      0.6260000000D+00  0.1000000000D+01
 ****
      6 0
 S   6 1.00       0.000000000000
      0.8588500000D+04  0.1895150083D-02
      0.1297230000D+04  0.1438590063D-01
      0.2992960000D+03  0.7073200310D-01
      0.8737710000D+02  0.2400010105D+00
      0.2567890000D+02  0.5947970261D+00
      0.3740040000D+01  0.2808020123D+00
 SP   3 1.00       0.000000000000
      0.4211750000D+02  0.1138890124D+00  0.3651139738D-01
      0.9628370000D+01  0.9208111006D+00  0.2371529830D+00
      0.2853320000D+01 -0.3274470358D-02  0.8197019412D+00
 SP   1 1.00       0.000000000000
      0.9056610000D+00  0.1000000000D+01  0.1000000000D+01
 SP   1 1.00       0.000000000000
      0.2556110000D+00  0.1000000000D+01  0.1000000000D+01
 SP   1 1.00       0.000000000000
      0.8450000000D-01  0.1000000000D+01  0.1000000000D+01
 D   1 1.00       0.000000000000
      0.1292000000D+01  0.1000000000D+01
 ****
      7 0
 S   3 1.00       0.000000000000
      0.3386500000D+02  0.2549381454D-01
      0.5094790000D+01  0.1903731086D+00
      0.1158790000D+01  0.8521614860D+00
 S   1 1.00       0.000000000000
      0.3258400000D+00  0.1000000000D+01
 S   1 1.00       0.000000000000
      0.1027410000D+00  0.1000000000D+01
 P   1 1.00       0.000000000000
      0.7500000000D+00  0.1000000000D+01
 ****
      8 0
 S   3 1.00       0.000000000000
      0.3386500000D+02  0.2549381454D-01
      0.5094790000D+01  0.1903731086D+00
      0.1158790000D+01  0.8521614860D+00
 S   1 1.00       0.000000000000
      0.3258400000D+00  0.1000000000D+01
 S   1 1.00       0.000000000000
      0.1027410000D+00  0.1000000000D+01
 P   1 1.00       0.000000000000
      0.7500000000D+00  0.1000000000D+01
 ****
      9 0
 S   3 1.00       0.000000000000
      0.3386500000D+02  0.2549381454D-01
      0.5094790000D+01  0.1903731086D+00
      0.1158790000D+01  0.8521614860D+00
 S   1 1.00       0.000000000000
      0.3258400000D+00  0.1000000000D+01
 S   1 1.00       0.000000000000
      0.1027410000D+00  0.1000000000D+01
 P   1 1.00       0.000000000000
      0.7500000000D+00  0.1000000000D+01
 ****
     10 0
 S   3 1.00       0.000000000000
      0.3386500000D+02  0.2549381454D-01
      0.5094790000D+01  0.1903731086D+00
      0.1158790000D+01  0.8521614860D+00
 S   1 1.00       0.000000000000
      0.3258400000D+00  0.1000000000D+01
 S   1 1.00       0.000000000000
      0.1027410000D+00  0.1000000000D+01
 P   1 1.00       0.000000000000
      0.7500000000D+00  0.1000000000D+01
 ****
     11 0
 S   3 1.00       0.000000000000
      0.3386500000D+02  0.2549381454D-01
      0.5094790000D+01  0.1903731086D+00
      0.1158790000D+01  0.8521614860D+00
 S   1 1.00       0.000000000000
      0.3258400000D+00  0.1000000000D+01
 S   1 1.00       0.000000000000
      0.1027410000D+00  0.1000000000D+01
 P   1 1.00       0.000000000000
      0.7500000000D+00  0.1000000000D+01
 ****
     12 0
 S   3 1.00       0.000000000000
      0.3386500000D+02  0.2549381454D-01
      0.5094790000D+01  0.1903731086D+00
      0.1158790000D+01  0.8521614860D+00
 S   1 1.00       0.000000000000
      0.3258400000D+00  0.1000000000D+01
 S   1 1.00       0.000000000000
      0.1027410000D+00  0.1000000000D+01
 P   1 1.00       0.000000000000
      0.7500000000D+00  0.1000000000D+01
 ****
     13 0
 S   3 1.00       0.000000000000
      0.3386500000D+02  0.2549381454D-01
      0.5094790000D+01  0.1903731086D+00
      0.1158790000D+01  0.8521614860D+00
 S   1 1.00       0.000000000000
      0.3258400000D+00  0.1000000000D+01
 S   1 1.00       0.000000000000
      0.1027410000D+00  0.1000000000D+01
 P   1 1.00       0.000000000000
      0.7500000000D+00  0.1000000000D+01
 ****
     14 0
 S   3 1.00       0.000000000000
      0.3386500000D+02  0.2549381454D-01
      0.5094790000D+01  0.1903731086D+00
      0.1158790000D+01  0.8521614860D+00
 S   1 1.00       0.000000000000
      0.3258400000D+00  0.1000000000D+01
 S   1 1.00       0.000000000000
      0.1027410000D+00  0.1000000000D+01
 P   1 1.00       0.000000000000
      0.7500000000D+00  0.1000000000D+01
 ****
     15 0
 S   3 1.00       0.000000000000
      0.3386500000D+02  0.2549381454D-01
      0.5094790000D+01  0.1903731086D+00
      0.1158790000D+01  0.8521614860D+00
 S   1 1.00       0.000000000000
      0.3258400000D+00  0.1000000000D+01
 S   1 1.00       0.000000000000
      0.1027410000D+00  0.1000000000D+01
 P   1 1.00       0.000000000000
      0.7500000000D+00  0.1000000000D+01
 ****
     16 0
 S   3 1.00       0.000000000000
      0.3386500000D+02  0.2549381454D-01
      0.5094790000D+01  0.1903731086D+00
      0.1158790000D+01  0.8521614860D+00
 S   1 1.00       0.000000000000
      0.3258400000D+00  0.1000000000D+01
 S   1 1.00       0.000000000000
      0.1027410000D+00  0.1000000000D+01
 P   1 1.00       0.000000000000
      0.7500000000D+00  0.1000000000D+01
 ****
     17 0
 S   3 1.00       0.000000000000
      0.3386500000D+02  0.2549381454D-01
      0.5094790000D+01  0.1903731086D+00
      0.1158790000D+01  0.8521614860D+00
 S   1 1.00       0.000000000000
      0.3258400000D+00  0.1000000000D+01
 S   1 1.00       0.000000000000
      0.1027410000D+00  0.1000000000D+01
 P   1 1.00       0.000000000000
      0.7500000000D+00  0.1000000000D+01
 ****
     18 0
 S   3 1.00       0.000000000000
      0.3386500000D+02  0.2549381454D-01
      0.5094790000D+01  0.1903731086D+00
      0.1158790000D+01  0.8521614860D+00
 S   1 1.00       0.000000000000
      0.3258400000D+00  0.1000000000D+01
 S   1 1.00       0.000000000000
      0.1027410000D+00  0.1000000000D+01
 P   1 1.00       0.000000000000
      0.7500000000D+00  0.1000000000D+01
 ****

   204 basis functions,   312 primitive gaussians,   210 cartesian basis functions
    25 alpha electrons       25 beta electrons
       nuclear repulsion energy       246.8424557987 Hartrees.
 IExCor= 1614 DFT=T Ex+Corr=B971 ExCW=0 ScaHFX=  0.210000
 ScaDFX=  1.000000  1.000000  1.000000  1.000000 ScalE2=  1.000000  1.000000
 IRadAn=      5 IRanWt=     -1 IRanGd=            0 ICorTp=0 IEmpDi=  4
 NAtoms=   18 NActive=   18 NUniq=   18 SFac= 1.00D+00 NAtFMM=   60 NAOKFM=F Big=F
 Integral buffers will be    131072 words long.
 Raffenetti 2 integral format.
 Two-electron integral symmetry is turned off.
 Leave Link  301 at Mon Apr 27 05:03:37 2015, MaxMem=   524288000 cpu:         0.4
 (Enter /opt/g09/l302.exe)
 NPDir=0 NMtPBC=     1 NCelOv=     1 NCel=       1 NClECP=     1 NCelD=      1
         NCelK=      1 NCelE2=     1 NClLst=     1 CellRange=     0.0.
 One-electron integrals computed using PRISM.
 NBasis=   204 RedAO= T EigKep=  1.48D-05  NBF=   204
 NBsUse=   204 1.00D-06 EigRej= -1.00D+00 NBFU=   204
 Precomputing XC quadrature grid using
 IXCGrd= 4 IRadAn=           5 IRanWt=          -1 IRanGd=           0 AccXCQ= 0.00D+00.
 Generated NRdTot=       0 NPtTot=           0 NUsed=           0 NTot=          32
 NSgBfM=   210   210   210   210   210 MxSgAt=    18 MxSgA2=    18.
 Leave Link  302 at Mon Apr 27 05:03:37 2015, MaxMem=   524288000 cpu:         2.6
 (Enter /opt/g09/l303.exe)
 DipDrv:  MaxL=1.
 Leave Link  303 at Mon Apr 27 05:03:38 2015, MaxMem=   524288000 cpu:         0.4
 (Enter /opt/g09/l401.exe)
 ExpMin= 4.38D-02 ExpMax= 8.59D+03 ExpMxC= 1.30D+03 IAcc=3 IRadAn=         5 AccDes= 0.00D+00
 Harris functional with IExCor= 1614 and IRadAn=       5 diagonalized for initial guess.
 HarFok:  IExCor= 1614 AccDes= 0.00D+00 IRadAn=         5 IDoV= 1 UseB2=F ITyADJ=14
 ICtDFT=  3500011 ScaDFX=  1.000000  1.000000  1.000000  1.000000
 FoFCou: FMM=F IPFlag=           0 FMFlag=      100000 FMFlg1=           0
         NFxFlg=           0 DoJE=T BraDBF=F KetDBF=T FulRan=T
         wScrn=  0.000000 ICntrl=     500 IOpCl=  0 I1Cent=   200000004 NGrid=           0
         NMat0=    1 NMatS0=      1 NMatT0=    0 NMatD0=    1 NMtDS0=    0 NMtDT0=    0
 Symmetry not used in FoFCou.
 Harris En= -265.078904972576    
 JPrj=0 DoOrth=F DoCkMO=T.
 Mixing orbitals, IMix= 1 IMixAn=  0 NRI=1 NE=   25 Coef=  7.07106781D-01  7.07106781D-01
 Leave Link  401 at Mon Apr 27 05:03:39 2015, MaxMem=   524288000 cpu:        14.3
 (Enter /opt/g09/l502.exe)
 Closed shell SCF:
 Using DIIS extrapolation, IDIIS=  1040.
 Two-electron integral symmetry not used.
 Keep R1 ints in memory in canonical form, NReq=223475191.
 IVT=      153826 IEndB=      153826 NGot=   524288000 MDV=   305509670
 LenX=   305509670 LenY=   305465129
 Requested convergence on RMS density matrix=1.00D-08 within 128 cycles.
 Requested convergence on MAX density matrix=1.00D-06.
 Requested convergence on             energy=1.00D-06.
 No special actions if energy rises.
 FoFCou: FMM=F IPFlag=           0 FMFlag=           0 FMFlg1=           0
         NFxFlg=           0 DoJE=F BraDBF=F KetDBF=F FulRan=T
         wScrn=  0.000000 ICntrl=     600 IOpCl=  0 I1Cent=           0 NGrid=           0
         NMat0=    1 NMatS0=  20910 NMatT0=    0 NMatD0=    1 NMtDS0=    0 NMtDT0=    0
 Symmetry not used in FoFCou.

 Cycle   1  Pass 1  IDiag  1:
 E= -272.405581844195    
 DIIS: error= 6.70D-02 at cycle   1 NSaved=   1.
 NSaved= 1 IEnMin= 1 EnMin= -272.405581844195     IErMin= 1 ErrMin= 6.70D-02
 ErrMax= 6.70D-02  0.00D+00 EMaxC= 1.00D-01 BMatC= 7.74D-01 BMatP= 7.74D-01
 IDIUse=3 WtCom= 3.30D-01 WtEn= 6.70D-01
 Coeff-Com:  0.100D+01
 Coeff-En:   0.100D+01
 Coeff:      0.100D+01
 Gap=    -0.005 Goal=   None    Shift=    0.000
 GapD=   -0.005 DampG=0.250 DampE=0.500 DampFc=0.2500 IDamp=-1.
 Damping current iteration by 2.50D-01
 RMSDP=3.27D-02 MaxDP=3.31D+00              OVMax= 5.31D-01

 Cycle   2  Pass 1  IDiag  1:
 E= -272.601953233309     Delta-E=       -0.196371389115 Rises=F Damp=T
 DIIS: error= 4.99D-02 at cycle   2 NSaved=   2.
 NSaved= 2 IEnMin= 2 EnMin= -272.601953233309     IErMin= 2 ErrMin= 4.99D-02
 ErrMax= 4.99D-02  0.00D+00 EMaxC= 1.00D-01 BMatC= 2.90D-01 BMatP= 7.74D-01
 IDIUse=3 WtCom= 5.01D-01 WtEn= 4.99D-01
 Coeff-Com: -0.862D+00 0.186D+01
 Coeff-En:   0.000D+00 0.100D+01
 Coeff:     -0.432D+00 0.143D+01
 Gap=     0.301 Goal=   None    Shift=    0.000
 RMSDP=2.31D-02 MaxDP=2.27D+00 DE=-1.96D-01 OVMax= 1.11D-01

 Cycle   3  Pass 1  IDiag  1:
 E= -272.946927864439     Delta-E=       -0.344974631129 Rises=F Damp=F
 DIIS: error= 1.08D-02 at cycle   3 NSaved=   3.
 NSaved= 3 IEnMin= 3 EnMin= -272.946927864439     IErMin= 3 ErrMin= 1.08D-02
 ErrMax= 1.08D-02  0.00D+00 EMaxC= 1.00D-01 BMatC= 2.10D-02 BMatP= 2.90D-01
 IDIUse=3 WtCom= 8.92D-01 WtEn= 1.08D-01
 Coeff-Com:  0.339D+00-0.408D+00 0.107D+01
 Coeff-En:   0.000D+00 0.000D+00 0.100D+01
 Coeff:      0.302D+00-0.364D+00 0.106D+01
 Gap=     0.362 Goal=   None    Shift=    0.000
 RMSDP=2.31D-03 MaxDP=7.12D-02 DE=-3.45D-01 OVMax= 6.33D-02

 Cycle   4  Pass 1  IDiag  1:
 E= -272.964355573307     Delta-E=       -0.017427708869 Rises=F Damp=F
 DIIS: error= 6.19D-03 at cycle   4 NSaved=   4.
 NSaved= 4 IEnMin= 4 EnMin= -272.964355573307     IErMin= 4 ErrMin= 6.19D-03
 ErrMax= 6.19D-03  0.00D+00 EMaxC= 1.00D-01 BMatC= 6.91D-03 BMatP= 2.10D-02
 IDIUse=3 WtCom= 9.38D-01 WtEn= 6.19D-02
 Coeff-Com: -0.406D-01 0.689D-01 0.306D+00 0.666D+00
 Coeff-En:   0.000D+00 0.000D+00 0.151D+00 0.849D+00
 Coeff:     -0.381D-01 0.646D-01 0.296D+00 0.677D+00
 Gap=     0.290 Goal=   None    Shift=    0.000
 RMSDP=6.00D-04 MaxDP=2.79D-02 DE=-1.74D-02 OVMax= 2.24D-02

 Cycle   5  Pass 1  IDiag  1:
 E= -272.969475772970     Delta-E=       -0.005120199663 Rises=F Damp=F
 DIIS: error= 1.07D-03 at cycle   5 NSaved=   5.
 NSaved= 5 IEnMin= 5 EnMin= -272.969475772970     IErMin= 5 ErrMin= 1.07D-03
 ErrMax= 1.07D-03  0.00D+00 EMaxC= 1.00D-01 BMatC= 3.07D-04 BMatP= 6.91D-03
 IDIUse=3 WtCom= 9.89D-01 WtEn= 1.07D-02
 Coeff-Com: -0.307D-01 0.468D-01 0.884D-01 0.303D+00 0.592D+00
 Coeff-En:   0.000D+00 0.000D+00 0.000D+00 0.000D+00 0.100D+01
 Coeff:     -0.304D-01 0.463D-01 0.875D-01 0.300D+00 0.597D+00
 Gap=     0.285 Goal=   None    Shift=    0.000
 RMSDP=3.21D-04 MaxDP=2.34D-02 DE=-5.12D-03 OVMax= 3.75D-03

 Cycle   6  Pass 1  IDiag  1:
 E= -272.969753269119     Delta-E=       -0.000277496149 Rises=F Damp=F
 DIIS: error= 3.37D-04 at cycle   6 NSaved=   6.
 NSaved= 6 IEnMin= 6 EnMin= -272.969753269119     IErMin= 6 ErrMin= 3.37D-04
 ErrMax= 3.37D-04  0.00D+00 EMaxC= 1.00D-01 BMatC= 2.37D-05 BMatP= 3.07D-04
 IDIUse=3 WtCom= 9.97D-01 WtEn= 3.37D-03
 Coeff-Com: -0.816D-03 0.112D-02-0.154D-02 0.253D-01 0.231D+00 0.745D+00
 Coeff-En:   0.000D+00 0.000D+00 0.000D+00 0.000D+00 0.000D+00 0.100D+01
 Coeff:     -0.813D-03 0.112D-02-0.153D-02 0.252D-01 0.230D+00 0.746D+00
 Gap=     0.286 Goal=   None    Shift=    0.000
 RMSDP=5.49D-05 MaxDP=1.93D-03 DE=-2.77D-04 OVMax= 1.35D-03

 Cycle   7  Pass 1  IDiag  1:
 E= -272.969777345868     Delta-E=       -0.000024076749 Rises=F Damp=F
 DIIS: error= 5.82D-05 at cycle   7 NSaved=   7.
 NSaved= 7 IEnMin= 7 EnMin= -272.969777345868     IErMin= 7 ErrMin= 5.82D-05
 ErrMax= 5.82D-05  0.00D+00 EMaxC= 1.00D-01 BMatC= 8.15D-07 BMatP= 2.37D-05
 IDIUse=1 WtCom= 1.00D+00 WtEn= 0.00D+00
 Coeff-Com:  0.696D-03-0.115D-02-0.355D-02 0.169D-02 0.683D-01 0.271D+00
 Coeff-Com:  0.663D+00
 Coeff:      0.696D-03-0.115D-02-0.355D-02 0.169D-02 0.683D-01 0.271D+00
 Coeff:      0.663D+00
 Gap=     0.286 Goal=   None    Shift=    0.000
 RMSDP=9.80D-06 MaxDP=5.08D-04 DE=-2.41D-05 OVMax= 2.67D-04

 Cycle   8  Pass 1  IDiag  1:
 E= -272.969778006221     Delta-E=       -0.000000660353 Rises=F Damp=F
 DIIS: error= 2.95D-05 at cycle   8 NSaved=   8.
 NSaved= 8 IEnMin= 8 EnMin= -272.969778006221     IErMin= 8 ErrMin= 2.95D-05
 ErrMax= 2.95D-05  0.00D+00 EMaxC= 1.00D-01 BMatC= 1.40D-07 BMatP= 8.15D-07
 IDIUse=1 WtCom= 1.00D+00 WtEn= 0.00D+00
 Coeff-Com:  0.937D-04-0.196D-03-0.140D-02-0.148D-02 0.197D-03 0.194D-01
 Coeff-Com:  0.308D+00 0.675D+00
 Coeff:      0.937D-04-0.196D-03-0.140D-02-0.148D-02 0.197D-03 0.194D-01
 Coeff:      0.308D+00 0.675D+00
 Gap=     0.286 Goal=   None    Shift=    0.000
 RMSDP=3.21D-06 MaxDP=1.93D-04 DE=-6.60D-07 OVMax= 9.10D-05

 Cycle   9  Pass 1  IDiag  1:
 E= -272.969778140760     Delta-E=       -0.000000134540 Rises=F Damp=F
 DIIS: error= 3.04D-06 at cycle   9 NSaved=   9.
 NSaved= 9 IEnMin= 9 EnMin= -272.969778140760     IErMin= 9 ErrMin= 3.04D-06
 ErrMax= 3.04D-06  0.00D+00 EMaxC= 1.00D-01 BMatC= 3.63D-09 BMatP= 1.40D-07
 IDIUse=1 WtCom= 1.00D+00 WtEn= 0.00D+00
 Coeff-Com: -0.887D-05-0.112D-05-0.266D-03-0.429D-03-0.282D-02-0.476D-02
 Coeff-Com:  0.712D-01 0.220D+00 0.717D+00
 Coeff:     -0.887D-05-0.112D-05-0.266D-03-0.429D-03-0.282D-02-0.476D-02
 Coeff:      0.712D-01 0.220D+00 0.717D+00
 Gap=     0.286 Goal=   None    Shift=    0.000
 RMSDP=1.09D-06 MaxDP=6.97D-05 DE=-1.35D-07 OVMax= 1.90D-05

 Cycle  10  Pass 1  IDiag  1:
 E= -272.969778144169     Delta-E=       -0.000000003408 Rises=F Damp=F
 DIIS: error= 1.51D-06 at cycle  10 NSaved=  10.
 NSaved=10 IEnMin=10 EnMin= -272.969778144169     IErMin=10 ErrMin= 1.51D-06
 ErrMax= 1.51D-06  0.00D+00 EMaxC= 1.00D-01 BMatC= 4.01D-10 BMatP= 3.63D-09
 IDIUse=1 WtCom= 1.00D+00 WtEn= 0.00D+00
 Coeff-Com: -0.411D-05 0.313D-05-0.227D-04-0.111D-03-0.125D-02-0.311D-02
 Coeff-Com:  0.967D-02 0.473D-01 0.287D+00 0.661D+00
 Coeff:     -0.411D-05 0.313D-05-0.227D-04-0.111D-03-0.125D-02-0.311D-02
 Coeff:      0.967D-02 0.473D-01 0.287D+00 0.661D+00
 Gap=     0.286 Goal=   None    Shift=    0.000
 RMSDP=2.34D-07 MaxDP=8.57D-06 DE=-3.41D-09 OVMax= 5.56D-06

 Cycle  11  Pass 1  IDiag  1:
 E= -272.969778144523     Delta-E=       -0.000000000354 Rises=F Damp=F
 DIIS: error= 6.35D-07 at cycle  11 NSaved=  11.
 NSaved=11 IEnMin=11 EnMin= -272.969778144523     IErMin=11 ErrMin= 6.35D-07
 ErrMax= 6.35D-07  0.00D+00 EMaxC= 1.00D-01 BMatC= 5.45D-11 BMatP= 4.01D-10
 IDIUse=1 WtCom= 1.00D+00 WtEn= 0.00D+00
 Coeff-Com:  0.162D-05-0.235D-05 0.159D-04-0.162D-04-0.271D-03-0.824D-03
 Coeff-Com: -0.282D-02-0.114D-02 0.562D-01 0.310D+00 0.639D+00
 Coeff:      0.162D-05-0.235D-05 0.159D-04-0.162D-04-0.271D-03-0.824D-03
 Coeff:     -0.282D-02-0.114D-02 0.562D-01 0.310D+00 0.639D+00
 Gap=     0.286 Goal=   None    Shift=    0.000
 RMSDP=9.37D-08 MaxDP=5.60D-06 DE=-3.54D-10 OVMax= 1.66D-06

 Cycle  12  Pass 1  IDiag  1:
 E= -272.969778144590     Delta-E=       -0.000000000067 Rises=F Damp=F
 DIIS: error= 6.92D-08 at cycle  12 NSaved=  12.
 NSaved=12 IEnMin=12 EnMin= -272.969778144590     IErMin=12 ErrMin= 6.92D-08
 ErrMax= 6.92D-08  0.00D+00 EMaxC= 1.00D-01 BMatC= 1.27D-12 BMatP= 5.45D-11
 IDIUse=1 WtCom= 1.00D+00 WtEn= 0.00D+00
 Coeff-Com: -0.155D-07 0.187D-06 0.438D-05-0.940D-06 0.511D-05-0.910D-05
 Coeff-Com: -0.112D-02-0.308D-02-0.203D-02 0.367D-01 0.164D+00 0.805D+00
 Coeff:     -0.155D-07 0.187D-06 0.438D-05-0.940D-06 0.511D-05-0.910D-05
 Coeff:     -0.112D-02-0.308D-02-0.203D-02 0.367D-01 0.164D+00 0.805D+00
 Gap=     0.286 Goal=   None    Shift=    0.000
 RMSDP=1.83D-08 MaxDP=1.00D-06 DE=-6.68D-11 OVMax= 4.01D-07

 Cycle  13  Pass 1  IDiag  1:
 E= -272.969778144576     Delta-E=        0.000000000013 Rises=F Damp=F
 DIIS: error= 1.15D-08 at cycle  13 NSaved=  13.
 NSaved=13 IEnMin=12 EnMin= -272.969778144590     IErMin=13 ErrMin= 1.15D-08
 ErrMax= 1.15D-08  0.00D+00 EMaxC= 1.00D-01 BMatC= 4.63D-14 BMatP= 1.27D-12
 IDIUse=1 WtCom= 1.00D+00 WtEn= 0.00D+00
 Coeff-Com: -0.728D-07 0.159D-06 0.732D-06 0.404D-07 0.962D-05 0.202D-04
 Coeff-Com: -0.259D-03-0.955D-03-0.238D-02 0.309D-03 0.291D-01 0.245D+00
 Coeff-Com:  0.729D+00
 Coeff:     -0.728D-07 0.159D-06 0.732D-06 0.404D-07 0.962D-05 0.202D-04
 Coeff:     -0.259D-03-0.955D-03-0.238D-02 0.309D-03 0.291D-01 0.245D+00
 Coeff:      0.729D+00
 Gap=     0.286 Goal=   None    Shift=    0.000
 RMSDP=2.90D-09 MaxDP=1.18D-07 DE= 1.34D-11 OVMax= 6.34D-08

 SCF Done:  E(RB971) =  -272.969778145     A.U. after   13 cycles
            NFock= 13  Conv=0.29D-08     -V/T= 2.0041
 KE= 2.718609734080D+02 PE=-1.129245148706D+03 EE= 3.375719413543D+02
 Leave Link  502 at Mon Apr 27 05:04:24 2015, MaxMem=   524288000 cpu:       268.7
 (Enter /opt/g09/l801.exe)
 DoSCS=F DFT=T ScalE2(SS,OS)=  1.000000  1.000000
 Range of M.O.s used for correlation:     1   204
 NBasis=   204 NAE=    25 NBE=    25 NFC=     0 NFV=     0
 NROrb=    204 NOA=    25 NOB=    25 NVA=   179 NVB=   179

 **** Warning!!: The largest alpha MO coefficient is  0.71029283D+02

 Leave Link  801 at Mon Apr 27 05:04:25 2015, MaxMem=   524288000 cpu:         0.3
 (Enter /opt/g09/l1101.exe)
 Using compressed storage, NAtomX=    18.
 Will process     19 centers per pass.
 Leave Link 1101 at Mon Apr 27 05:04:25 2015, MaxMem=   524288000 cpu:         3.9
 (Enter /opt/g09/l1102.exe)
 Symmetrizing basis deriv contribution to polar:
 IMax=3 JMax=2 DiffMx= 0.00D+00
 Leave Link 1102 at Mon Apr 27 05:04:25 2015, MaxMem=   524288000 cpu:         0.4
 (Enter /opt/g09/l1110.exe)
 Forming Gx(P) for the SCF density, NAtomX=    18.
 Integral derivatives from FoFJK, PRISM(SPDF).
 Do as many integral derivatives as possible in FoFJK.
 G2DrvN: MDV=     524287752.
 G2DrvN: will do    19 centers at a time, making    1 passes.
 Calling FoFCou, ICntrl=  3107 FMM=F I1Cent=   0 AccDes= 0.00D+00.
 FoFJK:  IHMeth= 1 ICntrl=    3107 DoSepK=F KAlg= 0 I1Cent=   0 FoldK=F
 IRaf=         0 NMat=   1 IRICut=       1 DoRegI=T DoRafI=F ISym2E= 0.
 FoFCou: FMM=F IPFlag=           0 FMFlag=      100000 FMFlg1=           0
         NFxFlg=           0 DoJE=F BraDBF=F KetDBF=F FulRan=T
         wScrn=  0.000000 ICntrl=    3107 IOpCl=  0 I1Cent=           0 NGrid=           0
         NMat0=    1 NMatS0=      1 NMatT0=    0 NMatD0=    1 NMtDS0=    0 NMtDT0=    0
 Symmetry not used in FoFCou.
 End of G2Drv F.D. properties file   721 does not exist.
 End of G2Drv F.D. properties file   722 does not exist.
 End of G2Drv F.D. properties file   788 does not exist.
 Leave Link 1110 at Mon Apr 27 05:06:00 2015, MaxMem=   524288000 cpu:       747.9
 (Enter /opt/g09/l1002.exe)
 Minotr:  Closed shell wavefunction.
          IDoAtm=111111111111111111
          Direct CPHF calculation.
          Differentiating once with respect to electric field.
                with respect to dipole field.
          Differentiating once with respect to nuclear coordinates.
          Requested convergence is 1.0D-08 RMS, and 1.0D-07 maximum.
          Secondary convergence is 1.0D-12 RMS, and 1.0D-12 maximum.
          NewPWx=T KeepS1=F KeepF1=F KeepIn=T MapXYZ=F SortEE=F KeepMc=T.
          MDV=     524287612 using IRadAn=       1.
 Generate precomputed XC quadrature information.
 Keep R1 ints in memory in canonical form, NReq=223328979.
 FoFCou: FMM=F IPFlag=           0 FMFlag=           0 FMFlg1=           0
         NFxFlg=           0 DoJE=F BraDBF=F KetDBF=F FulRan=T
         wScrn=  0.000000 ICntrl=     600 IOpCl=  0 I1Cent=           0 NGrid=           0
         NMat0=    1 NMatS0=  20910 NMatT0=    0 NMatD0=    1 NMtDS0=    0 NMtDT0=    0
 Symmetry not used in FoFCou.
          Solving linear equations simultaneously, MaxMat=       0.
          There are    57 degrees of freedom in the 1st order CPHF.  IDoFFX=6 NUNeed=     3.
     54 vectors produced by pass  0 Test12= 7.85D-15 1.75D-09 XBig12= 3.98D+01 1.51D+00.
 AX will form    54 AO Fock derivatives at one time.
     54 vectors produced by pass  1 Test12= 7.85D-15 1.75D-09 XBig12= 2.52D+00 2.67D-01.
     54 vectors produced by pass  2 Test12= 7.85D-15 1.75D-09 XBig12= 3.17D-02 1.85D-02.
     54 vectors produced by pass  3 Test12= 7.85D-15 1.75D-09 XBig12= 5.16D-05 1.07D-03.
     54 vectors produced by pass  4 Test12= 7.85D-15 1.75D-09 XBig12= 6.94D-08 3.15D-05.
     27 vectors produced by pass  5 Test12= 7.85D-15 1.75D-09 XBig12= 7.72D-11 1.01D-06.
      3 vectors produced by pass  6 Test12= 7.85D-15 1.75D-09 XBig12= 5.87D-14 5.31D-08.
 InvSVY:  IOpt=1 It=  1 EMax= 2.66D-15
 Solved reduced A of dimension   300 with    57 vectors.
 FullF1:  Do perturbations    1 to     3.
 Isotropic polarizability for W=    0.000000       67.27 Bohr**3.
 End of Minotr F.D. properties file   721 does not exist.
 End of Minotr F.D. properties file   722 does not exist.
 End of Minotr F.D. properties file   788 does not exist.
 Leave Link 1002 at Mon Apr 27 05:07:36 2015, MaxMem=   524288000 cpu:       769.8
 (Enter /opt/g09/l701.exe)
 Compute integral second derivatives.
 ... and contract with generalized density number  0.
 Leave Link  701 at Mon Apr 27 05:07:37 2015, MaxMem=   524288000 cpu:         2.5
 (Enter /opt/g09/l702.exe)
 L702 exits ... SP integral derivatives will be done elsewhere.
 Leave Link  702 at Mon Apr 27 05:07:37 2015, MaxMem=   524288000 cpu:         0.3
 (Enter /opt/g09/l703.exe)
 Compute integral second derivatives, UseDBF=F ICtDFT=           0.
 Integral derivatives from FoFJK, PRISM(SPDF).
 Calling FoFJK, ICntrl=    100127 FMM=F ISym2X=0 I1Cent= 0 IOpClX= 0 NMat=1 NMatS=1 NMatT=0.
 FoFJK:  IHMeth= 1 ICntrl=  100127 DoSepK=F KAlg= 0 I1Cent=   0 FoldK=F
 IRaf=         0 NMat=   1 IRICut=       1 DoRegI=T DoRafI=F ISym2E= 0.
 FoFCou: FMM=F IPFlag=           0 FMFlag=      100000 FMFlg1=         800
         NFxFlg=           0 DoJE=F BraDBF=F KetDBF=F FulRan=T
         wScrn=  0.000000 ICntrl=  100127 IOpCl=  0 I1Cent=           0 NGrid=           0
         NMat0=    1 NMatS0=      1 NMatT0=    0 NMatD0=    1 NMtDS0=    0 NMtDT0=    0
 Symmetry not used in FoFCou.
 Leave Link  703 at Mon Apr 27 05:10:03 2015, MaxMem=   524288000 cpu:      1155.3
 (Enter /opt/g09/l716.exe)
 Dipole        = 7.97309908D-02 2.57195588D-01 6.42148820D-01
 Polarizability= 7.68945568D+01-2.91106514D+00 6.26724983D+01
                 1.67085351D+00 7.20548270D-01 6.22407580D+01
 -------------------------------------------------------------------
 Center     Atomic                   Forces (Hartrees/Bohr)
 Number     Number              X              Y              Z
 -------------------------------------------------------------------
      1        6           0.000001814    0.000003569   -0.000000733
      2        6           0.000001043    0.000003207   -0.000005757
      3        6           0.000003620    0.000001989    0.000004279
      4        6           0.000001609   -0.000003062    0.000002737
      5        6          -0.000005309   -0.000001614   -0.000001774
      6        8          -0.000001346   -0.000000966    0.000003809
      7        1          -0.000000892   -0.000001309   -0.000001786
      8        1          -0.000000913   -0.000000230    0.000001534
      9        1          -0.000000403   -0.000001937    0.000000627
     10        1          -0.000000613   -0.000002949    0.000003214
     11        1          -0.000001210   -0.000002015   -0.000001314
     12        1          -0.000000603    0.000001598   -0.000000358
     13        1           0.000000495    0.000001341   -0.000004000
     14        1          -0.000001021    0.000000681   -0.000001227
     15        1           0.000000762    0.000001056    0.000001423
     16        1           0.000000685   -0.000000802   -0.000001080
     17        1           0.000001624    0.000000271    0.000002856
     18        1           0.000000662    0.000001172   -0.000002449
 -------------------------------------------------------------------
 Cartesian Forces:  Max     0.000005757 RMS     0.000002176
 FormGI is forming the generalized inverse of G from B-inverse, IUseBI=4.
 Leave Link  716 at Mon Apr 27 05:10:03 2015, MaxMem=   524288000 cpu:         0.3
 (Enter /opt/g09/l103.exe)

 GradGradGradGradGradGradGradGradGradGradGradGradGradGradGradGradGradGrad
 Berny optimization.
 Red2BG is reusing G-inverse.
 Internal  Forces:  Max     0.000004203 RMS     0.000001035
 Search for a local minimum.
 Step number   1 out of a maximum of   97
 All quantities printed in internal units (Hartrees-Bohrs-Radians)
 RMS Force = .10350D-05 SwitMx=.10000D-02 MixMth= 2
 Mixed Optimization -- En-DIIS/RFO-DIIS
 Second derivative matrix not updated -- analytic derivatives used.
 ITU=  0
     Eigenvalues ---    0.00175   0.00222   0.00271   0.00288   0.00354
     Eigenvalues ---    0.03100   0.03372   0.03776   0.03794   0.03841
     Eigenvalues ---    0.03914   0.04522   0.04526   0.04881   0.05863
     Eigenvalues ---    0.06794   0.07095   0.07184   0.09289   0.10134
     Eigenvalues ---    0.11074   0.11992   0.12663   0.13017   0.13224
     Eigenvalues ---    0.15738   0.15880   0.16650   0.19354   0.22033
     Eigenvalues ---    0.23735   0.27368   0.27930   0.28896   0.30524
     Eigenvalues ---    0.31309   0.31761   0.31874   0.32116   0.32664
     Eigenvalues ---    0.32836   0.32893   0.32923   0.33120   0.33304
     Eigenvalues ---    0.33947   0.36884   0.53549
 RFO step:  Lambda= 0.00000000D+00 EMin= 1.75130362D-03
 Linear search not attempted -- first point.
 Iteration  1 RMS(Cart)=  0.00000845 RMS(Int)=  0.00000000
 Iteration  2 RMS(Cart)=  0.00000000 RMS(Int)=  0.00000000
 ITry= 1 IFail=0 DXMaxC= 3.22D-05 DCOld= 1.00D+10 DXMaxT= 3.00D-01 DXLimC= 3.00D+00 Rises=F
 Variable       Old X    -DE/DX   Delta X   Delta X   Delta X     New X
                                 (Linear)    (Quad)   (Total)
    R1        2.90092   0.00000   0.00000   0.00000   0.00000   2.90092
    R2        2.89512   0.00000   0.00000   0.00000   0.00000   2.89512
    R3        2.07824   0.00000   0.00000  -0.00001  -0.00001   2.07823
    R4        2.08123   0.00000   0.00000   0.00001   0.00001   2.08124
    R5        2.90216   0.00000   0.00000   0.00001   0.00001   2.90216
    R6        2.07364   0.00000   0.00000   0.00000   0.00000   2.07364
    R7        2.07845   0.00000   0.00000  -0.00001  -0.00001   2.07843
    R8        2.89972   0.00000   0.00000  -0.00001  -0.00001   2.89971
    R9        2.07682   0.00000   0.00000  -0.00001  -0.00001   2.07681
   R10        2.07676   0.00000   0.00000   0.00000   0.00000   2.07676
   R11        2.69533   0.00000   0.00000   0.00000   0.00000   2.69533
   R12        2.06981   0.00000   0.00000   0.00001   0.00001   2.06982
   R13        2.07981   0.00000   0.00000   0.00000   0.00000   2.07981
   R14        2.07167   0.00000   0.00000  -0.00001  -0.00001   2.07167
   R15        2.07182   0.00000   0.00000   0.00000   0.00000   2.07182
   R16        2.06980   0.00000   0.00000   0.00001   0.00001   2.06981
   R17        1.81719   0.00000   0.00000  -0.00001  -0.00001   1.81718
    A1        1.98768   0.00000   0.00000   0.00000   0.00000   1.98768
    A2        1.91717   0.00000   0.00000   0.00001   0.00001   1.91717
    A3        1.91472   0.00000   0.00000   0.00000   0.00000   1.91472
    A4        1.88720   0.00000   0.00000   0.00000   0.00000   1.88719
    A5        1.90197   0.00000   0.00000   0.00000   0.00000   1.90196
    A6        1.84987   0.00000   0.00000   0.00000   0.00000   1.84988
    A7        1.97778   0.00000   0.00000  -0.00001  -0.00001   1.97778
    A8        1.90589   0.00000   0.00000   0.00000   0.00000   1.90589
    A9        1.90211   0.00000   0.00000   0.00001   0.00001   1.90211
   A10        1.91350   0.00000   0.00000   0.00000   0.00000   1.91350
   A11        1.90741   0.00000   0.00000   0.00000   0.00000   1.90741
   A12        1.85296   0.00000   0.00000   0.00001   0.00001   1.85297
   A13        1.97326   0.00000   0.00000  -0.00001  -0.00001   1.97326
   A14        1.90867   0.00000   0.00000   0.00000   0.00000   1.90866
   A15        1.90551   0.00000   0.00000   0.00000   0.00000   1.90551
   A16        1.91042   0.00000   0.00000   0.00001   0.00001   1.91043
   A17        1.90987   0.00000   0.00000   0.00001   0.00001   1.90988
   A18        1.85217   0.00000   0.00000   0.00000   0.00000   1.85217
   A19        1.97922   0.00000   0.00000   0.00000   0.00000   1.97923
   A20        1.92284   0.00000   0.00000   0.00000   0.00000   1.92284
   A21        1.91854   0.00000   0.00000   0.00001   0.00001   1.91854
   A22        1.83629   0.00000   0.00000   0.00000   0.00000   1.83629
   A23        1.92777   0.00000   0.00000   0.00000   0.00000   1.92776
   A24        1.87496   0.00000   0.00000  -0.00001  -0.00001   1.87495
   A25        1.93861   0.00000   0.00000   0.00001   0.00001   1.93862
   A26        1.93892   0.00000   0.00000   0.00001   0.00001   1.93893
   A27        1.94506   0.00000   0.00000  -0.00001  -0.00001   1.94506
   A28        1.87728   0.00000   0.00000   0.00000   0.00000   1.87728
   A29        1.88089   0.00000   0.00000   0.00000   0.00000   1.88088
   A30        1.88019   0.00000   0.00000   0.00000   0.00000   1.88018
   A31        1.88736   0.00000   0.00000   0.00001   0.00001   1.88737
    D1       -3.10249   0.00000   0.00000   0.00001   0.00001  -3.10249
    D2       -0.96413   0.00000   0.00000   0.00000   0.00000  -0.96413
    D3        1.05291   0.00000   0.00000   0.00001   0.00001   1.05291
    D4        1.06116   0.00000   0.00000   0.00001   0.00001   1.06117
    D5       -3.08366   0.00000   0.00000   0.00000   0.00000  -3.08366
    D6       -1.06662   0.00000   0.00000   0.00001   0.00001  -1.06661
    D7       -0.96561   0.00000   0.00000   0.00000   0.00000  -0.96561
    D8        1.17275   0.00000   0.00000  -0.00001  -0.00001   1.17274
    D9       -3.09340   0.00000   0.00000   0.00000   0.00000  -3.09340
   D10        1.08164   0.00000   0.00000   0.00000   0.00000   1.08164
   D11       -0.97116   0.00000   0.00000   0.00000   0.00000  -0.97116
   D12       -3.03412   0.00000   0.00000   0.00001   0.00001  -3.03411
   D13       -3.06546   0.00000   0.00000   0.00001   0.00001  -3.06545
   D14        1.16492   0.00000   0.00000   0.00000   0.00000   1.16493
   D15       -0.89803   0.00000   0.00000   0.00001   0.00001  -0.89802
   D16       -1.06223   0.00000   0.00000   0.00001   0.00001  -1.06222
   D17       -3.11503   0.00000   0.00000   0.00000   0.00000  -3.11503
   D18        1.10520   0.00000   0.00000   0.00001   0.00001   1.10521
   D19       -3.13263   0.00000   0.00000  -0.00001  -0.00001  -3.13264
   D20       -0.99930   0.00000   0.00000  -0.00001  -0.00001  -0.99931
   D21        1.02021   0.00000   0.00000  -0.00001  -0.00001   1.02020
   D22        1.01642   0.00000   0.00000   0.00000   0.00000   1.01642
   D23       -3.13344   0.00000   0.00000   0.00000   0.00000  -3.13343
   D24       -1.11393   0.00000   0.00000   0.00000   0.00000  -1.11393
   D25       -1.00781   0.00000   0.00000   0.00000   0.00000  -1.00782
   D26        1.12552   0.00000   0.00000   0.00000   0.00000   1.12552
   D27       -3.13816   0.00000   0.00000   0.00000   0.00000  -3.13816
   D28       -1.04049   0.00000   0.00000  -0.00002  -0.00002  -1.04051
   D29        1.04836   0.00000   0.00000  -0.00002  -0.00002   1.04834
   D30       -3.13800   0.00000   0.00000  -0.00002  -0.00002  -3.13802
   D31        3.11035   0.00000   0.00000  -0.00002  -0.00002   3.11033
   D32       -1.08399   0.00000   0.00000  -0.00001  -0.00001  -1.08401
   D33        1.01284   0.00000   0.00000  -0.00002  -0.00002   1.01282
   D34        1.08741   0.00000   0.00000  -0.00003  -0.00003   1.08738
   D35       -3.10693   0.00000   0.00000  -0.00003  -0.00003  -3.10695
   D36       -1.01010   0.00000   0.00000  -0.00003  -0.00003  -1.01012
   D37        1.10968   0.00000   0.00000  -0.00001  -0.00001   1.10967
   D38       -3.07097   0.00000   0.00000   0.00000   0.00000  -3.07097
   D39       -1.05273   0.00000   0.00000  -0.00001  -0.00001  -1.05274
         Item               Value     Threshold  Converged?
 Maximum Force            0.000004     0.000015     YES
 RMS     Force            0.000001     0.000010     YES
 Maximum Displacement     0.000032     0.000060     YES
 RMS     Displacement     0.000008     0.000040     YES
 Predicted change in Energy=-1.924034D-10
 Optimization completed.
    -- Stationary point found.
                           ----------------------------
                           !   Optimized Parameters   !
                           ! (Angstroms and Degrees)  !
 --------------------------                            --------------------------
 ! Name  Definition              Value          Derivative Info.                !
 --------------------------------------------------------------------------------
 ! R1    R(1,2)                  1.5351         -DE/DX =    0.0                 !
 ! R2    R(1,4)                  1.532          -DE/DX =    0.0                 !
 ! R3    R(1,7)                  1.0998         -DE/DX =    0.0                 !
 ! R4    R(1,8)                  1.1013         -DE/DX =    0.0                 !
 ! R5    R(2,3)                  1.5358         -DE/DX =    0.0                 !
 ! R6    R(2,9)                  1.0973         -DE/DX =    0.0                 !
 ! R7    R(2,10)                 1.0999         -DE/DX =    0.0                 !
 ! R8    R(3,5)                  1.5345         -DE/DX =    0.0                 !
 ! R9    R(3,11)                 1.099          -DE/DX =    0.0                 !
 ! R10   R(3,12)                 1.099          -DE/DX =    0.0                 !
 ! R11   R(4,6)                  1.4263         -DE/DX =    0.0                 !
 ! R12   R(4,13)                 1.0953         -DE/DX =    0.0                 !
 ! R13   R(4,14)                 1.1006         -DE/DX =    0.0                 !
 ! R14   R(5,15)                 1.0963         -DE/DX =    0.0                 !
 ! R15   R(5,16)                 1.0964         -DE/DX =    0.0                 !
 ! R16   R(5,17)                 1.0953         -DE/DX =    0.0                 !
 ! R17   R(6,18)                 0.9616         -DE/DX =    0.0                 !
 ! A1    A(2,1,4)              113.8856         -DE/DX =    0.0                 !
 ! A2    A(2,1,7)              109.8455         -DE/DX =    0.0                 !
 ! A3    A(2,1,8)              109.7052         -DE/DX =    0.0                 !
 ! A4    A(4,1,7)              108.1283         -DE/DX =    0.0                 !
 ! A5    A(4,1,8)              108.9748         -DE/DX =    0.0                 !
 ! A6    A(7,1,8)              105.9899         -DE/DX =    0.0                 !
 ! A7    A(1,2,3)              113.3185         -DE/DX =    0.0                 !
 ! A8    A(1,2,9)              109.1996         -DE/DX =    0.0                 !
 ! A9    A(1,2,10)             108.9827         -DE/DX =    0.0                 !
 ! A10   A(3,2,9)              109.6356         -DE/DX =    0.0                 !
 ! A11   A(3,2,10)             109.2864         -DE/DX =    0.0                 !
 ! A12   A(9,2,10)             106.167          -DE/DX =    0.0                 !
 ! A13   A(2,3,5)              113.0597         -DE/DX =    0.0                 !
 ! A14   A(2,3,11)             109.3586         -DE/DX =    0.0                 !
 ! A15   A(2,3,12)             109.1779         -DE/DX =    0.0                 !
 ! A16   A(5,3,11)             109.4593         -DE/DX =    0.0                 !
 ! A17   A(5,3,12)             109.4276         -DE/DX =    0.0                 !
 ! A18   A(11,3,12)            106.1214         -DE/DX =    0.0                 !
 ! A19   A(1,4,6)              113.4012         -DE/DX =    0.0                 !
 ! A20   A(1,4,13)             110.1705         -DE/DX =    0.0                 !
 ! A21   A(1,4,14)             109.924          -DE/DX =    0.0                 !
 ! A22   A(6,4,13)             105.2118         -DE/DX =    0.0                 !
 ! A23   A(6,4,14)             110.4529         -DE/DX =    0.0                 !
 ! A24   A(13,4,14)            107.4274         -DE/DX =    0.0                 !
 ! A25   A(3,5,15)             111.0743         -DE/DX =    0.0                 !
 ! A26   A(3,5,16)             111.0918         -DE/DX =    0.0                 !
 ! A27   A(3,5,17)             111.444          -DE/DX =    0.0                 !
 ! A28   A(15,5,16)            107.5602         -DE/DX =    0.0                 !
 ! A29   A(15,5,17)            107.7668         -DE/DX =    0.0                 !
 ! A30   A(16,5,17)            107.7267         -DE/DX =    0.0                 !
 ! A31   A(4,6,18)             108.138          -DE/DX =    0.0                 !
 ! D1    D(4,1,2,3)           -177.7599         -DE/DX =    0.0                 !
 ! D2    D(4,1,2,9)            -55.2407         -DE/DX =    0.0                 !
 ! D3    D(4,1,2,10)            60.3272         -DE/DX =    0.0                 !
 ! D4    D(7,1,2,3)             60.8002         -DE/DX =    0.0                 !
 ! D5    D(7,1,2,9)           -176.6806         -DE/DX =    0.0                 !
 ! D6    D(7,1,2,10)           -61.1128         -DE/DX =    0.0                 !
 ! D7    D(8,1,2,3)            -55.3256         -DE/DX =    0.0                 !
 ! D8    D(8,1,2,9)             67.1936         -DE/DX =    0.0                 !
 ! D9    D(8,1,2,10)          -177.2385         -DE/DX =    0.0                 !
 ! D10   D(2,1,4,6)             61.9733         -DE/DX =    0.0                 !
 ! D11   D(2,1,4,13)           -55.6435         -DE/DX =    0.0                 !
 ! D12   D(2,1,4,14)          -173.8421         -DE/DX =    0.0                 !
 ! D13   D(7,1,4,6)           -175.638          -DE/DX =    0.0                 !
 ! D14   D(7,1,4,13)            66.7452         -DE/DX =    0.0                 !
 ! D15   D(7,1,4,14)           -51.4534         -DE/DX =    0.0                 !
 ! D16   D(8,1,4,6)            -60.8613         -DE/DX =    0.0                 !
 ! D17   D(8,1,4,13)          -178.4782         -DE/DX =    0.0                 !
 ! D18   D(8,1,4,14)            63.3233         -DE/DX =    0.0                 !
 ! D19   D(1,2,3,5)           -179.4866         -DE/DX =    0.0                 !
 ! D20   D(1,2,3,11)           -57.2557         -DE/DX =    0.0                 !
 ! D21   D(1,2,3,12)            58.4536         -DE/DX =    0.0                 !
 ! D22   D(9,2,3,5)             58.2364         -DE/DX =    0.0                 !
 ! D23   D(9,2,3,11)          -179.5326         -DE/DX =    0.0                 !
 ! D24   D(9,2,3,12)           -63.8233         -DE/DX =    0.0                 !
 ! D25   D(10,2,3,5)           -57.7434         -DE/DX =    0.0                 !
 ! D26   D(10,2,3,11)           64.4875         -DE/DX =    0.0                 !
 ! D27   D(10,2,3,12)         -179.8032         -DE/DX =    0.0                 !
 ! D28   D(2,3,5,15)           -59.6155         -DE/DX =    0.0                 !
 ! D29   D(2,3,5,16)            60.0664         -DE/DX =    0.0                 !
 ! D30   D(2,3,5,17)          -179.7941         -DE/DX =    0.0                 !
 ! D31   D(11,3,5,15)          178.2098         -DE/DX =    0.0                 !
 ! D32   D(11,3,5,16)          -62.1083         -DE/DX =    0.0                 !
 ! D33   D(11,3,5,17)           58.0313         -DE/DX =    0.0                 !
 ! D34   D(12,3,5,15)           62.3042         -DE/DX =    0.0                 !
 ! D35   D(12,3,5,16)         -178.0139         -DE/DX =    0.0                 !
 ! D36   D(12,3,5,17)          -57.8743         -DE/DX =    0.0                 !
 ! D37   D(1,4,6,18)            63.5799         -DE/DX =    0.0                 !
 ! D38   D(13,4,6,18)         -175.9535         -DE/DX =    0.0                 !
 ! D39   D(14,4,6,18)          -60.3168         -DE/DX =    0.0                 !
 --------------------------------------------------------------------------------
 Lowest energy point so far.  Saving SCF results.
 GradGradGradGradGradGradGradGradGradGradGradGradGradGradGradGradGradGrad

 Largest change from initial coordinates is atom    0       0.000 Angstoms.
 Leave Link  103 at Mon Apr 27 05:10:03 2015, MaxMem=   524288000 cpu:         0.2
 (Enter /opt/g09/l202.exe)
                          Input orientation:                          
 ---------------------------------------------------------------------
 Center     Atomic      Atomic             Coordinates (Angstroms)
 Number     Number       Type             X           Y           Z
 ---------------------------------------------------------------------
      1          6           0        2.010130    2.294260    1.883370
      2          6           0        3.252890    1.668760    1.234660
      3          6           0        4.471770    1.630390    2.168150
      4          6           0        0.771240    2.289920    0.982120
      5          6           0        5.713960    1.015550    1.509730
      6          8           0        0.336070    0.979770    0.623670
      7          1           0        2.221850    3.334960    2.169000
      8          1           0        1.773680    1.764780    2.819690
      9          1           0        3.012250    0.651660    0.900420
     10          1           0        3.507470    2.236890    0.327950
     11          1           0        4.703590    2.649930    2.506700
     12          1           0        4.216590    1.059400    3.071810
     13          1           0        0.993160    2.788850    0.032650
     14          1           0       -0.045540    2.847880    1.464660
     15          1           0        5.521200   -0.015160    1.189860
     16          1           0        6.013940    1.586430    0.623100
     17          1           0        6.565160    0.998000    2.198800
     18          1           0        0.068100    0.523240    1.426460
 ---------------------------------------------------------------------
                    Distance matrix (angstroms):
                    1          2          3          4          5
     1  C    0.000000
     2  C    1.535098   0.000000
     3  C    2.565442   1.535755   0.000000
     4  C    1.532031   2.570643   3.941519   0.000000
     5  C    3.936123   2.561096   1.534464   5.131557   0.000000
     6  O    2.473298   3.058734   4.462369   1.426307   5.450512
     7  H    1.099757   2.170773   2.822711   2.145941   4.243717
     8  H    1.101341   2.170162   2.778895   2.158083   4.219378
     9  H    2.160687   1.097322   2.166853   2.777174   2.793369
    10  H    2.159780   1.099866   2.164267   2.813842   2.785116
    11  H    2.787430   2.164558   1.099008   4.232886   2.164716
    12  H    2.793874   2.162211   1.098976   4.213243   2.164286
    13  H    2.168873   2.793888   4.243008   1.095296   5.254742
    14  H    2.169699   3.510394   4.731096   1.100588   6.044113
    15  H    4.259341   2.825389   2.183160   5.283812   1.096283
    16  H    4.256736   2.829166   2.183438   5.301858   1.096360
    17  H    4.746376   3.514345   2.187039   6.059610   1.095293
    18  H    2.667725   3.389969   4.600891   1.952691   5.667895
                    6          7          8          9         10
     6  O    0.000000
     7  H    3.389857   0.000000
     8  H    2.739611   1.757760   0.000000
     9  H    2.710385   3.071502   2.541002   0.000000
    10  H    3.424263   2.499608   3.072081   1.756678   0.000000
    11  H    5.040880   2.596602   3.076658   3.071457   2.519575
    12  H    4.588918   3.157883   2.555178   2.516271   3.068893
    13  H    2.013416   2.524264   3.070101   3.065507   2.591065
    14  H    2.083921   2.423716   2.513717   3.806813   3.780119
    15  H    5.309993   4.802888   4.457403   2.612136   3.141612
    16  H    5.710188   4.452764   4.778768   3.156081   2.606262
    17  H    6.425179   4.932202   4.892007   3.798541   3.792677
    18  H    0.961613   3.618808   2.528144   2.993531   3.996572
                   11         12         13         14         15
    11  H    0.000000
    12  H    1.756788   0.000000
    13  H    4.461784   4.755838   0.000000
    14  H    4.866135   4.893602   1.770038   0.000000
    15  H    3.083060   2.529510   5.450207   6.265868   0.000000
    16  H    2.529031   3.082922   5.196410   6.246341   1.768926
    17  H    2.507811   2.506331   6.240716   6.903794   1.770397
    18  H    5.213204   4.494954   2.816280   2.327729   5.484720
                   16         17         18
    16  H    0.000000
    17  H    1.770007   0.000000
    18  H    6.093338   6.560007   0.000000
 Symmetry turned off by external request.
 Stoichiometry    C5H12O
 Framework group  C1[X(C5H12O)]
 Deg. of freedom    48
 Full point group                 C1      NOp   1
 Rotational constants (GHZ):      9.0834156      1.3405225      1.2529321
 Leave Link  202 at Mon Apr 27 05:10:03 2015, MaxMem=   524288000 cpu:         0.0
 (Enter /opt/g09/l716.exe)
 Dipole        = 7.97309908D-02 2.57195588D-01 6.42148820D-01
 Polarizability= 7.68945568D+01-2.91106514D+00 6.26724983D+01
                 1.67085351D+00 7.20548270D-01 6.22407580D+01
 Full mass-weighted force constant matrix:
 Low frequencies ---   -7.6308   -3.8000   -0.0003    0.0006    0.0010    7.0134
 Low frequencies ---   74.7817   88.6770  145.2651
 Diagonal vibrational polarizability:
       51.8597242      11.1251062       2.4135781
 Harmonic frequencies (cm**-1), IR intensities (KM/Mole), Raman scattering
 activities (A**4/AMU), depolarization ratios for plane and unpolarized
 incident light, reduced masses (AMU), force constants (mDyne/A),
 and normal coordinates:
                      1                      2                      3
                      A                      A                      A
 Frequencies --     74.7813                88.6753               145.2651
 Red. masses --      1.8359                 2.7879                 2.8235
 Frc consts  --      0.0060                 0.0129                 0.0351
 IR Inten    --      0.8851                 0.5167                 2.6344
  Atom  AN      X      Y      Z        X      Y      Z        X      Y      Z
     1   6     0.01   0.08  -0.06    -0.02   0.08   0.04    -0.03   0.13   0.05
     2   6     0.03   0.12  -0.06     0.00   0.19  -0.02    -0.10  -0.11   0.17
     3   6    -0.06  -0.14   0.04     0.00   0.08  -0.03    -0.03  -0.07   0.06
     4   6     0.00  -0.01  -0.04    -0.05  -0.04   0.07     0.04   0.02  -0.05
     5   6     0.00   0.02   0.00    -0.12  -0.19   0.00    -0.08   0.05  -0.16
     6   8     0.01  -0.06   0.11     0.18  -0.08  -0.05     0.18  -0.03  -0.03
     7   1    -0.03   0.10  -0.09    -0.12   0.09   0.07     0.04   0.17  -0.16
     8   1     0.04   0.10  -0.05     0.06   0.02   0.03    -0.12   0.33   0.14
     9   1    -0.01   0.19  -0.25     0.01   0.22  -0.13    -0.21  -0.14   0.36
    10   1     0.15   0.25   0.06    -0.01   0.28   0.03    -0.09  -0.30   0.04
    11   1    -0.07  -0.23   0.33     0.17   0.07  -0.11    -0.04  -0.07   0.09
    12   1    -0.15  -0.36  -0.13    -0.08   0.19   0.01     0.11  -0.13   0.06
    13   1    -0.02  -0.11  -0.10    -0.16   0.09   0.12     0.11  -0.02  -0.06
    14   1     0.00   0.02  -0.09    -0.13  -0.22   0.15    -0.05   0.00  -0.17
    15   1     0.00   0.12  -0.33    -0.30  -0.19   0.12    -0.09   0.08  -0.25
    16   1     0.12   0.27   0.21    -0.05  -0.34  -0.08    -0.24   0.16  -0.14
    17   1    -0.08  -0.22   0.09    -0.10  -0.25  -0.03     0.01   0.01  -0.28
    18   1     0.03   0.03   0.16     0.26  -0.20  -0.09     0.07   0.01  -0.04
                      4                      5                      6
                      A                      A                      A
 Frequencies --    189.2705               239.8009               292.9881
 Red. masses --      1.8628                 1.1101                 1.2840
 Frc consts  --      0.0393                 0.0376                 0.0649
 IR Inten    --      6.3701                 0.1296               131.5926
  Atom  AN      X      Y      Z        X      Y      Z        X      Y      Z
     1   6    -0.05  -0.06   0.07     0.00   0.01  -0.01     0.01   0.01   0.03
     2   6     0.04   0.11   0.09     0.00   0.03  -0.02    -0.04  -0.01  -0.05
     3   6     0.07   0.05   0.05    -0.03  -0.07   0.02    -0.04  -0.01  -0.06
     4   6     0.08  -0.03  -0.12     0.00   0.01   0.00     0.01   0.00   0.04
     5   6    -0.04  -0.04  -0.08     0.00   0.02   0.00     0.01   0.01   0.03
     6   8    -0.06  -0.03   0.02     0.02   0.00   0.01     0.09  -0.02   0.01
     7   1    -0.15  -0.09   0.23     0.00   0.01   0.01     0.04   0.01   0.01
     8   1    -0.14  -0.20  -0.04     0.00  -0.01  -0.02     0.05   0.00   0.03
     9   1     0.11   0.13  -0.04    -0.02   0.07  -0.13    -0.08   0.00  -0.04
    10   1     0.02   0.23   0.16     0.06   0.11   0.04    -0.06   0.00  -0.05
    11   1     0.15   0.03   0.04    -0.06  -0.10   0.11    -0.07   0.00  -0.06
    12   1     0.10   0.05   0.06    -0.05  -0.16  -0.04    -0.06   0.00  -0.06
    13   1     0.31  -0.21  -0.16     0.00   0.00  -0.01     0.03   0.02   0.05
    14   1     0.08   0.16  -0.35     0.00   0.01  -0.01    -0.02  -0.03   0.02
    15   1    -0.15  -0.03  -0.03     0.24  -0.16   0.44     0.07  -0.01   0.04
    16   1    -0.13  -0.08  -0.14    -0.35  -0.24  -0.29     0.07  -0.01   0.04
    17   1     0.05  -0.07  -0.19     0.15   0.54  -0.17    -0.04   0.05   0.10
    18   1    -0.40   0.20   0.04     0.06   0.00   0.03    -0.89   0.31  -0.13
                      7                      8                      9
                      A                      A                      A
 Frequencies --    316.4336               393.5568               509.5020
 Red. masses --      2.1765                 2.6866                 2.4452
 Frc consts  --      0.1284                 0.2452                 0.3740
 IR Inten    --      8.8701                 0.8927                14.1333
  Atom  AN      X      Y      Z        X      Y      Z        X      Y      Z
     1   6     0.02   0.11  -0.06    -0.15   0.08   0.11     0.11   0.06   0.14
     2   6     0.08   0.04   0.08    -0.12   0.05   0.06    -0.04   0.04  -0.02
     3   6     0.11  -0.03   0.09     0.08  -0.07  -0.13    -0.07   0.00  -0.08
     4   6    -0.11  -0.07   0.05    -0.07   0.02  -0.06     0.17  -0.13   0.06
     5   6     0.06  -0.03  -0.03     0.23  -0.06   0.02    -0.05   0.02   0.02
     6   8    -0.11  -0.03  -0.10    -0.01  -0.01  -0.01    -0.12  -0.01  -0.09
     7   1    -0.06   0.20  -0.33    -0.19   0.09   0.11     0.06   0.18  -0.25
     8   1     0.11   0.33   0.09    -0.22   0.08   0.09     0.28   0.34   0.33
     9   1     0.06   0.03   0.12    -0.22   0.08   0.04    -0.13   0.07  -0.03
    10   1     0.16  -0.03   0.06    -0.23   0.07   0.04    -0.14   0.08  -0.02
    11   1     0.16  -0.05   0.14     0.12  -0.09  -0.11    -0.09  -0.01  -0.04
    12   1     0.13  -0.08   0.06     0.13  -0.06  -0.11    -0.12  -0.01  -0.10
    13   1    -0.28   0.07   0.08     0.07  -0.07  -0.07     0.43  -0.22   0.07
    14   1    -0.08  -0.18   0.22    -0.14   0.06  -0.22     0.17   0.05  -0.15
    15   1     0.04  -0.03   0.00     0.40  -0.11   0.06     0.01   0.00   0.04
    16   1    -0.04  -0.04  -0.07     0.41  -0.09   0.07     0.01   0.00   0.02
    17   1     0.14  -0.01  -0.13     0.06   0.06   0.24    -0.10   0.07   0.09
    18   1    -0.47  -0.01  -0.21     0.17  -0.05   0.03     0.12  -0.21  -0.12
                     10                     11                     12
                      A                      A                      A
 Frequencies --    731.1495               782.7720               858.7040
 Red. masses --      1.0896                 1.2749                 1.7154
 Frc consts  --      0.3432                 0.4603                 0.7453
 IR Inten    --      2.1137                 1.4555                 1.0563
  Atom  AN      X      Y      Z        X      Y      Z        X      Y      Z
     1   6     0.02   0.03   0.00     0.07   0.08   0.00     0.02  -0.04  -0.09
     2   6     0.01   0.05  -0.01     0.01   0.04   0.01    -0.03   0.03   0.16
     3   6     0.01   0.04  -0.02    -0.03  -0.07   0.00    -0.03  -0.01  -0.08
     4   6     0.01   0.00   0.00     0.03   0.00  -0.01     0.11  -0.04  -0.04
     5   6     0.00   0.01   0.00    -0.02  -0.02   0.01    -0.05   0.02  -0.04
     6   8    -0.01  -0.01  -0.01    -0.04  -0.04  -0.02    -0.01   0.01   0.01
     7   1    -0.09  -0.02   0.24    -0.08   0.00   0.41    -0.08  -0.02  -0.08
     8   1     0.05  -0.20  -0.12     0.05  -0.30  -0.21    -0.22   0.02  -0.11
     9   1    -0.05  -0.09   0.45    -0.25   0.04   0.18    -0.01   0.07   0.01
    10   1    -0.11  -0.34  -0.29     0.13  -0.17  -0.09    -0.03   0.13   0.21
    11   1    -0.02  -0.10   0.41     0.14   0.01  -0.34     0.01  -0.04  -0.02
    12   1    -0.10  -0.32  -0.28    -0.06   0.27   0.21     0.16  -0.09  -0.07
    13   1    -0.02   0.00  -0.01    -0.11   0.02  -0.03    -0.31   0.20  -0.01
    14   1     0.01  -0.02   0.01     0.03  -0.07   0.07     0.27  -0.22   0.43
    15   1    -0.13  -0.01   0.13     0.27  -0.01  -0.18     0.09  -0.05   0.11
    16   1     0.09  -0.15  -0.07    -0.17   0.23   0.12     0.26  -0.10   0.00
    17   1    -0.03  -0.04   0.03     0.00   0.15  -0.01    -0.30   0.13   0.28
[...]
 0.0276197,0.102673,-0.0153394,-0.0169594,-0.0073552,0.091844,-0.731814
 2,-0.1538682,-0.1490956,-0.2073091,-0.8235324,-0.1732726,-0.1411527,-0
 .0941891,-0.2965467,-0.0034419,-0.0547134,-0.02623,-0.0174465,-0.15296
 19,-0.078087,0.0004572,-0.0495527,0.0330968,-0.0190571,-0.0190579,0.03
 54538,-0.0166976,-0.0119122,0.1214116,0.0607709,0.076408,-0.1269063,0.
 0346541,-0.01593,-0.010294,-0.0130963,-0.1158363,-0.0684646,-0.0069646
 ,-0.0425465,0.0213128,-0.0064723,-0.0083042,0.0416529,-0.0132239,-0.00
 77247,0.1052293,0.033719,0.0779646,-0.1223427,-0.0085081,-0.0055871,-0
 .0119283,-0.0301548,-0.161171,-0.0990406,-0.0204994,-0.0583194,0.01055
 96,-0.0199224,-0.0207702,0.0727952,-0.0147914,-0.0072657,0.1021888,0.0
 339983,0.0766608,-0.1285476,0.0336674,-0.0479739,0.0407919,-0.0343585,
 -0.0169422,0.0455611,0.0013858,0.0886567,-0.1048709,-0.1759214,0.11088
 22,0.0476373,0.0615797,-0.0906738,-0.0588958,0.0568985,-0.1027902,-0.0
 096985,0.0314871,-0.0649871,-0.0096856,0.0006482,-0.1378398,-0.0715847
 ,0.0235085,-0.064234,0.0376477,0.0291796,0.003186,0.0346033,-0.0314165
 ,-0.0106783,0.1070001,0.0913094,0.073053,-0.0910791,-0.143635,0.035467
 6,-0.084739,0.0235825,0.0652818,-0.0103502,-0.1229955,0.0012734,-0.027
 5062,0.3833404,0.0035717,0.018799,-0.0037739,0.2459781,-0.0005058,0.04
 94414,0.0440176,0.0988106\Polar=76.8945587,-2.9110655,62.6724998,1.670
 8534,0.7205483,62.2407596\PG=C01 [X(C5H12O1)]\NImag=0\\0.45374912,0.02
 494585,0.56462692,-0.01065523,-0.01688236,0.52200213,-0.13814442,0.033
 77427,0.03886350,0.45538805,0.03140354,-0.09623138,-0.02147085,0.03395
 174,0.56545720,0.03723265,-0.02180178,-0.10238285,-0.01153567,-0.01230
 442,0.52541962,-0.02724660,0.00189580,-0.01564277,-0.13633182,-0.00103
 624,-0.05263973,0.45267189,0.01204230,-0.00143375,0.00973356,-0.000723
 02,-0.07739168,-0.00021273,0.03201642,0.56244949,0.01042527,0.00149068
 ,0.01159845,-0.05183655,-0.00018229,-0.12200072,-0.01719270,-0.0130246
 6,0.52455072,-0.14598764,0.01349477,-0.04881947,-0.02874588,0.00296934
 ,-0.01501837,-0.00194062,0.00191708,0.00300586,0.50474158,0.00998458,-
 0.07519472,0.00431202,0.01132561,0.00133730,0.01216271,0.00233790,-0.0
 0303470,-0.00266122,-0.03228514,0.49266606,-0.04632366,0.01285063,-0.1
 1907722,0.00838723,0.00315509,0.01243617,0.00309720,-0.00202899,-0.003
 24509,-0.07013945,-0.04150916,0.57580315,-0.00259562,-0.00062652,-0.00
 354436,-0.02744428,0.01193185,0.01045581,-0.14704031,0.03544623,0.0395
 0500,-0.00049769,0.00105410,0.00115348,0.49723564,-0.00052906,-0.00026
 118,-0.00008583,0.00251754,-0.00112232,0.00101807,0.03606064,-0.095405
 29,-0.02049199,-0.00009076,0.00064427,-0.00020450,0.03120226,0.5392973
 9,-0.00329529,-0.00030980,-0.00404317,-0.01612345,0.00900147,0.0109889
 9,0.04113814,-0.02093517,-0.10026363,-0.00111850,0.00088787,0.00132901
 ,0.03788330,-0.01665370,0.53986144,-0.00800346,-0.03524900,-0.00897066
 ,0.00173532,0.00058417,0.00070815,0.00038600,-0.00102043,-0.00004102,-
 0.07437830,-0.04169619,-0.01134386,0.00014846,0.00007742,-0.00007674,0
 .11903542,-0.01110201,-0.01659104,-0.00467382,0.00149633,-0.00124569,-
 0.00170246,-0.00049073,0.00126193,0.00076085,-0.03835800,-0.19619503,-
 0.05309908,-0.00026575,-0.00007690,-0.00030619,0.14612509,0.40570526,-
 0.00908706,-0.02695209,-0.00524254,0.00135848,-0.00019395,0.00055915,-
 0.00011220,0.00017191,0.00031820,0.00459230,-0.00840351,-0.10105060,-0
 .00001531,0.00006759,-0.00009621,-0.10191547,-0.13111576,0.48566148,-0
 .05620167,-0.04683746,-0.01365863,0.00390046,0.02706104,0.00721034,0.0
 0189375,0.00086735,0.00056191,-0.00335974,-0.02606048,-0.00266076,-0.0
 0008264,-0.00006011,0.00014007,-0.00582007,-0.00198099,-0.00554983,0.0
 6391671,-0.04782472,-0.26863283,-0.05767608,-0.00214245,-0.01334367,-0
 .00354836,-0.00100291,0.00019850,-0.00013772,0.00119899,-0.00196919,0.
 00092993,0.00028955,0.00038578,0.00016860,-0.00078802,0.00168182,-0.00
 040307,0.05066344,0.29414263,-0.01326073,-0.05695055,-0.06224981,-0.00
 235454,-0.01467738,-0.00457245,-0.00052656,0.00064753,0.00021844,-0.00
 170983,-0.01918528,-0.00414224,-0.00003507,0.00009334,-0.00004460,-0.0
 0446965,-0.00140407,-0.00205897,0.01359133,0.06597556,0.06573393,-0.05
 782454,-0.02674015,0.04365959,-0.00809307,-0.01369056,0.02290599,0.001
 43722,-0.00108168,0.00144457,0.00429181,0.01441513,-0.02595589,-0.0000
 9949,0.00021060,-0.00018898,0.00198150,0.00177848,0.00177832,-0.002011
 06,-0.00359210,0.00616485,0.06668450,-0.02579130,-0.10619325,0.1002578
 7,0.00368689,0.00656414,-0.01166124,-0.00036792,0.00053224,-0.00029023
 ,-0.00153443,-0.00237476,-0.00036875,-0.00011011,0.00002396,-0.0002838
 3,0.00104540,0.00213616,-0.00119174,-0.00578723,-0.01543005,0.02598384
 ,0.02644762,0.11293659,0.04413317,0.09993482,-0.21863446,0.00417533,0.
 00755708,-0.01343476,-0.00111864,0.00011583,0.00039034,0.00411387,0.01
 216926,-0.01948800,0.00000130,-0.00025058,0.00035073,0.00090936,-0.001
 08588,0.00265489,-0.00151644,-0.00370498,0.00679059,-0.04810682,-0.111
 34595,0.24188599,0.00500677,0.02704654,0.00800361,-0.05801573,-0.05325
 313,-0.01538978,-0.00810659,-0.02478895,-0.00801428,0.00102429,0.00137
 294,0.00004914,0.00132548,-0.00139044,-0.00003056,-0.00010334,-0.00140
 493,-0.00021077,-0.00459496,0.00253278,0.00242811,0.00104495,-0.000748
 44,-0.00027760,0.06775648,-0.00100939,-0.01330896,-0.00320780,-0.05179
 035,-0.26661037,-0.06685594,0.00041889,0.00093555,0.00033931,-0.001043
 62,-0.00179399,-0.00118809,0.00017247,0.00073821,0.00037599,-0.0012613
 7,0.00189084,0.00053209,0.00227732,0.00046370,-0.00146026,0.00027025,0
 .00075344,-0.00022921,0.05544904,0.29034486,-0.00214625,-0.01411940,-0
 .00451973,-0.01493881,-0.06701423,-0.06953413,-0.00613579,-0.01998449,
 -0.00734959,-0.00060954,-0.00004233,0.00016858,0.00110768,0.00003869,0
 .00049264,-0.00049921,0.00070032,-0.00016668,0.00220283,-0.00135935,-0
 .00061544,-0.00061528,-0.00002263,0.00014603,0.01813699,0.07610055,0.0
 7494265,-0.00898939,-0.01399563,0.02261530,-0.05918540,-0.03138355,0.0
 4701085,0.00419225,0.01508170,-0.02255705,0.00139223,-0.00125415,0.001
 73058,0.00177655,0.00029054,-0.00082187,-0.00039780,0.00021605,-0.0006
 2506,0.00112953,0.00017242,-0.00062678,-0.00419732,0.00260366,0.002320
 94,-0.00206001,-0.00373347,0.00583598,0.06907728,0.00447178,0.00665767
 ,-0.01215931,-0.03139756,-0.11793069,0.10626228,-0.00028474,-0.0007941
 5,0.00020053,-0.00039350,0.00040884,0.00001625,-0.00027211,0.00000323,
 0.00024171,-0.00054412,0.00020903,-0.00031031,-0.00071607,0.00097588,-
 0.00004402,0.00291472,0.00012870,-0.00172341,-0.00677696,-0.01620929,0
 .02530016,0.03168979,0.12449352,0.00458869,0.00753103,-0.01305338,0.04
 698771,0.10553118,-0.20880967,0.00371992,0.01178556,-0.01852960,-0.001
 04253,0.00001782,0.00046666,0.00108821,-0.00040425,0.00073497,0.000197
 43,-0.00001088,0.00003191,-0.00040696,-0.00023480,0.00014962,0.0021904
 2,-0.00151393,-0.00049604,-0.00209450,-0.00448792,0.00765387,-0.051639
 18,-0.11678030,0.23145910,0.00157766,-0.00158695,-0.00013874,-0.008212
 16,-0.02522270,-0.00815134,-0.05708149,-0.05033593,-0.01516892,-0.0000
 2831,-0.00014710,-0.00027672,0.00434610,0.02729298,0.00869328,-0.00024
 849,0.00048140,0.00018399,-0.00031285,0.00088563,0.00020685,-0.0000662
 7,-0.00002567,0.00005516,-0.00386063,0.00085955,-0.00347273,0.00105953
 ,0.00061117,0.00044611,0.06722229,0.00046177,0.00059054,0.00032238,0.0
 0017499,0.00029147,0.00017966,-0.05005790,-0.26218392,-0.06660124,-0.0
 0031674,0.00025078,-0.00001111,-0.00203973,-0.01236259,-0.00356615,0.0
 0016576,0.00018648,0.00009801,-0.00066008,0.00035624,0.00010383,-0.000
 05772,-0.00010188,-0.00003531,0.00056357,0.00159108,-0.00003013,-0.000
 23441,0.00070862,-0.00050614,0.05280659,0.28589416,0.00121219,-0.00023
 377,0.00040523,-0.00623971,-0.02034137,-0.00725037,-0.01486008,-0.0658
 6899,-0.06929058,0.00002464,-0.00011853,-0.00023434,-0.00232035,-0.014
 01790,-0.00477948,-0.00015754,0.00030086,0.00008896,-0.00031990,0.0004
 7111,0.00045188,-0.00006368,0.00016069,0.00002866,-0.00347382,0.000169
 86,-0.00204367,0.00082239,-0.00023295,0.00038387,0.01799053,0.07560674
 ,0.07435418,0.00187877,0.00031792,-0.00106109,0.00419441,0.01517211,-0
 .02241146,-0.05888885,-0.03162964,0.04671998,-0.00008736,-0.00013078,-
 0.00021384,-0.00837194,-0.01443606,0.02297327,0.00002663,-0.00002124,0
 .00009486,-0.00006733,0.00000681,0.00004768,-0.00030758,-0.00024567,0.
 00056691,0.00107649,-0.00025373,0.00079842,-0.00411413,0.00042524,-0.0
 0348738,-0.00223453,-0.00383919,0.00563249,0.06940862,-0.00046138,-0.0
 0005689,0.00036698,-0.00004551,-0.00068276,0.00019205,-0.03179575,-0.1
 1910261,0.10723050,0.00022153,0.00017390,-0.00027368,0.00424091,0.0072
 0829,-0.01237813,0.00008114,-0.00008246,-0.00000638,-0.00006103,-0.000
 05054,0.00010982,0.00060906,0.00010607,-0.00018123,0.00053848,0.000673
 42,-0.00026444,0.00041502,0.00136819,-0.00044498,-0.00708946,-0.016789
 54,0.02486310,0.03220467,0.12603799,0.00132495,-0.00037932,0.00034559,
 0.00366435,0.01198172,-0.01875810,0.04679296,0.10643861,-0.21027462,-0
 .00016310,-0.00019949,0.00024781,0.00405057,0.00718588,-0.01164451,-0.
 00007999,-0.00012614,0.00004362,-0.00005709,-0.00002617,0.00003051,-0.
 00087530,0.00014637,0.00077529,0.00046906,-0.00048833,0.00042363,-0.00
 369328,-0.00037191,-0.00180685,-0.00222960,-0.00459346,0.00788659,-0.0
 5121526,-0.11765172,0.23189478,0.00456317,0.01240076,-0.02466299,0.002
 11645,0.00038309,-0.00092315,-0.00010185,-0.00007075,-0.00018275,-0.06
 035625,-0.01996725,0.04621641,0.00004191,-0.00003877,0.00015775,-0.003
 04328,-0.01073192,0.00879997,0.00083166,-0.00032149,0.00082155,-0.0040
 9834,0.00036415,-0.00365698,-0.00011058,0.00011047,0.00009033,-0.00028
 694,-0.00035130,0.00057627,0.00005359,0.00002730,0.00000001,0.00001290
 ,-0.00013568,0.00026179,0.06474885,0.00065308,0.00161298,0.00099373,-0
 .00048324,-0.00017910,0.00026275,0.00012983,0.00008620,-0.00021578,-0.
 01784608,-0.09163363,0.08972902,0.00002211,-0.00002585,0.00001787,-0.0
 1373404,-0.02863539,0.02893240,0.00049436,0.00020038,0.00032547,-0.000
 60301,0.00100363,-0.00000275,-0.00006067,-0.00004530,0.00006853,0.0003
 6547,0.00006539,-0.00005191,-0.00002435,-0.00002358,-0.00000308,-0.000
 08009,-0.00000128,-0.00005636,0.02995421,0.11563485,0.00313705,0.00840
 511,-0.01796378,0.00143885,-0.00049043,0.00095366,-0.00016567,-0.00021
 016,0.00023380,0.04922157,0.10116499,-0.24943084,-0.00002382,-0.000020
 21,0.00002394,-0.00220289,-0.00442409,0.01067201,-0.00014862,-0.000445
 39,0.00005896,-0.00353131,-0.00076064,-0.00107136,-0.00012040,0.000045
 53,0.00004870,-0.00101809,0.00016607,0.00065779,0.00003135,0.00001328,
 -0.00002684,0.00023289,-0.00009685,0.00017823,-0.04828276,-0.10576831,
 0.26535213,-0.02057072,0.01162674,0.01357804,-0.00269724,-0.00104496,-
 0.00575043,-0.00079756,0.00103344,0.00154551,-0.19165020,0.08664935,0.
 08383395,-0.00043905,-0.00009736,-0.00063597,0.01352659,-0.00914015,-0
 .00787050,0.00023512,-0.00067642,0.00012378,0.00115158,0.00045590,-0.0
 0045663,0.00027841,0.00009105,-0.00002567,0.00035692,-0.00025422,-0.00
 009639,-0.00002676,-0.00011106,-0.00000515,-0.00000047,0.00008084,-0.0
 0011406,-0.00458205,0.00298385,0.00270772,0.20439358,0.00164615,0.0013
 9881,-0.00011159,-0.00050877,0.00102372,0.00011529,0.00003711,0.000168
 53,-0.00013268,0.08475092,-0.09916533,-0.04393758,-0.00002501,-0.00003
 461,0.00001562,0.01542940,-0.03512692,-0.02030591,0.00038016,0.0006311
 1,0.00034425,-0.00006644,-0.00024963,-0.00037660,-0.00035637,0.0001586
 4,0.00001571,0.00023701,0.00000747,-0.00018254,0.00001553,-0.00000950,
 0.00000931,-0.00003680,-0.00000633,-0.00003326,-0.00972504,0.00845465,
 0.00545157,-0.09278835,0.12178639,-0.01770334,0.00986918,0.00890172,-0
 .00198553,-0.00049723,-0.00286471,-0.00086808,0.00036730,0.00089776,0.
 08295931,-0.04728029,-0.10016433,-0.00028284,-0.00002963,-0.00032235,0
 .00202491,-0.01089996,-0.00123422,0.00103474,-0.00012678,0.00079094,0.
 00084327,0.00019311,0.00083869,-0.00002329,0.00016594,-0.00003315,-0.0
 0030338,-0.00014986,0.00029515,0.00002769,-0.00001735,0.00001850,0.000
 09550,0.00002163,0.00002670,0.02191965,-0.01272249,-0.01149279,-0.0865
 6656,0.06033158,0.10384337,-0.00010977,-0.00002052,0.00014936,0.001985
 17,0.00093263,0.00049167,0.00454833,0.02700502,0.00766293,0.00004473,-
 0.00006937,-0.00002615,-0.05543390,-0.04677597,-0.01446934,0.00001970,
 -0.00007542,-0.00002697,0.00003830,-0.00023190,-0.00009225,0.00003377,
 0.00002786,-0.00000039,-0.00028626,-0.00063217,-0.00028656,-0.00007660
 ,-0.00005904,-0.00008094,-0.00441399,0.00264571,0.00248351,0.00118671,
 -0.00067154,-0.00048609,-0.00001389,0.00000228,-0.00000200,0.00003906,
 -0.00000093,0.00001501,0.05986248,0.00029107,0.00038443,0.00019423,-0.
 00105889,0.00033570,0.00000109,-0.00224962,-0.01262802,-0.00369337,-0.
 00004183,-0.00012531,-0.00008646,-0.04604864,-0.27321862,-0.06807476,0
 .00004903,0.00015623,0.00004999,-0.00022634,0.00015380,0.00007249,-0.0
 0003530,-0.00001982,-0.00000077,0.00087529,0.00025351,0.00042571,0.000
 01675,-0.00008892,-0.00001005,0.00256567,0.00063625,-0.00130794,0.0002
 0671,0.00086650,-0.00018535,0.00000549,0.00000007,0.00000460,0.0000283
 0,0.00000445,0.00001708,0.04888110,0.29784430,-0.00002363,0.00013255,0
 .00000253,-0.00061416,0.00074944,0.00026289,-0.00276743,-0.01460782,-0
 .00515668,-0.00005931,0.00001898,-0.00001845,-0.01426936,-0.06799153,-
 0.06734806,0.00007793,0.00005447,0.00001648,-0.00010266,0.00007695,-0.
 00001778,0.00002428,-0.00002162,-0.00005214,0.00025860,0.00011768,0.00
 047851,0.00006755,0.00010655,0.00004005,0.00289699,-0.00108188,-0.0006
 0962,-0.00059135,0.00003395,-0.00000952,-0.00000272,0.00000865,0.00000
 349,0.00001656,-0.00000463,-0.00000358,0.01326708,0.07715519,0.0703148
 3,-0.00011681,0.00025289,-0.00008378,0.00148457,-0.00126437,0.00125596
 ,-0.00825512,-0.01495704,0.02206487,0.00005096,0.00004192,-0.00006881,
 -0.06367669,-0.03603044,0.05328545,0.00000595,0.00001127,-0.00002056,0
 .00001031,-0.00002746,0.00002139,0.00021966,0.00002764,-0.00025982,-0.
 00008008,-0.00000822,-0.00004835,-0.00027021,0.00051975,-0.00078964,0.
 00111936,0.00005097,-0.00069297,-0.00420313,0.00269030,0.00228658,-0.0
 0006002,0.00001451,-0.00004275,0.00002159,0.00000271,0.00000704,-0.002
 62726,-0.00328998,0.00512922,0.06913754,-0.00007152,0.00006379,-0.0003
 1493,-0.00049206,0.00041244,-0.00033636,0.00419256,0.00758433,-0.01211
 821,-0.00005985,-0.00000485,0.00012486,-0.03646639,-0.11947205,0.11018
 042,-0.00002296,-0.00000456,-0.00003098,0.00001658,-0.00002509,-0.0000
 1786,0.00003267,-0.00007943,0.00005539,0.00000507,-0.00007578,0.000155
 32,-0.00031344,0.00009230,0.00017598,-0.00075090,0.00088150,-0.0000158
 4,0.00296604,-0.00006742,-0.00158273,0.00001705,0.00001243,0.00000762,
 -0.00002691,0.00000450,-0.00002036,-0.00715224,-0.01576760,0.02523180,
 0.03774211,0.12712499,-0.00002038,-0.00016245,0.00031069,-0.00105778,-
 0.00004592,0.00059749,0.00395603,0.00754193,-0.01253871,-0.00003857,-0
 .00006080,-0.00002876,0.05374433,0.10988512,-0.21245655,0.00006454,0.0
 0001872,0.00003255,0.00001164,-0.00002018,-0.00004707,-0.00023381,0.00
 004434,0.00005255,0.00002139,-0.00004205,0.00003444,0.00060164,-0.0001
 0991,0.00067747,-0.00035871,-0.00031764,0.00006230,0.00241949,-0.00196
 943,-0.00011225,0.00002289,-0.00000018,0.00002187,0.00004300,-0.000002
 38,0.00000146,-0.00286285,-0.00520239,0.00830994,-0.06212247,-0.120487
 91,0.23143520,-0.00081983,-0.00022743,-0.00180055,-0.00318694,0.002731
 23,0.00478269,-0.01925876,-0.00091015,-0.01783334,-0.00023633,0.000493
 83,0.00061143,-0.19918984,0.00178864,-0.12755721,-0.00016466,-0.000197
 26,-0.00008644,-0.00000990,0.00011464,0.00001527,-0.00003859,-0.000095
 83,0.00008732,0.00037770,-0.00006036,0.00024762,0.00024397,0.00012151,
 -0.00002898,0.00102059,0.00037076,-0.00008070,0.00055392,-0.00080569,0
 .00014913,0.00004405,-0.00000306,-0.00001542,-0.00027969,-0.00000355,-
 0.00014024,-0.00476098,0.00002281,-0.00330730,0.00722023,0.00036781,0.
 00584635,0.21840313,0.00068022,0.00058603,0.00059894,0.00169788,-0.000
 96238,-0.00201600,0.01018545,-0.00121920,0.00970464,0.00015166,-0.0002
 1208,-0.00024373,0.00145344,-0.04635538,0.00153671,0.00001048,0.000081
 35,0.00002128,-0.00009973,-0.00001376,0.00005365,0.00004913,0.00000084
 ,-0.00004179,0.00033849,0.00030181,0.00016044,-0.00027917,0.00004823,-
 0.00033266,-0.00031007,0.00011119,0.00055040,-0.00062344,0.00039601,-0
 .00011787,-0.00001964,0.00000115,0.00000525,0.00011169,-0.00000167,0.0
 0006112,-0.02381625,0.00124317,-0.01995056,0.01423422,-0.00066976,0.01
 093571,-0.00375500,0.04668389,0.00070726,-0.00015992,0.00075555,0.0018
 5521,-0.00111530,-0.00131306,0.01339683,0.00012380,0.01039084,0.000217
 47,-0.00016394,-0.00018273,-0.12849479,0.00182518,-0.15276347,-0.00006
 114,0.00003471,0.00000533,-0.00004823,0.00001058,0.00002607,-0.0000838
 7,0.00006983,0.00003197,0.00011040,0.00011522,-0.00009995,0.00016808,-
 0.00030859,0.00026380,-0.00072484,0.00042872,0.00056674,-0.00058363,0.
 00042046,0.00078803,-0.00000725,-0.00001141,-0.00000967,0.00008639,0.0
 0000308,0.00004372,-0.00573833,0.00065084,-0.00621388,-0.01992957,-0.0
 0100110,-0.01634366,0.13911018,-0.00091959,0.16405176,-0.00016504,-0.0
 0047187,0.00216888,-0.00074749,-0.00022523,-0.00023418,-0.00007985,0.0
 0010806,-0.00010929,-0.00427730,-0.00606490,0.01192973,-0.00000270,0.0
 0000835,0.00004664,-0.04470616,-0.07634020,0.10871226,0.00050437,0.000
 74322,-0.00034540,-0.00010872,0.00004748,-0.00097005,-0.00067238,0.000
 14364,0.00035833,0.00034954,0.00029566,-0.00012827,0.00008636,0.000049
 40,0.00004816,-0.00006314,-0.00001589,-0.00008561,0.00024063,-0.001785
 16,-0.00121571,0.00104089,0.00101226,-0.00105384,-0.00003559,0.0000083
 9,-0.00000028,0.00001915,0.00001637,-0.00003672,0.00008194,-0.00000938
 ,0.00001983,0.04853549,0.00020903,0.00198284,-0.00019715,0.00001662,0.
 00027806,0.00024539,0.00001120,-0.00002345,-0.00017711,-0.01273435,-0.
 02377755,0.03614534,0.00004133,0.00003366,0.00008147,-0.06925176,-0.13
 535110,0.15904043,0.00072929,0.00027531,0.00002963,-0.00086070,0.00026
 306,-0.00085391,0.00005769,-0.00006136,-0.00012845,0.00010541,-0.00014
 404,-0.00008121,-0.00002539,-0.00002728,0.00000831,-0.00000285,0.00000
 945,0.00005953,-0.00190067,-0.00652760,-0.00304793,0.00107828,0.000955
 71,0.00071700,0.00001074,-0.00003013,-0.00002816,-0.00001077,-0.000009
 74,-0.00000457,0.00004710,-0.00001944,-0.00000257,0.08247980,0.1621735
 8,-0.00024567,-0.00226256,0.00284507,-0.00004446,0.00035737,-0.0002971
 4,-0.00007142,-0.00005303,0.00005066,-0.00541635,-0.01110912,0.0066112
 2,-0.00000378,0.00003626,-0.00001968,0.12583586,0.20697840,-0.39023537
 ,-0.00028372,0.00005015,-0.00050258,0.00064365,0.00060451,-0.00076899,
 0.00015771,-0.00000256,-0.00002673,0.00011137,-0.00010298,-0.00011874,
 -0.00001035,0.00000779,-0.00001203,-0.00001750,0.00002835,-0.00003494,
 -0.00114802,-0.00150615,0.00179070,-0.00041360,-0.00119923,0.00045713,
 0.00000232,-0.00001012,0.00000097,0.00000822,-0.00000510,-0.00000895,0
 .00000020,-0.00000594,0.00000262,-0.11910448,-0.19180604,0.38026679\\-
 0.00000182,-0.00000357,0.00000075,-0.00000104,-0.00000321,0.00000578,-
 0.00000362,-0.00000200,-0.00000427,-0.00000161,0.00000306,-0.00000271,
 0.00000531,0.00000161,0.00000178,0.00000134,0.00000095,-0.00000382,0.0
 0000089,0.00000131,0.00000178,0.00000092,0.00000023,-0.00000154,0.0000
 0040,0.00000193,-0.00000063,0.00000062,0.00000296,-0.00000323,0.000001
 21,0.00000202,0.00000131,0.00000060,-0.00000159,0.00000035,-0.00000049
 ,-0.00000133,0.00000398,0.00000102,-0.00000068,0.00000122,-0.00000076,
 -0.00000105,-0.00000142,-0.00000068,0.00000080,0.00000108,-0.00000163,
 -0.00000027,-0.00000286,-0.00000066,-0.00000117,0.00000245\\\@


 IT IS BY LOGIC THAT WE PROVE, BUT BY INTUITION THAT WE DISCOVER.
     -- J.H.POINCARE (1854-1912)
 Job cpu time:       0 days  0 hours 45 minutes 39.0 seconds.
 File lengths (MBytes):  RWF=     70 Int=      0 D2E=      0 Chk=      4 Scr=      1
 Normal termination of Gaussian 09 at Mon Apr 27 05:15:50 2015.
