 Entering Gaussian System, Link 0=g09
 Input=freq-fine-ti_3let-b971-6311+gdp.gau
 Output=freq-fine-ti_3let-b971-6311+gdp.log
 Initial command:
 /opt/g09/l1.exe "/scratch/pb556/g09_run/mech//Gau-14781.inp" -scrdir="/scratch/pb556/g09_run/mech//"
 Entering Link 1 = /opt/g09/l1.exe PID=     14790.
  
 Copyright (c) 1988,1990,1992,1993,1995,1998,2003,2009,2013,
            Gaussian, Inc.  All Rights Reserved.
  
 This is part of the Gaussian(R) 09 program.  It is based on
 the Gaussian(R) 03 system (copyright 2003, Gaussian, Inc.),
 the Gaussian(R) 98 system (copyright 1998, Gaussian, Inc.),
 the Gaussian(R) 94 system (copyright 1995, Gaussian, Inc.),
 the Gaussian 92(TM) system (copyright 1992, Gaussian, Inc.),
 the Gaussian 90(TM) system (copyright 1990, Gaussian, Inc.),
 the Gaussian 88(TM) system (copyright 1988, Gaussian, Inc.),
 the Gaussian 86(TM) system (copyright 1986, Carnegie Mellon
 University), and the Gaussian 82(TM) system (copyright 1983,
 Carnegie Mellon University). Gaussian is a federally registered
 trademark of Gaussian, Inc.
  
 This software contains proprietary and confidential information,
 including trade secrets, belonging to Gaussian, Inc.
  
 This software is provided under written license and may be
 used, copied, transmitted, or stored only in accord with that
 written license.
  
 The following legend is applicable only to US Government
 contracts under FAR:
  
                    RESTRICTED RIGHTS LEGEND
  
 Use, reproduction and disclosure by the US Government is
 subject to restrictions as set forth in subparagraphs (a)
 and (c) of the Commercial Computer Software - Restricted
 Rights clause in FAR 52.227-19.
  
 Gaussian, Inc.
 340 Quinnipiac St., Bldg. 40, Wallingford CT 06492
  
  
 ---------------------------------------------------------------
 Warning -- This program may not be used in any manner that
 competes with the business of Gaussian, Inc. or will provide
 assistance to any competitor of Gaussian, Inc.  The licensee
 of this program is prohibited from giving any competitor of
 Gaussian, Inc. access to this program.  By using this program,
 the user acknowledges that Gaussian, Inc. is engaged in the
 business of creating and licensing software in the field of
 computational chemistry and represents and warrants to the
 licensee that it is not a competitor of Gaussian, Inc. and that
 it will not use this program in any manner prohibited above.
 ---------------------------------------------------------------
  

 Cite this work as:
 Gaussian 09, Revision D.01,
 M. J. Frisch, G. W. Trucks, H. B. Schlegel, G. E. Scuseria, 
 M. A. Robb, J. R. Cheeseman, G. Scalmani, V. Barone, B. Mennucci, 
 G. A. Petersson, H. Nakatsuji, M. Caricato, X. Li, H. P. Hratchian, 
 A. F. Izmaylov, J. Bloino, G. Zheng, J. L. Sonnenberg, M. Hada, 
 M. Ehara, K. Toyota, R. Fukuda, J. Hasegawa, M. Ishida, T. Nakajima, 
 Y. Honda, O. Kitao, H. Nakai, T. Vreven, J. A. Montgomery, Jr., 
 J. E. Peralta, F. Ogliaro, M. Bearpark, J. J. Heyd, E. Brothers, 
 K. N. Kudin, V. N. Staroverov, T. Keith, R. Kobayashi, J. Normand, 
 K. Raghavachari, A. Rendell, J. C. Burant, S. S. Iyengar, J. Tomasi, 
 M. Cossi, N. Rega, J. M. Millam, M. Klene, J. E. Knox, J. B. Cross, 
 V. Bakken, C. Adamo, J. Jaramillo, R. Gomperts, R. E. Stratmann, 
 O. Yazyev, A. J. Austin, R. Cammi, C. Pomelli, J. W. Ochterski, 
 R. L. Martin, K. Morokuma, V. G. Zakrzewski, G. A. Voth, 
 P. Salvador, J. J. Dannenberg, S. Dapprich, A. D. Daniels, 
 O. Farkas, J. B. Foresman, J. V. Ortiz, J. Cioslowski, 
 and D. J. Fox, Gaussian, Inc., Wallingford CT, 2013.
 
 ******************************************
 Gaussian 09:  ES64L-G09RevD.01 24-Apr-2013
                 7-Feb-2015 
 ******************************************
 %NProcShared=8
 Will use up to    8 processors via shared memory.
 %Mem=500MW
 ----------------------------------------------------------------------
 #p uB971/6-311+G(d,p) Opt=(Tight, CalcAll) Freq GFInput Population=Non
 e Integral(Grid=UltraFine) SCF=XQC Guess=MIX NoSymmetry
 ----------------------------------------------------------------------
 1/7=10,10=4,14=-1,18=20,19=15,26=4,38=1/1,3;
 2/9=110,12=2,15=1,17=6,18=5,40=1/2;
 3/5=4,6=6,7=111,11=2,16=1,24=10,25=1,30=1,71=2,74=-20,75=-5,116=2,140=1/1,2,3;
 4/13=-1/1;
 5/5=2,8=3,13=1,38=5/2,8;
 8/6=4,10=90,11=11/1;
 11/6=1,8=1,9=11,15=111,16=1,31=1/1,2,10;
 10/6=1,31=1/2;
 7/10=1,25=1,30=1/1,2,3,16;
 1/7=10,10=4,14=-1,18=20,19=15,26=4/3(3);
 2/9=110,15=1/2;
 7/8=1,9=1,25=1,30=1,44=-1/16;
 99//99;
 2/9=110,15=1/2;
 3/5=4,6=6,7=111,11=2,16=1,25=1,30=1,71=2,74=-20,75=-5,116=2,140=1/1,2,3;
 4/5=5,16=3,69=1/1;
 5/5=2,8=3,13=1,38=5/2,8;
 8/6=4,10=90,11=11/1;
 11/6=1,8=1,9=11,15=111,16=1,31=1/1,2,10;
 10/6=1,31=1/2;
 7/10=1,25=1,30=1/1,2,3,16;
 1/7=10,10=4,14=-1,18=20,19=15,26=4/3(-8);
 2/9=110,15=1/2;
 7/8=1,9=1,25=1,30=1,44=-1/16;
 99//99;
 Leave Link    1 at Sat Feb  7 23:40:36 2015, MaxMem=   524288000 cpu:         0.5
 (Enter /opt/g09/l101.exe)
 -----------------------------------
 freq-fine-ti_3let-b971-6311+gdp.gau
 -----------------------------------
 Symbolic Z-matrix:
 Charge =  0 Multiplicity = 3
 Ti                    0.        0.        0. 
 
 NAtoms=      1 NQM=        1 NQMF=       0 NMMI=      0 NMMIF=      0
                NMic=       0 NMicF=      0.
                    Isotopes and Nuclear Properties:
 (Nuclear quadrupole moments (NQMom) in fm**2, nuclear magnetic moments (NMagM)
  in nuclear magnetons)

  Atom         1
 IAtWgt=          48
 AtmWgt=  47.9479467
 NucSpn=           0
 AtZEff=   0.0000000
 NQMom=    0.0000000
 NMagM=    0.0000000
 AtZNuc=  22.0000000
 Leave Link  101 at Sat Feb  7 23:40:36 2015, MaxMem=   524288000 cpu:         1.9
 (Enter /opt/g09/l103.exe)

 GradGradGradGradGradGradGradGradGradGradGradGradGradGradGradGradGradGrad
 Berny optimization.
 Initialization pass.
 No Z-matrix variables, so optimization will use Cartesian coordinates.
 Trust Radius=3.00D-01 FncErr=1.00D-07 GrdErr=1.00D-06
 Number of steps in this run=     20 maximum allowed number of steps=    100.
 GradGradGradGradGradGradGradGradGradGradGradGradGradGradGradGradGradGrad

 Leave Link  103 at Sat Feb  7 23:40:36 2015, MaxMem=   524288000 cpu:         0.1
 (Enter /opt/g09/l202.exe)
                          Input orientation:                          
 ---------------------------------------------------------------------
 Center     Atomic      Atomic             Coordinates (Angstroms)
 Number     Number       Type             X           Y           Z
 ---------------------------------------------------------------------
      1         22           0        0.000000    0.000000    0.000000
 ---------------------------------------------------------------------
 Symmetry turned off by external request.
 Stoichiometry    Ti(3)
 Framework group  OH[O(Ti)]
 Deg. of freedom     0
 Full point group                 OH      NOp  48
 Leave Link  202 at Sat Feb  7 23:40:36 2015, MaxMem=   524288000 cpu:         0.0
 (Enter /opt/g09/l301.exe)
 Standard basis: 6-311+G(d,p) (5D, 7F)
 Ernie: Thresh=  0.10000D-02 Tol=  0.10000D-05 Strict=F.
 AO basis set in the form of general basis input (Overlap normalization):
      1 0
 S   6 1.00       0.000000000000
      0.2060820000D+06  0.5673151380D-03
      0.3122680000D+05  0.4379672866D-02
      0.7199320000D+04  0.2242029425D-01
      0.2048750000D+04  0.9063426645D-01
      0.6707900000D+03  0.2890357165D+00
      0.2436500000D+03  0.6803470061D+00
 S   1 1.00       0.000000000000
      0.9592500000D+02  0.1000000000D+01
 S   1 1.00       0.000000000000
      0.3981010000D+02  0.1000000000D+01
 S   1 1.00       0.000000000000
      0.1222050000D+02  0.1000000000D+01
 S   1 1.00       0.000000000000
      0.5008820000D+01  0.1000000000D+01
 S   1 1.00       0.000000000000
      0.1285690000D+01  0.1000000000D+01
 S   1 1.00       0.000000000000
      0.5128060000D+00  0.1000000000D+01
 S   1 1.00       0.000000000000
      0.8557600000D-01  0.1000000000D+01
 S   1 1.00       0.000000000000
      0.3330200000D-01  0.1000000000D+01
 S   1 1.00       0.000000000000
      0.9991000000D-02  0.1000000000D+01
 P   5 1.00       0.000000000000
      0.1264700000D+04  0.3122017423D-02
      0.3012300000D+03  0.2516579464D-01
      0.9697770000D+02  0.1184178291D+00
      0.3637270000D+02  0.3522190030D+00
      0.1478140000D+02  0.6219379661D+00
 P   1 1.00       0.000000000000
      0.6274650000D+01  0.1000000000D+01
 P   1 1.00       0.000000000000
      0.2478780000D+01  0.1000000000D+01
 P   1 1.00       0.000000000000
      0.1016180000D+01  0.1000000000D+01
 P   1 1.00       0.000000000000
      0.3981620000D+00  0.1000000000D+01
 P   1 1.00       0.000000000000
      0.1015610000D+00  0.1000000000D+01
 P   1 1.00       0.000000000000
      0.3405400000D-01  0.1000000000D+01
 D   3 1.00       0.000000000000
      0.2599240000D+02  0.5411706153D-01
      0.7086340000D+01  0.2873032281D+00
      0.2348710000D+01  0.7854540223D+00
 D   1 1.00       0.000000000000
      0.8001980000D+00  0.1000000000D+01
 D   1 1.00       0.000000000000
      0.2620490000D+00  0.1000000000D+01
 D   1 1.00       0.000000000000
      0.7200000000D-01  0.1000000000D+01
 F   1 1.00       0.000000000000
      0.6900000000D+00  0.1000000000D+01
 ****

    58 basis functions,    94 primitive gaussians,    65 cartesian basis functions
    12 alpha electrons       10 beta electrons
       nuclear repulsion energy         0.0000000000 Hartrees.
 IExCor= 1614 DFT=T Ex+Corr=B971 ExCW=0 ScaHFX=  0.210000
 ScaDFX=  1.000000  1.000000  1.000000  1.000000 ScalE2=  1.000000  1.000000
 IRadAn=      5 IRanWt=     -1 IRanGd=            0 ICorTp=0 IEmpDi=  4
 NAtoms=    1 NActive=    1 NUniq=    1 SFac= 1.00D+00 NAtFMM=   60 NAOKFM=F Big=F
 Integral buffers will be    131072 words long.
 Raffenetti 2 integral format.
 Two-electron integral symmetry is turned off.
 Leave Link  301 at Sat Feb  7 23:40:36 2015, MaxMem=   524288000 cpu:         0.4
 (Enter /opt/g09/l302.exe)
 NPDir=0 NMtPBC=     1 NCelOv=     1 NCel=       1 NClECP=     1 NCelD=      1
         NCelK=      1 NCelE2=     1 NClLst=     1 CellRange=     0.0.
 One-electron integrals computed using PRISM.
 NBasis=    58 RedAO= T EigKep=  1.13D-02  NBF=    58
 NBsUse=    58 1.00D-06 EigRej= -1.00D+00 NBFU=    58
 Precomputing XC quadrature grid using
 IXCGrd= 4 IRadAn=           5 IRanWt=          -1 IRanGd=           0 AccXCQ= 0.00D+00.
 Generated NRdTot=       0 NPtTot=           0 NUsed=           0 NTot=          32
 NSgBfM=    65    65    65    65    65 MxSgAt=     1 MxSgA2=     1.
 Leave Link  302 at Sat Feb  7 23:40:37 2015, MaxMem=   524288000 cpu:         1.5
 (Enter /opt/g09/l303.exe)
 DipDrv:  MaxL=1.
 Leave Link  303 at Sat Feb  7 23:40:37 2015, MaxMem=   524288000 cpu:         0.3
 (Enter /opt/g09/l401.exe)
 ExpMin= 9.99D-03 ExpMax= 2.06D+05 ExpMxC= 7.20D+03 IAcc=3 IRadAn=         5 AccDes= 0.00D+00
 Harris functional with IExCor= 1614 and IRadAn=       5 diagonalized for initial guess.
 HarFok:  IExCor= 1614 AccDes= 0.00D+00 IRadAn=         5 IDoV= 1 UseB2=F ITyADJ=14
 ICtDFT=  3500011 ScaDFX=  1.000000  1.000000  1.000000  1.000000
 FoFCou: FMM=F IPFlag=           0 FMFlag=      100000 FMFlg1=           0
         NFxFlg=           0 DoJE=T BraDBF=F KetDBF=T FulRan=T
         wScrn=  0.000000 ICntrl=     500 IOpCl=  0 I1Cent=   200000004 NGrid=           0
         NMat0=    1 NMatS0=      1 NMatT0=    0 NMatD0=    1 NMtDS0=    0 NMtDT0=    0
 Symmetry not used in FoFCou.
 DSYEVD-2 returned Info=         117 IAlg= 4 N=    58 NDim=    58 NE2=     9039280 trying  DSYEV.
 Harris En= -840.668442520170    
 JPrj=0 DoOrth=F DoCkMO=T.
 Mixing orbitals, IMix= 1 IMixAn=  0 NRI=1 NE=   12 Coef=  7.07106781D-01  7.07106781D-01
 Mixing orbitals, IMix= 1 IMixAn=  0 NRI=1 NE=   10 Coef= -7.07106781D-01  7.07106781D-01
 Initial guess <Sx>= 0.0000 <Sy>= 0.0000 <Sz>= 1.0000 <S**2>= 2.0000 S= 1.0000
 Leave Link  401 at Sat Feb  7 23:40:37 2015, MaxMem=   524288000 cpu:         1.7
 (Enter /opt/g09/l502.exe)
 UHF open shell SCF:
 Using DIIS extrapolation, IDIIS=  1040.
 Two-electron integral symmetry not used.
 Keep R1 and R2 ints in memory in canonical form, NReq=4905073.
 IVT=       19529 IEndB=       19529 NGot=   524288000 MDV=   521339240
 LenX=   521339240 LenY=   521334574
 Requested convergence on RMS density matrix=1.00D-08 within  64 cycles.
 Requested convergence on MAX density matrix=1.00D-06.
 Requested convergence on             energy=1.00D-06.
 No special actions if energy rises.
 FoFCou: FMM=F IPFlag=           0 FMFlag=           0 FMFlg1=           0
         NFxFlg=           0 DoJE=F BraDBF=F KetDBF=F FulRan=T
         wScrn=  0.000000 ICntrl=     600 IOpCl=  0 I1Cent=           0 NGrid=           0
         NMat0=    1 NMatS0=   1711 NMatT0=    0 NMatD0=    1 NMtDS0=    0 NMtDT0=    0
 Symmetry not used in FoFCou.

 Cycle   1  Pass 1  IDiag  1:
 E= -847.941721602802    
 DIIS: error= 2.73D-01 at cycle   1 NSaved=   1.
 NSaved= 1 IEnMin= 1 EnMin= -847.941721602802     IErMin= 1 ErrMin= 2.73D-01
 ErrMax= 2.73D-01  0.00D+00 EMaxC= 1.00D-01 BMatC= 1.15D+01 BMatP= 1.15D+01
 IDIUse=3 WtCom= 0.00D+00 WtEn= 1.00D+00
 Coeff-Com:  0.100D+01
 Coeff-En:   0.100D+01
 Coeff:      0.100D+01
 Gap=     0.036 Goal=   None    Shift=    0.000
 Gap=     0.023 Goal=   None    Shift=    0.000
 GapD=    0.023 DampG=0.250 DampE=0.125 DampFc=0.1250 IDamp=-1.
 Damping current iteration by 1.25D-01
 RMSDP=2.64D-02 MaxDP=6.28D-01              OVMax= 1.00D+00

 Cycle   2  Pass 1  IDiag  1:
 E= -848.339024708063     Delta-E=       -0.397303105261 Rises=F Damp=T
 DIIS: error= 2.34D-01 at cycle   2 NSaved=   2.
 NSaved= 2 IEnMin= 2 EnMin= -848.339024708063     IErMin= 2 ErrMin= 2.34D-01
 ErrMax= 2.34D-01  0.00D+00 EMaxC= 1.00D-01 BMatC= 7.01D+00 BMatP= 1.15D+01
 IDIUse=3 WtCom= 0.00D+00 WtEn= 1.00D+00
 Coeff-Com: -0.283D+01 0.383D+01
 Coeff-En:   0.000D+00 0.100D+01
 Coeff:      0.000D+00 0.100D+01
 Gap=     0.019 Goal=   None    Shift=    0.000
 Gap=     0.026 Goal=   None    Shift=    0.000
 RMSDP=2.18D-02 MaxDP=5.49D-01 DE=-3.97D-01 OVMax= 1.77D-01

 Cycle   3  Pass 1  IDiag  1:
 E= -847.483534621061     Delta-E=        0.855490087001 Rises=F Damp=F
 DIIS: error= 2.05D-01 at cycle   3 NSaved=   3.
 NSaved= 3 IEnMin= 2 EnMin= -848.339024708063     IErMin= 3 ErrMin= 2.05D-01
 ErrMax= 2.05D-01  0.00D+00 EMaxC= 1.00D-01 BMatC= 1.08D+01 BMatP= 7.01D+00
 IDIUse=2 WtCom= 0.00D+00 WtEn= 1.00D+00
 EnCoef did   100 forward-backward iterations
 Coeff-En:   0.538D+00 0.203D-01 0.442D+00
 Coeff:      0.538D+00 0.203D-01 0.442D+00
 Gap=     0.020 Goal=   None    Shift=    0.000
 Gap=     0.022 Goal=   None    Shift=    0.000
 RMSDP=1.72D-02 MaxDP=7.25D-01 DE= 8.55D-01 OVMax= 9.99D-01

 Cycle   4  Pass 1  IDiag  1:
 E= -849.143437300291     Delta-E=       -1.659902679230 Rises=F Damp=F
 DIIS: error= 3.03D-02 at cycle   4 NSaved=   4.
 NSaved= 4 IEnMin= 4 EnMin= -849.143437300291     IErMin= 4 ErrMin= 3.03D-02
 ErrMax= 3.03D-02  0.00D+00 EMaxC= 1.00D-01 BMatC= 9.44D-02 BMatP= 7.01D+00
 IDIUse=3 WtCom= 6.97D-01 WtEn= 3.03D-01
 Coeff-Com: -0.429D-01 0.937D-01-0.318D-01 0.981D+00
 Coeff-En:   0.000D+00 0.000D+00 0.000D+00 0.100D+01
 Coeff:     -0.299D-01 0.654D-01-0.222D-01 0.987D+00
 Gap=     0.138 Goal=   None    Shift=    0.000
 Gap=     0.015 Goal=   None    Shift=    0.000
 RMSDP=1.15D-02 MaxDP=4.33D-01 DE=-1.66D+00 OVMax= 6.62D-01

 Cycle   5  Pass 1  IDiag  1:
 E= -849.140337136049     Delta-E=        0.003100164242 Rises=F Damp=F
 DIIS: error= 6.36D-02 at cycle   5 NSaved=   5.
 NSaved= 5 IEnMin= 4 EnMin= -849.143437300291     IErMin= 4 ErrMin= 3.03D-02
 ErrMax= 6.36D-02  0.00D+00 EMaxC= 1.00D-01 BMatC= 3.39D-01 BMatP= 9.44D-02
 IDIUse=2 WtCom= 0.00D+00 WtEn= 1.00D+00
 Coeff-En:   0.000D+00 0.000D+00 0.000D+00 0.514D+00 0.486D+00
 Coeff:      0.000D+00 0.000D+00 0.000D+00 0.514D+00 0.486D+00
 Gap=     0.138 Goal=   None    Shift=    0.000
 Gap=     0.045 Goal=   None    Shift=    0.000
 RMSDP=5.19D-03 MaxDP=1.82D-01 DE= 3.10D-03 OVMax= 1.88D-01

 Cycle   6  Pass 1  IDiag  1:
 E= -849.208032992359     Delta-E=       -0.067695856310 Rises=F Damp=F
 DIIS: error= 8.14D-03 at cycle   6 NSaved=   6.
 NSaved= 6 IEnMin= 6 EnMin= -849.208032992359     IErMin= 6 ErrMin= 8.14D-03
 ErrMax= 8.14D-03  0.00D+00 EMaxC= 1.00D-01 BMatC= 1.63D-02 BMatP= 9.44D-02
 IDIUse=3 WtCom= 9.19D-01 WtEn= 8.14D-02
 Coeff-Com: -0.372D-01 0.576D-01-0.319D-02 0.214D+00 0.168D+00 0.601D+00
 Coeff-En:   0.000D+00 0.000D+00 0.000D+00 0.000D+00 0.000D+00 0.100D+01
 Coeff:     -0.341D-01 0.529D-01-0.293D-02 0.196D+00 0.154D+00 0.633D+00
 Gap=     0.101 Goal=   None    Shift=    0.000
 Gap=     0.045 Goal=   None    Shift=    0.000
 RMSDP=5.60D-03 MaxDP=1.63D-01 DE=-6.77D-02 OVMax= 4.36D-01

 Cycle   7  Pass 1  IDiag  1:
 E= -849.227916519724     Delta-E=       -0.019883527365 Rises=F Damp=F
 DIIS: error= 2.13D-02 at cycle   7 NSaved=   7.
 NSaved= 7 IEnMin= 7 EnMin= -849.227916519724     IErMin= 6 ErrMin= 8.14D-03
 ErrMax= 2.13D-02  0.00D+00 EMaxC= 1.00D-01 BMatC= 3.57D-02 BMatP= 1.63D-02
 IDIUse=2 WtCom= 0.00D+00 WtEn= 1.00D+00
 Coeff-En:   0.000D+00 0.000D+00 0.000D+00 0.000D+00 0.000D+00 0.000D+00
 Coeff-En:   0.100D+01
 Coeff:      0.000D+00 0.000D+00 0.000D+00 0.000D+00 0.000D+00 0.000D+00
 Coeff:      0.100D+01
 Gap=     0.046 Goal=   None    Shift=    0.000
 Gap=     0.074 Goal=   None    Shift=    0.000
 RMSDP=3.98D-03 MaxDP=1.71D-01 DE=-1.99D-02 OVMax= 9.82D-02

 Cycle   8  Pass 1  IDiag  1:
 E= -849.234288568438     Delta-E=       -0.006372048714 Rises=F Damp=F
 DIIS: error= 1.40D-02 at cycle   8 NSaved=   8.
 NSaved= 8 IEnMin= 8 EnMin= -849.234288568438     IErMin= 6 ErrMin= 8.14D-03
 ErrMax= 1.40D-02  0.00D+00 EMaxC= 1.00D-01 BMatC= 3.98D-02 BMatP= 1.63D-02
 IDIUse=2 WtCom= 0.00D+00 WtEn= 1.00D+00
 Coeff-En:   0.000D+00 0.000D+00 0.000D+00 0.000D+00 0.000D+00 0.000D+00
 Coeff-En:   0.147D+00 0.853D+00
 Coeff:      0.000D+00 0.000D+00 0.000D+00 0.000D+00 0.000D+00 0.000D+00
 Coeff:      0.147D+00 0.853D+00
 Gap=     0.094 Goal=   None    Shift=    0.000
 Gap=     0.109 Goal=   None    Shift=    0.000
 RMSDP=3.05D-03 MaxDP=9.29D-02 DE=-6.37D-03 OVMax= 1.35D-01

 Cycle   9  Pass 1  IDiag  1:
 E= -849.238662902801     Delta-E=       -0.004374334363 Rises=F Damp=F
 DIIS: error= 1.24D-02 at cycle   9 NSaved=   9.
 NSaved= 9 IEnMin= 9 EnMin= -849.238662902801     IErMin= 6 ErrMin= 8.14D-03
 ErrMax= 1.24D-02  0.00D+00 EMaxC= 1.00D-01 BMatC= 2.38D-02 BMatP= 1.63D-02
 IDIUse=2 WtCom= 0.00D+00 WtEn= 1.00D+00
 Coeff-En:   0.000D+00 0.000D+00 0.000D+00 0.000D+00 0.000D+00 0.000D+00
 Coeff-En:   0.000D+00 0.206D+00 0.794D+00
 Coeff:      0.000D+00 0.000D+00 0.000D+00 0.000D+00 0.000D+00 0.000D+00
 Coeff:      0.000D+00 0.206D+00 0.794D+00
 Gap=     0.060 Goal=   None    Shift=    0.000
 Gap=     0.079 Goal=   None    Shift=    0.000
 RMSDP=1.86D-03 MaxDP=6.31D-02 DE=-4.37D-03 OVMax= 4.31D-02

 Cycle  10  Pass 1  IDiag  1:
 E= -849.241572867101     Delta-E=       -0.002909964300 Rises=F Damp=F
 DIIS: error= 5.36D-03 at cycle  10 NSaved=  10.
 NSaved=10 IEnMin=10 EnMin= -849.241572867101     IErMin=10 ErrMin= 5.36D-03
 ErrMax= 5.36D-03  0.00D+00 EMaxC= 1.00D-01 BMatC= 5.58D-03 BMatP= 1.63D-02
 IDIUse=3 WtCom= 9.46D-01 WtEn= 5.36D-02
 Coeff-Com: -0.552D-02 0.733D-02 0.542D-04 0.273D-02-0.108D-02-0.180D-01
 Coeff-Com: -0.570D-01-0.166D+00 0.302D+00 0.935D+00
 Coeff-En:   0.000D+00 0.000D+00 0.000D+00 0.000D+00 0.000D+00 0.000D+00
 Coeff-En:   0.000D+00 0.000D+00 0.000D+00 0.100D+01
 Coeff:     -0.522D-02 0.693D-02 0.513D-04 0.258D-02-0.102D-02-0.170D-01
 Coeff:     -0.540D-01-0.157D+00 0.286D+00 0.939D+00
 Gap=     0.069 Goal=   None    Shift=    0.000
 Gap=     0.088 Goal=   None    Shift=    0.000
 RMSDP=8.64D-04 MaxDP=1.54D-02 DE=-2.91D-03 OVMax= 5.91D-02

 Cycle  11  Pass 1  IDiag  1:
 E= -849.242627639063     Delta-E=       -0.001054771962 Rises=F Damp=F
 DIIS: error= 3.64D-04 at cycle  11 NSaved=  11.
 NSaved=11 IEnMin=11 EnMin= -849.242627639063     IErMin=11 ErrMin= 3.64D-04
 ErrMax= 3.64D-04  0.00D+00 EMaxC= 1.00D-01 BMatC= 2.80D-05 BMatP= 5.58D-03
 IDIUse=3 WtCom= 9.96D-01 WtEn= 3.64D-03
 Coeff-Com: -0.531D-03 0.419D-03 0.155D-03-0.382D-02-0.695D-02-0.258D-01
 Coeff-Com:  0.910D-01 0.289D-01-0.187D+00-0.276D+00 0.138D+01
 Coeff-En:   0.000D+00 0.000D+00 0.000D+00 0.000D+00 0.000D+00 0.000D+00
 Coeff-En:   0.000D+00 0.000D+00 0.000D+00 0.000D+00 0.100D+01
 Coeff:     -0.529D-03 0.417D-03 0.155D-03-0.380D-02-0.692D-02-0.257D-01
 Coeff:      0.907D-01 0.288D-01-0.186D+00-0.275D+00 0.138D+01
 Gap=     0.068 Goal=   None    Shift=    0.000
 Gap=     0.089 Goal=   None    Shift=    0.000
 RMSDP=4.13D-04 MaxDP=5.42D-03 DE=-1.05D-03 OVMax= 2.63D-02

 Cycle  12  Pass 1  IDiag  1:
 E= -849.242764175353     Delta-E=       -0.000136536290 Rises=F Damp=F
 DIIS: error= 3.45D-04 at cycle  12 NSaved=  12.
 NSaved=12 IEnMin=12 EnMin= -849.242764175353     IErMin=12 ErrMin= 3.45D-04
 ErrMax= 3.45D-04  0.00D+00 EMaxC= 1.00D-01 BMatC= 1.72D-05 BMatP= 2.80D-05
 IDIUse=3 WtCom= 9.97D-01 WtEn= 3.45D-03
 Coeff-Com:  0.118D-02-0.155D-02-0.321D-04-0.245D-02-0.234D-02-0.582D-02
 Coeff-Com:  0.525D-01 0.442D-01-0.102D+00-0.252D+00-0.266D-01 0.130D+01
 Coeff-En:   0.000D+00 0.000D+00 0.000D+00 0.000D+00 0.000D+00 0.000D+00
 Coeff-En:   0.000D+00 0.000D+00 0.000D+00 0.000D+00 0.000D+00 0.100D+01
 Coeff:      0.118D-02-0.154D-02-0.320D-04-0.244D-02-0.233D-02-0.580D-02
 Coeff:      0.524D-01 0.440D-01-0.102D+00-0.251D+00-0.265D-01 0.129D+01
 Gap=     0.069 Goal=   None    Shift=    0.000
 Gap=     0.088 Goal=   None    Shift=    0.000
 RMSDP=3.14D-04 MaxDP=4.12D-03 DE=-1.37D-04 OVMax= 2.06D-02

 Cycle  13  Pass 1  IDiag  1:
 E= -849.242826164895     Delta-E=       -0.000061989542 Rises=F Damp=F
 DIIS: error= 1.41D-04 at cycle  13 NSaved=  13.
 NSaved=13 IEnMin=13 EnMin= -849.242826164895     IErMin=13 ErrMin= 1.41D-04
 ErrMax= 1.41D-04  0.00D+00 EMaxC= 1.00D-01 BMatC= 4.02D-06 BMatP= 1.72D-05
 IDIUse=3 WtCom= 9.99D-01 WtEn= 1.41D-03
 Coeff-Com:  0.436D-03-0.477D-03-0.643D-04 0.831D-03-0.247D-02 0.765D-03
 Coeff-Com:  0.178D-01 0.979D-02-0.212D-01-0.701D-01-0.307D+00 0.375D+00
 Coeff-Com:  0.996D+00
 Coeff-En:   0.000D+00 0.000D+00 0.000D+00 0.000D+00 0.000D+00 0.000D+00
 Coeff-En:   0.000D+00 0.000D+00 0.000D+00 0.000D+00 0.000D+00 0.000D+00
 Coeff-En:   0.100D+01
 Coeff:      0.435D-03-0.476D-03-0.642D-04 0.830D-03-0.247D-02 0.764D-03
 Coeff:      0.178D-01 0.977D-02-0.212D-01-0.700D-01-0.306D+00 0.374D+00
 Coeff:      0.996D+00
 Gap=     0.069 Goal=   None    Shift=    0.000
 Gap=     0.088 Goal=   None    Shift=    0.000
 RMSDP=2.13D-04 MaxDP=2.73D-03 DE=-6.20D-05 OVMax= 1.49D-02

 Cycle  14  Pass 1  IDiag  1:
 E= -849.242847758564     Delta-E=       -0.000021593670 Rises=F Damp=F
 DIIS: error= 8.58D-05 at cycle  14 NSaved=  14.
 NSaved=14 IEnMin=14 EnMin= -849.242847758564     IErMin=14 ErrMin= 8.58D-05
 ErrMax= 8.58D-05  0.00D+00 EMaxC= 1.00D-01 BMatC= 6.30D-07 BMatP= 4.02D-06
 IDIUse=1 WtCom= 1.00D+00 WtEn= 0.00D+00
 Coeff-Com: -0.425D-04 0.763D-04 0.266D-04 0.505D-03 0.136D-02 0.260D-02
 Coeff-Com: -0.147D-01-0.716D-02 0.217D-01 0.469D-01 0.347D-01-0.346D+00
 Coeff-Com: -0.174D+00 0.143D+01
 Coeff:     -0.425D-04 0.763D-04 0.266D-04 0.505D-03 0.136D-02 0.260D-02
 Coeff:     -0.147D-01-0.716D-02 0.217D-01 0.469D-01 0.347D-01-0.346D+00
 Coeff:     -0.174D+00 0.143D+01
 Gap=     0.069 Goal=   None    Shift=    0.000
 Gap=     0.089 Goal=   None    Shift=    0.000
 RMSDP=1.56D-04 MaxDP=2.55D-03 DE=-2.16D-05 OVMax= 1.19D-02

 Cycle  15  Pass 1  IDiag  1:
 E= -849.242856438738     Delta-E=       -0.000008680173 Rises=F Damp=F
 DIIS: error= 6.15D-05 at cycle  15 NSaved=  15.
 NSaved=15 IEnMin=15 EnMin= -849.242856438738     IErMin=15 ErrMin= 6.15D-05
 ErrMax= 6.15D-05  0.00D+00 EMaxC= 1.00D-01 BMatC= 3.56D-07 BMatP= 6.30D-07
 IDIUse=1 WtCom= 1.00D+00 WtEn= 0.00D+00
 Coeff-Com: -0.516D-04 0.691D-04-0.995D-05 0.205D-03 0.523D-03 0.192D-02
 Coeff-Com: -0.614D-02-0.293D-02 0.132D-01 0.221D-01-0.651D-01 0.476D-01
 Coeff-Com: -0.126D-01-0.110D+00 0.111D+01
 Coeff:     -0.516D-04 0.691D-04-0.995D-05 0.205D-03 0.523D-03 0.192D-02
 Coeff:     -0.614D-02-0.293D-02 0.132D-01 0.221D-01-0.651D-01 0.476D-01
 Coeff:     -0.126D-01-0.110D+00 0.111D+01
 Gap=     0.069 Goal=   None    Shift=    0.000
 Gap=     0.089 Goal=   None    Shift=    0.000
 RMSDP=6.66D-05 MaxDP=1.17D-03 DE=-8.68D-06 OVMax= 5.07D-03

 Cycle  16  Pass 1  IDiag  1:
 E= -849.242860129507     Delta-E=       -0.000003690769 Rises=F Damp=F
 DIIS: error= 5.93D-05 at cycle  16 NSaved=  16.
 NSaved=16 IEnMin=16 EnMin= -849.242860129507     IErMin=16 ErrMin= 5.93D-05
 ErrMax= 5.93D-05  0.00D+00 EMaxC= 1.00D-01 BMatC= 3.63D-07 BMatP= 3.56D-07
 IDIUse=1 WtCom= 1.00D+00 WtEn= 0.00D+00
 Coeff-Com: -0.547D-04 0.821D-04-0.186D-04 0.265D-03 0.782D-03 0.352D-02
 Coeff-Com: -0.124D-01-0.626D-02 0.304D-01 0.530D-01-0.142D+00 0.937D-01
 Coeff-Com: -0.320D-03-0.525D+00 0.369D+01-0.219D+01
 Coeff:     -0.547D-04 0.821D-04-0.186D-04 0.265D-03 0.782D-03 0.352D-02
 Coeff:     -0.124D-01-0.626D-02 0.304D-01 0.530D-01-0.142D+00 0.937D-01
 Coeff:     -0.320D-03-0.525D+00 0.369D+01-0.219D+01
 Gap=     0.069 Goal=   None    Shift=    0.000
 Gap=     0.088 Goal=   None    Shift=    0.000
 RMSDP=1.12D-04 MaxDP=1.73D-03 DE=-3.69D-06 OVMax= 8.55D-03

 Cycle  17  Pass 1  IDiag  1:
 E= -849.242854070506     Delta-E=        0.000006059001 Rises=F Damp=F
 DIIS: error= 5.51D-05 at cycle  17 NSaved=  17.
 NSaved=17 IEnMin=16 EnMin= -849.242860129507     IErMin=17 ErrMin= 5.51D-05
 ErrMax= 5.51D-05  0.00D+00 EMaxC= 1.00D-01 BMatC= 3.65D-07 BMatP= 3.56D-07
 IDIUse=1 WtCom= 1.00D+00 WtEn= 0.00D+00
 Coeff-Com: -0.209D-03 0.272D-03-0.157D-04 0.652D-03 0.159D-02 0.214D-02
 Coeff-Com: -0.991D-02-0.967D-03 0.648D-02 0.948D-02-0.279D-01 0.197D+00
 Coeff-Com: -0.227D+00 0.536D-01-0.181D+01-0.363D+01 0.643D+01
 Coeff:     -0.209D-03 0.272D-03-0.157D-04 0.652D-03 0.159D-02 0.214D-02
 Coeff:     -0.991D-02-0.967D-03 0.648D-02 0.948D-02-0.279D-01 0.197D+00
 Coeff:     -0.227D+00 0.536D-01-0.181D+01-0.363D+01 0.643D+01
 Gap=     0.069 Goal=   None    Shift=    0.000
 Gap=     0.088 Goal=   None    Shift=    0.000
 RMSDP=4.84D-04 MaxDP=7.47D-03 DE= 6.06D-06 OVMax= 3.72D-02

 Cycle  18  Pass 1  IDiag  1:
 E= -849.242838036945     Delta-E=        0.000016033561 Rises=F Damp=F
 DIIS: error= 4.02D-05 at cycle  18 NSaved=  18.
 NSaved=18 IEnMin=16 EnMin= -849.242860129507     IErMin=18 ErrMin= 4.02D-05
 ErrMax= 4.02D-05  0.00D+00 EMaxC= 1.00D-01 BMatC= 2.98D-07 BMatP= 3.56D-07
 IDIUse=1 WtCom= 1.00D+00 WtEn= 0.00D+00
 Coeff-Com: -0.898D-04 0.110D-03-0.214D-04 0.370D-03 0.968D-03 0.386D-02
 Coeff-Com: -0.916D-02-0.458D-02 0.192D-01 0.270D-01-0.147D+00 0.226D+00
 Coeff-Com: -0.683D-02-0.393D+00 0.814D+00-0.257D+01 0.228D+01 0.757D+00
 Coeff:     -0.898D-04 0.110D-03-0.214D-04 0.370D-03 0.968D-03 0.386D-02
 Coeff:     -0.916D-02-0.458D-02 0.192D-01 0.270D-01-0.147D+00 0.226D+00
 Coeff:     -0.683D-02-0.393D+00 0.814D+00-0.257D+01 0.228D+01 0.757D+00
 Gap=     0.069 Goal=   None    Shift=    0.000
 Gap=     0.088 Goal=   None    Shift=    0.000
 RMSDP=1.23D-04 MaxDP=1.93D-03 DE= 1.60D-05 OVMax= 9.42D-03

 Cycle  19  Pass 1  IDiag  1:
 E= -849.242836817456     Delta-E=        0.000001219489 Rises=F Damp=F
 DIIS: error= 2.24D-05 at cycle  19 NSaved=  19.
 NSaved=19 IEnMin=16 EnMin= -849.242860129507     IErMin=19 ErrMin= 2.24D-05
 ErrMax= 2.24D-05  0.00D+00 EMaxC= 1.00D-01 BMatC= 1.13D-07 BMatP= 2.98D-07
 IDIUse=1 WtCom= 1.00D+00 WtEn= 0.00D+00
 Coeff-Com: -0.840D-04 0.103D-03-0.245D-05 0.395D-04 0.442D-03 0.666D-03
 Coeff-Com: -0.126D-02 0.108D-03-0.276D-02-0.561D-02-0.106D-02 0.813D-01
 Coeff-Com: -0.631D-01-0.132D+00 0.608D+00 0.202D+01-0.255D+01-0.196D+01
 Coeff-Com:  0.301D+01
 Coeff:     -0.840D-04 0.103D-03-0.245D-05 0.395D-04 0.442D-03 0.666D-03
 Coeff:     -0.126D-02 0.108D-03-0.276D-02-0.561D-02-0.106D-02 0.813D-01
 Coeff:     -0.631D-01-0.132D+00 0.608D+00 0.202D+01-0.255D+01-0.196D+01
 Coeff:      0.301D+01
 Gap=     0.069 Goal=   None    Shift=    0.000
 Gap=     0.088 Goal=   None    Shift=    0.000
 RMSDP=3.77D-05 MaxDP=1.27D-03 DE= 1.22D-06 OVMax= 1.52D-03

 Cycle  20  Pass 1  IDiag  1:
 E= -849.242836627717     Delta-E=        0.000000189739 Rises=F Damp=F
 DIIS: error= 1.07D-04 at cycle  20 NSaved=  20.
 NSaved=20 IEnMin=16 EnMin= -849.242860129507     IErMin=19 ErrMin= 2.24D-05
 ErrMax= 1.07D-04  0.00D+00 EMaxC= 1.00D-01 BMatC= 1.15D-06 BMatP= 1.13D-07
 IDIUse=1 WtCom= 1.00D+00 WtEn= 0.00D+00
 Coeff-Com: -0.392D-04 0.490D-04 0.367D-05-0.515D-04 0.644D-04-0.166D-03
 Coeff-Com: -0.315D-03 0.664D-03-0.154D-02-0.315D-02 0.400D-02 0.318D-02
 Coeff-Com:  0.530D-03 0.343D-01-0.954D-01 0.142D+01-0.170D+01 0.909D-01
 Coeff-Com:  0.725D+00 0.527D+00
 Coeff:     -0.392D-04 0.490D-04 0.367D-05-0.515D-04 0.644D-04-0.166D-03
 Coeff:     -0.315D-03 0.664D-03-0.154D-02-0.315D-02 0.400D-02 0.318D-02
 Coeff:      0.530D-03 0.343D-01-0.954D-01 0.142D+01-0.170D+01 0.909D-01
 Coeff:      0.725D+00 0.527D+00
 Gap=     0.069 Goal=   None    Shift=    0.000
 Gap=     0.088 Goal=   None    Shift=    0.000
 RMSDP=4.11D-05 MaxDP=7.10D-04 DE= 1.90D-07 OVMax= 2.99D-03

 Cycle  21  Pass 1  IDiag  1:
 E= -849.242836758515     Delta-E=       -0.000000130798 Rises=F Damp=F
 DIIS: error= 1.69D-05 at cycle  21 NSaved=  20.
 NSaved=20 IEnMin=15 EnMin= -849.242860129507     IErMin=20 ErrMin= 1.69D-05
 ErrMax= 1.69D-05  0.00D+00 EMaxC= 1.00D-01 BMatC= 3.59D-08 BMatP= 1.13D-07
 IDIUse=1 WtCom= 1.00D+00 WtEn= 0.00D+00
 Coeff-Com: -0.391D-05 0.502D-05-0.254D-04-0.295D-04 0.259D-04 0.178D-05
 Coeff-Com:  0.410D-04 0.448D-03 0.552D-03-0.400D-02-0.904D-03 0.719D-02
 Coeff-Com:  0.150D-01-0.623D-01 0.280D+00-0.367D+00 0.222D+00 0.418D-01
 Coeff-Com:  0.928D-02 0.857D+00
 Coeff:     -0.391D-05 0.502D-05-0.254D-04-0.295D-04 0.259D-04 0.178D-05
 Coeff:      0.410D-04 0.448D-03 0.552D-03-0.400D-02-0.904D-03 0.719D-02
 Coeff:      0.150D-01-0.623D-01 0.280D+00-0.367D+00 0.222D+00 0.418D-01
 Coeff:      0.928D-02 0.857D+00
 Gap=     0.069 Goal=   None    Shift=    0.000
 Gap=     0.088 Goal=   None    Shift=    0.000
 RMSDP=1.75D-05 MaxDP=2.50D-04 DE=-1.31D-07 OVMax= 1.31D-03

 Cycle  22  Pass 1  IDiag  1:
 E= -849.242836753018     Delta-E=        0.000000005497 Rises=F Damp=F
 DIIS: error= 4.11D-06 at cycle  22 NSaved=  20.
 NSaved=20 IEnMin=14 EnMin= -849.242860129507     IErMin=20 ErrMin= 4.11D-06
 ErrMax= 4.11D-06  0.00D+00 EMaxC= 1.00D-01 BMatC= 1.67D-09 BMatP= 3.59D-08
 IDIUse=1 WtCom= 1.00D+00 WtEn= 0.00D+00
 Coeff-Com: -0.142D-06-0.303D-05-0.678D-05 0.479D-04 0.932D-04-0.552D-04
 Coeff-Com:  0.886D-04 0.173D-03-0.422D-03 0.248D-04-0.891D-03 0.184D-02
 Coeff-Com: -0.223D-02-0.562D-02 0.223D-03-0.420D-02 0.170D-01-0.526D-01
 Coeff-Com:  0.337D+00 0.709D+00
 Coeff:     -0.142D-06-0.303D-05-0.678D-05 0.479D-04 0.932D-04-0.552D-04
 Coeff:      0.886D-04 0.173D-03-0.422D-03 0.248D-04-0.891D-03 0.184D-02
 Coeff:     -0.223D-02-0.562D-02 0.223D-03-0.420D-02 0.170D-01-0.526D-01
 Coeff:      0.337D+00 0.709D+00
 Gap=     0.069 Goal=   None    Shift=    0.000
 Gap=     0.088 Goal=   None    Shift=    0.000
 RMSDP=2.26D-06 MaxDP=3.64D-05 DE= 5.50D-09 OVMax= 1.72D-04

 Cycle  23  Pass 1  IDiag  1:
 E= -849.242836753397     Delta-E=       -0.000000000379 Rises=F Damp=F
 DIIS: error= 3.87D-07 at cycle  23 NSaved=  20.
 NSaved=20 IEnMin=13 EnMin= -849.242860129507     IErMin=20 ErrMin= 3.87D-07
 ErrMax= 3.87D-07  0.00D+00 EMaxC= 1.00D-01 BMatC= 5.50D-11 BMatP= 1.67D-09
 IDIUse=1 WtCom= 1.00D+00 WtEn= 0.00D+00
 Coeff-Com:  0.237D-05 0.471D-05-0.264D-04 0.320D-04 0.450D-04-0.284D-03
 Coeff-Com: -0.451D-03 0.162D-02-0.116D-02-0.469D-03-0.392D-03 0.667D-02
 Coeff-Com: -0.287D-01 0.376D-01-0.125D-01-0.379D-01 0.154D-01-0.144D+00
 Coeff-Com: -0.901D-01 0.125D+01
 Coeff:      0.237D-05 0.471D-05-0.264D-04 0.320D-04 0.450D-04-0.284D-03
 Coeff:     -0.451D-03 0.162D-02-0.116D-02-0.469D-03-0.392D-03 0.667D-02
 Coeff:     -0.287D-01 0.376D-01-0.125D-01-0.379D-01 0.154D-01-0.144D+00
 Coeff:     -0.901D-01 0.125D+01
 Gap=     0.069 Goal=   None    Shift=    0.000
 Gap=     0.088 Goal=   None    Shift=    0.000
 RMSDP=4.86D-07 MaxDP=1.00D-05 DE=-3.79D-10 OVMax= 2.19D-05

 Cycle  24  Pass 1  IDiag  1:
 E= -849.242836753550     Delta-E=       -0.000000000153 Rises=F Damp=F
 DIIS: error= 3.94D-07 at cycle  24 NSaved=  20.
 NSaved=20 IEnMin=12 EnMin= -849.242860129507     IErMin=19 ErrMin= 3.87D-07
 ErrMax= 3.94D-07  0.00D+00 EMaxC= 1.00D-01 BMatC= 1.94D-11 BMatP= 5.50D-11
 IDIUse=1 WtCom= 1.00D+00 WtEn= 0.00D+00
 Coeff-Com:  0.893D-06-0.142D-04 0.126D-04 0.225D-04-0.798D-04-0.154D-03
 Coeff-Com:  0.146D-03 0.303D-03 0.100D-03-0.126D-02 0.323D-02-0.233D-02
 Coeff-Com:  0.440D-02-0.545D-02-0.519D-02 0.886D-02-0.781D-01-0.919D-01
 Coeff-Com:  0.378D+00 0.790D+00
 Coeff:      0.893D-06-0.142D-04 0.126D-04 0.225D-04-0.798D-04-0.154D-03
 Coeff:      0.146D-03 0.303D-03 0.100D-03-0.126D-02 0.323D-02-0.233D-02
 Coeff:      0.440D-02-0.545D-02-0.519D-02 0.886D-02-0.781D-01-0.919D-01
 Coeff:      0.378D+00 0.790D+00
 Gap=     0.069 Goal=   None    Shift=    0.000
 Gap=     0.088 Goal=   None    Shift=    0.000
 RMSDP=3.25D-07 MaxDP=4.01D-06 DE=-1.53D-10 OVMax= 1.96D-05

 Cycle  25  Pass 1  IDiag  1:
 E= -849.242836753615     Delta-E=       -0.000000000065 Rises=F Damp=F
 DIIS: error= 4.55D-07 at cycle  25 NSaved=  20.
 NSaved=20 IEnMin=11 EnMin= -849.242860129507     IErMin=18 ErrMin= 3.87D-07
 ErrMax= 4.55D-07  0.00D+00 EMaxC= 1.00D-01 BMatC= 2.28D-11 BMatP= 1.94D-11
 IDIUse=1 WtCom= 1.00D+00 WtEn= 0.00D+00
 Coeff-Com: -0.148D-04 0.112D-04 0.231D-04-0.883D-04-0.166D-03 0.187D-03
 Coeff-Com:  0.311D-03 0.311D-04-0.130D-02 0.392D-02-0.556D-03 0.194D-02
 Coeff-Com: -0.597D-02-0.474D-02 0.106D-01-0.852D-01-0.103D+00 0.412D+00
 Coeff-Com:  0.897D+00-0.126D+00
 Coeff:     -0.148D-04 0.112D-04 0.231D-04-0.883D-04-0.166D-03 0.187D-03
 Coeff:      0.311D-03 0.311D-04-0.130D-02 0.392D-02-0.556D-03 0.194D-02
 Coeff:     -0.597D-02-0.474D-02 0.106D-01-0.852D-01-0.103D+00 0.412D+00
 Coeff:      0.897D+00-0.126D+00
 Gap=     0.069 Goal=   None    Shift=    0.000
 Gap=     0.088 Goal=   None    Shift=    0.000
 RMSDP=3.53D-08 MaxDP=6.94D-07 DE=-6.49D-11 OVMax= 2.10D-06

 Cycle  26  Pass 1  IDiag  1:
 E= -849.242836753603     Delta-E=        0.000000000012 Rises=F Damp=F
 DIIS: error= 4.45D-07 at cycle  26 NSaved=  20.
 NSaved=20 IEnMin=10 EnMin= -849.242860129507     IErMin=17 ErrMin= 3.87D-07
 ErrMax= 4.45D-07  0.00D+00 EMaxC= 1.00D-01 BMatC= 2.48D-11 BMatP= 1.94D-11
 IDIUse=1 WtCom= 1.00D+00 WtEn= 0.00D+00
 Large coefficients: NSaved= 20 BigCof=   23.04 CofMax=   10.00 Det=-1.01D-14
 Inversion failed.  Reducing to 19 matrices.
 Large coefficients: NSaved= 19 BigCof=   23.05 CofMax=   10.00 Det=-1.01D-14
 Inversion failed.  Reducing to 18 matrices.
 Large coefficients: NSaved= 18 BigCof=   22.96 CofMax=   10.00 Det=-1.02D-14
 Inversion failed.  Reducing to 17 matrices.
 Large coefficients: NSaved= 17 BigCof=   20.42 CofMax=   10.00 Det=-1.20D-14
 Inversion failed.  Reducing to 16 matrices.
 Large coefficients: NSaved= 16 BigCof=   18.34 CofMax=   10.00 Det=-1.28D-14
 Inversion failed.  Reducing to 15 matrices.
 Large coefficients: NSaved= 15 BigCof=   18.39 CofMax=   10.00 Det=-1.28D-14
 Inversion failed.  Reducing to 14 matrices.
 Large coefficients: NSaved= 14 BigCof=   17.46 CofMax=   10.00 Det=-1.36D-14
 Inversion failed.  Reducing to 13 matrices.
 Large coefficients: NSaved= 13 BigCof=   17.19 CofMax=   10.00 Det=-1.37D-14
 Inversion failed.  Reducing to 12 matrices.
 Large coefficients: NSaved= 12 BigCof=   12.06 CofMax=   10.00 Det=-1.83D-14
 Inversion failed.  Reducing to 11 matrices.
 Coeff-Com:  0.786D-03-0.312D-02 0.654D-02-0.364D-02-0.666D-02 0.133D-01
 Coeff-Com: -0.258D-01 0.682D-01 0.712D+00-0.653D+01 0.677D+01
 Coeff:      0.786D-03-0.312D-02 0.654D-02-0.364D-02-0.666D-02 0.133D-01
 Coeff:     -0.258D-01 0.682D-01 0.712D+00-0.653D+01 0.677D+01
 Gap=     0.069 Goal=   None    Shift=    0.000
 Gap=     0.088 Goal=   None    Shift=    0.000
 RMSDP=1.06D-07 MaxDP=1.33D-06 DE= 1.22D-11 OVMax= 7.21D-06

 Cycle  27  Pass 1  IDiag  1:
 E= -849.242836753558     Delta-E=        0.000000000045 Rises=F Damp=F
 DIIS: error= 4.00D-07 at cycle  27 NSaved=  12.
 NSaved=12 IEnMin= 3 EnMin= -849.242860129507     IErMin= 8 ErrMin= 3.87D-07
 ErrMax= 4.00D-07  0.00D+00 EMaxC= 1.00D-01 BMatC= 2.12D-11 BMatP= 1.94D-11
 IDIUse=1 WtCom= 1.00D+00 WtEn= 0.00D+00
 Large coefficients: NSaved= 12 BigCof=   11.12 CofMax=   10.00 Det=-2.35D-14
 Inversion failed.  Reducing to 11 matrices.
 Coeff-Com: -0.194D-04-0.250D-02-0.264D-02 0.772D-02-0.416D-02 0.265D-02
 Coeff-Com: -0.424D-01 0.561D+00-0.859D+01 0.776D+01 0.131D+01
 Coeff:     -0.194D-04-0.250D-02-0.264D-02 0.772D-02-0.416D-02 0.265D-02
 Coeff:     -0.424D-01 0.561D+00-0.859D+01 0.776D+01 0.131D+01
 Gap=     0.069 Goal=   None    Shift=    0.000
 Gap=     0.088 Goal=   None    Shift=    0.000
 RMSDP=1.68D-07 MaxDP=1.94D-06 DE= 4.47D-11 OVMax= 1.08D-05

 Cycle  28  Pass 1  IDiag  1:
 E= -849.242836753504     Delta-E=        0.000000000054 Rises=F Damp=F
 DIIS: error= 3.34D-07 at cycle  28 NSaved=  12.
 NSaved=12 IEnMin= 3 EnMin= -849.242860129507     IErMin=12 ErrMin= 3.34D-07
 ErrMax= 3.34D-07  0.00D+00 EMaxC= 1.00D-01 BMatC= 1.09D-11 BMatP= 1.94D-11
 IDIUse=1 WtCom= 1.00D+00 WtEn= 0.00D+00
 Coeff-Com: -0.180D-02 0.121D-01-0.264D-01 0.233D-01-0.479D-03-0.269D-01
 Coeff-Com: -0.400D-01-0.418D+00-0.224D+01-0.260D+00 0.116D+01 0.281D+01
 Coeff:     -0.180D-02 0.121D-01-0.264D-01 0.233D-01-0.479D-03-0.269D-01
 Coeff:     -0.400D-01-0.418D+00-0.224D+01-0.260D+00 0.116D+01 0.281D+01
 Gap=     0.069 Goal=   None    Shift=    0.000
 Gap=     0.088 Goal=   None    Shift=    0.000
 RMSDP=4.80D-07 MaxDP=3.96D-06 DE= 5.35D-11 OVMax= 3.60D-05

 Cycle  29  Pass 1  IDiag  1:
 E= -849.242836753397     Delta-E=        0.000000000108 Rises=F Damp=F
 DIIS: error= 1.13D-07 at cycle  29 NSaved=  13.
 NSaved=13 IEnMin= 3 EnMin= -849.242860129507     IErMin=13 ErrMin= 1.13D-07
 ErrMax= 1.13D-07  0.00D+00 EMaxC= 1.00D-01 BMatC= 2.33D-12 BMatP= 1.09D-11
 IDIUse=1 WtCom= 1.00D+00 WtEn= 0.00D+00
 Coeff-Com: -0.877D-03 0.568D-02-0.435D-03-0.425D-02 0.239D-03-0.497D-02
 Coeff-Com:  0.156D-01-0.368D+00 0.211D+01-0.272D+01 0.171D+00 0.579D+00
 Coeff-Com:  0.122D+01
 Coeff:     -0.877D-03 0.568D-02-0.435D-03-0.425D-02 0.239D-03-0.497D-02
 Coeff:      0.156D-01-0.368D+00 0.211D+01-0.272D+01 0.171D+00 0.579D+00
 Coeff:      0.122D+01
 Gap=     0.069 Goal=   None    Shift=    0.000
 Gap=     0.088 Goal=   None    Shift=    0.000
 RMSDP=3.87D-07 MaxDP=4.70D-06 DE= 1.08D-10 OVMax= 2.28D-05

 Cycle  30  Pass 1  IDiag  1:
 E= -849.242836753380     Delta-E=        0.000000000017 Rises=F Damp=F
 DIIS: error= 1.31D-07 at cycle  30 NSaved=  14.
 NSaved=14 IEnMin= 3 EnMin= -849.242860129507     IErMin=13 ErrMin= 1.13D-07
 ErrMax= 1.31D-07  0.00D+00 EMaxC= 1.00D-01 BMatC= 1.85D-12 BMatP= 2.33D-12
 IDIUse=1 WtCom= 1.00D+00 WtEn= 0.00D+00
 Coeff-Com: -0.160D-03 0.122D-02 0.612D-03-0.171D-02-0.136D-03-0.850D-04
 Coeff-Com: -0.154D-02-0.854D-02 0.282D+00-0.337D+00-0.484D-01 0.227D-01
 Coeff-Com:  0.282D+00 0.809D+00
 Coeff:     -0.160D-03 0.122D-02 0.612D-03-0.171D-02-0.136D-03-0.850D-04
 Coeff:     -0.154D-02-0.854D-02 0.282D+00-0.337D+00-0.484D-01 0.227D-01
 Coeff:      0.282D+00 0.809D+00
 Gap=     0.069 Goal=   None    Shift=    0.000
 Gap=     0.088 Goal=   None    Shift=    0.000
 RMSDP=4.11D-08 MaxDP=6.34D-07 DE= 1.68D-11 OVMax= 2.83D-06

 Cycle  31  Pass 1  IDiag  1:
 E= -849.242836753381     Delta-E=       -0.000000000001 Rises=F Damp=F
 DIIS: error= 5.43D-08 at cycle  31 NSaved=  15.
 NSaved=15 IEnMin= 3 EnMin= -849.242860129507     IErMin=15 ErrMin= 5.43D-08
 ErrMax= 5.43D-08  0.00D+00 EMaxC= 1.00D-01 BMatC= 3.05D-13 BMatP= 1.85D-12
 IDIUse=1 WtCom= 1.00D+00 WtEn= 0.00D+00
 Coeff-Com:  0.314D-04 0.301D-04 0.402D-03-0.596D-03 0.340D-03 0.172D-05
 Coeff-Com: -0.208D-02 0.160D-01-0.117D+00 0.110D+00-0.294D-01 0.254D-01
 Coeff-Com:  0.624D-03 0.152D+00 0.844D+00
 Coeff:      0.314D-04 0.301D-04 0.402D-03-0.596D-03 0.340D-03 0.172D-05
 Coeff:     -0.208D-02 0.160D-01-0.117D+00 0.110D+00-0.294D-01 0.254D-01
 Coeff:      0.624D-03 0.152D+00 0.844D+00
 Gap=     0.069 Goal=   None    Shift=    0.000
 Gap=     0.088 Goal=   None    Shift=    0.000
 RMSDP=2.02D-08 MaxDP=3.96D-07 DE=-6.82D-13 OVMax= 1.41D-06

 Cycle  32  Pass 1  IDiag  1:
 E= -849.242836753381     Delta-E=        0.000000000000 Rises=F Damp=F
 DIIS: error= 1.23D-08 at cycle  32 NSaved=  16.
 NSaved=16 IEnMin= 3 EnMin= -849.242860129507     IErMin=16 ErrMin= 1.23D-08
 ErrMax= 1.23D-08  0.00D+00 EMaxC= 1.00D-01 BMatC= 1.04D-14 BMatP= 3.05D-13
 IDIUse=1 WtCom= 1.00D+00 WtEn= 0.00D+00
 Large coefficients: NSaved= 16 BigCof=    0.00 CofMax=   10.00 Det=-1.49D-15
 Inversion failed.  Reducing to 15 matrices.
 Coeff-Com: -0.164D-04 0.741D-04-0.625D-04 0.758D-05 0.394D-04-0.883D-04
 Coeff-Com:  0.324D-04-0.113D-01 0.396D-01-0.282D-01 0.749D-03-0.688D-02
 Coeff-Com:  0.149D-01-0.699D-01 0.106D+01
 Coeff:     -0.164D-04 0.741D-04-0.625D-04 0.758D-05 0.394D-04-0.883D-04
 Coeff:      0.324D-04-0.113D-01 0.396D-01-0.282D-01 0.749D-03-0.688D-02
 Coeff:      0.149D-01-0.699D-01 0.106D+01
 Gap=     0.069 Goal=   None    Shift=    0.000
 Gap=     0.088 Goal=   None    Shift=    0.000
 RMSDP=4.39D-09 MaxDP=5.02D-08 DE= 0.00D+00 OVMax= 3.55D-07

 SCF Done:  E(UB971) =  -849.242836753     A.U. after   32 cycles
            NFock= 32  Conv=0.44D-08     -V/T= 2.0009
 <Sx>= 0.0000 <Sy>= 0.0000 <Sz>= 1.0000 <S**2>= 2.0040 S= 1.0013
 <L.S>= 0.000000000000E+00
 KE= 8.484776407840D+02 PE=-2.011467496846D+03 EE= 3.137470193083D+02
 Annihilation of the first spin contaminant:
 S**2 before annihilation     2.0040,   after     2.0000
 Leave Link  502 at Sat Feb  7 23:40:40 2015, MaxMem=   524288000 cpu:        22.0
 (Enter /opt/g09/l508.exe)
 QCSCF skips out because SCF is already converged.
 Leave Link  508 at Sat Feb  7 23:40:40 2015, MaxMem=   524288000 cpu:         0.0
 (Enter /opt/g09/l801.exe)
 DoSCS=F DFT=T ScalE2(SS,OS)=  1.000000  1.000000
 Range of M.O.s used for correlation:     1    58
 NBasis=    58 NAE=    12 NBE=    10 NFC=     0 NFV=     0
 NROrb=     58 NOA=    12 NOB=    10 NVA=    46 NVB=    48

 **** Warning!!: The smallest alpha delta epsilon is  0.68722910D-01


 **** Warning!!: The smallest beta delta epsilon is  0.88135886D-01

 Leave Link  801 at Sat Feb  7 23:40:40 2015, MaxMem=   524288000 cpu:         0.3
 (Enter /opt/g09/l1101.exe)
 Using compressed storage, NAtomX=     1.
 Will process      2 centers per pass.
 Leave Link 1101 at Sat Feb  7 23:40:40 2015, MaxMem=   524288000 cpu:         1.8
 (Enter /opt/g09/l1102.exe)
 Symmetrizing basis deriv contribution to polar:
 IMax=3 JMax=2 DiffMx= 0.00D+00
 Leave Link 1102 at Sat Feb  7 23:40:40 2015, MaxMem=   524288000 cpu:         0.3
 (Enter /opt/g09/l1110.exe)
 Forming Gx(P) for the SCF density, NAtomX=     1.
 Integral derivatives from FoFJK, PRISM(SPDF).
 Do as many integral derivatives as possible in FoFJK.
 G2DrvN: MDV=     524287888.
 G2DrvN: will do     2 centers at a time, making    1 passes.
 Calling FoFCou, ICntrl=  3107 FMM=F I1Cent=   0 AccDes= 0.00D+00.
 FoFJK:  IHMeth= 1 ICntrl=    3107 DoSepK=F KAlg= 0 I1Cent=   0 FoldK=F
 IRaf=         0 NMat=   1 IRICut=       1 DoRegI=T DoRafI=F ISym2E= 0.
 FoFCou: FMM=F IPFlag=           0 FMFlag=      100000 FMFlg1=           0
         NFxFlg=           0 DoJE=F BraDBF=F KetDBF=F FulRan=T
         wScrn=  0.000000 ICntrl=    3107 IOpCl=  1 I1Cent=           0 NGrid=           0
         NMat0=    1 NMatS0=      1 NMatT0=    0 NMatD0=    1 NMtDS0=    0 NMtDT0=    0
 Symmetry not used in FoFCou.
 End of G2Drv F.D. properties file   721 does not exist.
 End of G2Drv F.D. properties file   722 does not exist.
 End of G2Drv F.D. properties file   788 does not exist.
 Leave Link 1110 at Sat Feb  7 23:40:42 2015, MaxMem=   524288000 cpu:         9.1
 (Enter /opt/g09/l1002.exe)
 Minotr:  UHF open shell wavefunction.
          IDoAtm=1
          Direct CPHF calculation.
          Differentiating once with respect to electric field.
                with respect to dipole field.
          Differentiating once with respect to nuclear coordinates.
          Requested convergence is 1.0D-08 RMS, and 1.0D-07 maximum.
          Secondary convergence is 1.0D-12 RMS, and 1.0D-12 maximum.
          NewPWx=T KeepS1=F KeepF1=F KeepIn=T MapXYZ=F SortEE=F KeepMc=T.
          MDV=     524287870 using IRadAn=       1.
 Generate precomputed XC quadrature information.
 Keep R1 and R2 ints in memory in canonical form, NReq=4893513.
 FoFCou: FMM=F IPFlag=           0 FMFlag=           0 FMFlg1=           0
         NFxFlg=           0 DoJE=F BraDBF=F KetDBF=F FulRan=T
         wScrn=  0.000000 ICntrl=     600 IOpCl=  0 I1Cent=           0 NGrid=           0
         NMat0=    1 NMatS0=   1711 NMatT0=    0 NMatD0=    1 NMtDS0=    0 NMtDT0=    0
 Symmetry not used in FoFCou.
          Solving linear equations simultaneously, MaxMat=       0.
 FoF2E skips out because all densities are zero.
 CalDSu exits because no D1Ps are significant.
          There are     6 degrees of freedom in the 1st order CPHF.  IDoFFX=6 NUNeed=     3.
      3 vectors produced by pass  0 Test12= 1.72D-14 1.67D-08 XBig12= 5.18D+02 1.55D+01.
 AX will form     3 AO Fock derivatives at one time.
      3 vectors produced by pass  1 Test12= 1.72D-14 1.67D-08 XBig12= 3.22D+01 3.29D+00.
      3 vectors produced by pass  2 Test12= 1.72D-14 1.67D-08 XBig12= 2.14D+00 5.94D-01.
      3 vectors produced by pass  3 Test12= 1.72D-14 1.67D-08 XBig12= 1.85D-01 2.21D-01.
      3 vectors produced by pass  4 Test12= 1.72D-14 1.67D-08 XBig12= 3.68D-03 2.69D-02.
      3 vectors produced by pass  5 Test12= 1.72D-14 1.67D-08 XBig12= 7.99D-05 4.81D-03.
      3 vectors produced by pass  6 Test12= 1.72D-14 1.67D-08 XBig12= 3.00D-07 1.23D-04.
      3 vectors produced by pass  7 Test12= 1.72D-14 1.67D-08 XBig12= 6.56D-10 1.50D-05.
      3 vectors produced by pass  8 Test12= 1.72D-14 1.67D-08 XBig12= 2.36D-12 6.07D-07.
      3 vectors produced by pass  9 Test12= 1.72D-14 1.67D-08 XBig12= 7.93D-14 2.22D-07.
      1 vectors produced by pass 10 Test12= 1.72D-14 1.67D-08 XBig12= 6.62D-15 2.35D-08.
 InvSVY:  IOpt=1 It=  1 EMax= 6.66D-16
 Solved reduced A of dimension    31 with     3 vectors.
 FullF1:  Do perturbations    1 to     3.
 Isotropic polarizability for W=    0.000000      105.46 Bohr**3.
 End of Minotr F.D. properties file   721 does not exist.
 End of Minotr F.D. properties file   722 does not exist.
 End of Minotr F.D. properties file   788 does not exist.
 Leave Link 1002 at Sat Feb  7 23:40:43 2015, MaxMem=   524288000 cpu:        12.7
 (Enter /opt/g09/l701.exe)
 Compute integral second derivatives.
 ... and contract with generalized density number  0.
 Leave Link  701 at Sat Feb  7 23:40:44 2015, MaxMem=   524288000 cpu:         3.2
 (Enter /opt/g09/l702.exe)
 L702 exits ... SP integral derivatives will be done elsewhere.
 Leave Link  702 at Sat Feb  7 23:40:44 2015, MaxMem=   524288000 cpu:         0.3
 (Enter /opt/g09/l703.exe)
 Compute integral second derivatives, UseDBF=F ICtDFT=           0.
 Integral derivatives from FoFJK, PRISM(SPDF).
 Calling FoFJK, ICntrl=    100127 FMM=F ISym2X=0 I1Cent= 0 IOpClX= 1 NMat=1 NMatS=1 NMatT=0.
 FoFJK:  IHMeth= 1 ICntrl=  100127 DoSepK=F KAlg= 0 I1Cent=   0 FoldK=F
 IRaf=         0 NMat=   1 IRICut=       1 DoRegI=T DoRafI=F ISym2E= 0.
 FoFCou: FMM=F IPFlag=           0 FMFlag=      100000 FMFlg1=         800
         NFxFlg=           0 DoJE=F BraDBF=F KetDBF=F FulRan=T
         wScrn=  0.000000 ICntrl=  100127 IOpCl=  1 I1Cent=           0 NGrid=           0
         NMat0=    1 NMatS0=      1 NMatT0=    0 NMatD0=    1 NMtDS0=    0 NMtDT0=    0
 Symmetry not used in FoFCou.
 Leave Link  703 at Sat Feb  7 23:40:46 2015, MaxMem=   524288000 cpu:        20.6
 (Enter /opt/g09/l716.exe)
 Dipole        =-5.45983794D-09-8.22282373D-09 2.00866697D-09
 Polarizability= 1.02089613D+02 3.11283556D-01 1.07387132D+02
                 1.61314460D+00-9.45095043D-02 1.06915923D+02
 -------------------------------------------------------------------
 Center     Atomic                   Forces (Hartrees/Bohr)
 Number     Number              X              Y              Z
 -------------------------------------------------------------------
      1       22           0.000000000    0.000000000    0.000000000
 -------------------------------------------------------------------
 Cartesian Forces:  Max     0.000000000 RMS     0.000000000
 Z-matrix is all fixed cartesians, so copy forces.
 Force constants in Cartesian coordinates: 
                1             2             3 
      1  0.000000D+00
      2  0.000000D+00  0.000000D+00
      3  0.000000D+00  0.000000D+00  0.000000D+00
 Leave Link  716 at Sat Feb  7 23:40:46 2015, MaxMem=   524288000 cpu:         0.3
 (Enter /opt/g09/l103.exe)

 GradGradGradGradGradGradGradGradGradGradGradGradGradGradGradGradGradGrad
 Berny optimization.
 Search for a local minimum.
 Step number   1 out of a maximum of   20
 All quantities printed in internal units (Hartrees-Bohrs-Radians)
 RMS Force = .23012D-23 SwitMx=.10000D-02 MixMth= 2
 Mixed Optimization -- En-DIIS/RFO-DIIS
 Second derivative matrix not updated -- analytic derivatives used.
 The second derivative matrix:
                          X1        Y1        Z1
           X1           0.00000
           Y1           0.00000   0.00000
           Z1           0.00000   0.00000   0.00000
 ITU=  0
     Eigenvalues --- 
 RFO step:  Lambda= 0.00000000D+00 EMin= 5.78272662D-04
 Linear search not attempted -- first point.
 TrRot=  0.000000  0.000000  0.000000  0.000000  0.000000  0.000000
 Variable       Old X    -DE/DX   Delta X   Delta X   Delta X     New X
                                 (Linear)    (Quad)   (Total)
    X1        0.00000   0.00000   0.00000   0.00000   0.00000   0.00000
    Y1        0.00000   0.00000   0.00000   0.00000   0.00000   0.00000
    Z1        0.00000   0.00000   0.00000   0.00000   0.00000   0.00000
         Item               Value     Threshold  Converged?
 Maximum Force            0.000000     0.000015     YES
 RMS     Force            0.000000     0.000010     YES
 Maximum Displacement     0.000000     0.000060     YES
 RMS     Displacement     0.000000     0.000040     YES
 Predicted change in Energy= 0.000000D+00
 Optimization completed.
    -- Stationary point found.
 Lowest energy point so far.  Saving SCF results.
 GradGradGradGradGradGradGradGradGradGradGradGradGradGradGradGradGradGrad

 Largest change from initial coordinates is atom    0       0.000 Angstoms.
 Leave Link  103 at Sat Feb  7 23:40:47 2015, MaxMem=   524288000 cpu:         0.1
 (Enter /opt/g09/l202.exe)
                          Input orientation:                          
 ---------------------------------------------------------------------
 Center     Atomic      Atomic             Coordinates (Angstroms)
 Number     Number       Type             X           Y           Z
 ---------------------------------------------------------------------
      1         22           0        0.000000    0.000000    0.000000
 ---------------------------------------------------------------------
 Symmetry turned off by external request.
 Stoichiometry    Ti(3)
 Framework group  OH[O(Ti)]
 Deg. of freedom     0
 Full point group                 OH      NOp  48
 Leave Link  202 at Sat Feb  7 23:40:47 2015, MaxMem=   524288000 cpu:         0.0
 (Enter /opt/g09/l716.exe)
 Dipole        =-5.45983794D-09-8.22282373D-09 2.00866697D-09
 Polarizability= 1.02089613D+02 3.11283556D-01 1.07387132D+02
                 1.61314460D+00-9.45095043D-02 1.06915923D+02
 Full mass-weighted force constant matrix:
 Low frequencies ---   -0.0072   -0.0072   -0.0072
 Diagonal vibrational polarizability:
        0.0000000       0.0000000       0.0000000
 Harmonic frequencies (cm**-1), IR intensities (KM/Mole), Raman scattering
 activities (A**4/AMU), depolarization ratios for plane and unpolarized
 incident light, reduced masses (AMU), force constants (mDyne/A),
 and normal coordinates:

 -------------------
 - Thermochemistry -
 -------------------
 Temperature   298.150 Kelvin.  Pressure   1.00000 Atm.
 Atom     1 has atomic number 22 and mass  47.94795
 Molecular mass:    47.94795 amu.
 Zero-point vibrational energy          0.0 (Joules/Mol)
                                    0.00000 (Kcal/Mol)
 Vibrational temperatures: 
          (Kelvin)
 
 Zero-point correction=                           0.000000 (Hartree/Particle)
 Thermal correction to Energy=                    0.001416
 Thermal correction to Enthalpy=                  0.002360
 Thermal correction to Gibbs Free Energy=        -0.016507
 Sum of electronic and zero-point Energies=           -849.242837
 Sum of electronic and thermal Energies=              -849.241420
 Sum of electronic and thermal Enthalpies=            -849.240476
 Sum of electronic and thermal Free Energies=         -849.259344
 
                     E (Thermal)             CV                S
                      KCal/Mol        Cal/Mol-Kelvin    Cal/Mol-Kelvin
 Total                    0.889              2.981             39.710
 Electronic               0.000              0.000              2.183
 Translational            0.889              2.981             37.527
 Rotational               0.000              0.000              0.000
 Vibrational              0.000              0.000              0.000
                       Q            Log10(Q)             Ln(Q)
 Total Bot       0.391500D+08          7.592731         17.482910
 Total V=0       0.391500D+08          7.592731         17.482910
 Vib (Bot)       0.100000D+01          0.000000          0.000000
 Vib (V=0)       0.100000D+01          0.000000          0.000000
 Electronic      0.300000D+01          0.477121          1.098612
 Translational   0.130500D+08          7.115610         16.384298
 Rotational      0.100000D+01          0.000000          0.000000
 -------------------------------------------------------------------
 Center     Atomic                   Forces (Hartrees/Bohr)
 Number     Number              X              Y              Z
 -------------------------------------------------------------------
      1       22           0.000000000    0.000000000    0.000000000
 -------------------------------------------------------------------
 Cartesian Forces:  Max     0.000000000 RMS     0.000000000
 Force constants in Cartesian coordinates: 
                1             2             3 
      1  0.000000D+00
      2  0.000000D+00  0.000000D+00
      3  0.000000D+00  0.000000D+00  0.000000D+00
 Leave Link  716 at Sat Feb  7 23:40:47 2015, MaxMem=   524288000 cpu:         0.3
 (Enter /opt/g09/l9999.exe)
 1\1\GINC-HOPPER\Freq\UB971\6-311+G(d,p)\Ti1(3)\PB556\07-Feb-2015\0\\#p
  uB971/6-311+G(d,p) Opt=(Tight, CalcAll) Freq GFInput Population=None 
 Integral(Grid=UltraFine) SCF=XQC Guess=MIX NoSymmetry\\freq-fine-ti_3l
 et-b971-6311+gdp.gau\\0,3\Ti,0.,0.,0.\\Version=ES64L-G09RevD.01\HF=-84
 9.2428368\S2=2.003982\S2-1=0.\S2A=2.000003\RMSD=4.390e-09\RMSF=2.301e-
 24\Thermal=0.0014163\Dipole=0.,0.,0.\DipoleDeriv=0.,0.,0.,0.,0.,0.,0.,
 0.,0.\Polar=102.0896134,0.3112836,107.3871323,1.6131446,-0.0945095,106
 .9159233\PG=OH [O(Ti1)]\NImag=0\\0.,0.,0.,0.,0.,0.\\0.,0.,0.\\\@


 WOE UNTO THEM THAT CALL EVIL GOOD, AND GOOD EVIL      
 Leave Link 9999 at Sat Feb  7 23:40:47 2015, MaxMem=   524288000 cpu:         0.3
 Job cpu time:       0 days  0 hours  1 minutes 17.9 seconds.
 File lengths (MBytes):  RWF=      5 Int=      0 D2E=      0 Chk=      1 Scr=      1
 Normal termination of Gaussian 09 at Sat Feb  7 23:40:47 2015.
 (Enter /opt/g09/l1.exe)
 Link1:  Proceeding to internal job step number  2.
 ----------------------------------------------------------------------
 #P Geom=AllCheck Guess=TCheck SCRF=Check GenChk UB971/6-311+G(d,p) Fre
 q
 ----------------------------------------------------------------------
 1/7=10,10=4,29=7,30=1,38=1,40=1/1,3;
 2/12=2,15=1,40=1/2;
 3/5=4,6=6,7=111,11=2,14=-4,16=1,24=10,25=1,30=1,70=2,71=2,74=-20,75=-5,116=2,140=1/1,2,3;
 4/5=101/1;
 5/5=2,8=3,13=1,98=1/2,8;
 8/6=4,10=90,11=11/1;
 11/6=1,8=1,9=11,15=111,16=1,31=1/1,2,10;
 10/6=1,31=1/2;
 7/8=1,10=1,25=1,30=1/1,2,3,16;
 1/7=10,10=4,30=1/3;
 99//99;
 Leave Link    1 at Sat Feb  7 23:40:47 2015, MaxMem=   524288000 cpu:         0.4
 (Enter /opt/g09/l101.exe)
 Structure from the checkpoint file:  "/scratch/pb556/g09_run/mech//Gau-14790.chk"
 -----------------------------------
 freq-fine-ti_3let-b971-6311+gdp.gau
 -----------------------------------
 Charge =  0 Multiplicity = 3
 No Z-Matrix found in file; cartesian coordinates used.
  Ti                                                0.000000000000      0.000000000000      0.000000000000
 Recover connectivity data from disk.
 NAtoms=      1 NQM=        1 NQMF=       0 NMMI=      0 NMMIF=      0
                NMic=       0 NMicF=      0.
                    Isotopes and Nuclear Properties:
 (Nuclear quadrupole moments (NQMom) in fm**2, nuclear magnetic moments (NMagM)
  in nuclear magnetons)

  Atom         1
 IAtWgt=          48
 AtmWgt=  47.9479467
 NucSpn=           0
 AtZEff= -23.9800000
 NQMom=    0.0000000
 NMagM=    0.0000000
 AtZNuc=  22.0000000
 Leave Link  101 at Sat Feb  7 23:40:47 2015, MaxMem=   524288000 cpu:         0.9
 (Enter /opt/g09/l103.exe)

 GradGradGradGradGradGradGradGradGradGradGradGradGradGradGradGradGradGrad
 Berny optimization.
 Initialization pass.
 Trust Radius=3.00D-01 FncErr=1.00D-07 GrdErr=1.00D-07
 Number of steps in this run=      2 maximum allowed number of steps=      2.
 GradGradGradGradGradGradGradGradGradGradGradGradGradGradGradGradGradGrad

 Leave Link  103 at Sat Feb  7 23:40:47 2015, MaxMem=   524288000 cpu:         0.1
 (Enter /opt/g09/l202.exe)
                          Input orientation:                          
 ---------------------------------------------------------------------
 Center     Atomic      Atomic             Coordinates (Angstroms)
 Number     Number       Type             X           Y           Z
 ---------------------------------------------------------------------
      1         22           0        0.000000    0.000000    0.000000
 ---------------------------------------------------------------------
 Symmetry turned off by external request.
 Stoichiometry    Ti(3)
 Framework group  OH[O(Ti)]
 Deg. of freedom     0
 Full point group                 OH      NOp  48
 Leave Link  202 at Sat Feb  7 23:40:47 2015, MaxMem=   524288000 cpu:         0.0
 (Enter /opt/g09/l301.exe)
 Standard basis: 6-311+G(d,p) (5D, 7F)
 Ernie: Thresh=  0.10000D-02 Tol=  0.10000D-05 Strict=F.
 AO basis set in the form of general basis input (Overlap normalization):
      1 0
 S   6 1.00       0.000000000000
      0.2060820000D+06  0.5673151380D-03
      0.3122680000D+05  0.4379672866D-02
      0.7199320000D+04  0.2242029425D-01
      0.2048750000D+04  0.9063426645D-01
      0.6707900000D+03  0.2890357165D+00
      0.2436500000D+03  0.6803470061D+00
 S   1 1.00       0.000000000000
      0.9592500000D+02  0.1000000000D+01
 S   1 1.00       0.000000000000
      0.3981010000D+02  0.1000000000D+01
 S   1 1.00       0.000000000000
      0.1222050000D+02  0.1000000000D+01
 S   1 1.00       0.000000000000
      0.5008820000D+01  0.1000000000D+01
 S   1 1.00       0.000000000000
      0.1285690000D+01  0.1000000000D+01
 S   1 1.00       0.000000000000
      0.5128060000D+00  0.1000000000D+01
 S   1 1.00       0.000000000000
      0.8557600000D-01  0.1000000000D+01
 S   1 1.00       0.000000000000
      0.3330200000D-01  0.1000000000D+01
 S   1 1.00       0.000000000000
      0.9991000000D-02  0.1000000000D+01
 P   5 1.00       0.000000000000
      0.1264700000D+04  0.3122017423D-02
      0.3012300000D+03  0.2516579464D-01
      0.9697770000D+02  0.1184178291D+00
      0.3637270000D+02  0.3522190030D+00
      0.1478140000D+02  0.6219379661D+00
 P   1 1.00       0.000000000000
      0.6274650000D+01  0.1000000000D+01
 P   1 1.00       0.000000000000
      0.2478780000D+01  0.1000000000D+01
 P   1 1.00       0.000000000000
      0.1016180000D+01  0.1000000000D+01
 P   1 1.00       0.000000000000
      0.3981620000D+00  0.1000000000D+01
 P   1 1.00       0.000000000000
      0.1015610000D+00  0.1000000000D+01
 P   1 1.00       0.000000000000
      0.3405400000D-01  0.1000000000D+01
 D   3 1.00       0.000000000000
      0.2599240000D+02  0.5411706153D-01
      0.7086340000D+01  0.2873032281D+00
      0.2348710000D+01  0.7854540223D+00
 D   1 1.00       0.000000000000
      0.8001980000D+00  0.1000000000D+01
 D   1 1.00       0.000000000000
      0.2620490000D+00  0.1000000000D+01
 D   1 1.00       0.000000000000
      0.7200000000D-01  0.1000000000D+01
 F   1 1.00       0.000000000000
      0.6900000000D+00  0.1000000000D+01
 ****

    58 basis functions,    94 primitive gaussians,    65 cartesian basis functions
    12 alpha electrons       10 beta electrons
       nuclear repulsion energy         0.0000000000 Hartrees.
 IExCor= 1614 DFT=T Ex+Corr=B971 ExCW=0 ScaHFX=  0.210000
 ScaDFX=  1.000000  1.000000  1.000000  1.000000 ScalE2=  1.000000  1.000000
 IRadAn=      5 IRanWt=     -1 IRanGd=            0 ICorTp=0 IEmpDi=  4
 NAtoms=    1 NActive=    1 NUniq=    1 SFac= 1.00D+00 NAtFMM=   60 NAOKFM=F Big=F
 Integral buffers will be    131072 words long.
 Raffenetti 2 integral format.
 Two-electron integral symmetry is turned off.
 Leave Link  301 at Sat Feb  7 23:40:47 2015, MaxMem=   524288000 cpu:         0.4
 (Enter /opt/g09/l302.exe)
 NPDir=0 NMtPBC=     1 NCelOv=     1 NCel=       1 NClECP=     1 NCelD=      1
         NCelK=      1 NCelE2=     1 NClLst=     1 CellRange=     0.0.
 One-electron integrals computed using PRISM.
 NBasis=    58 RedAO= T EigKep=  1.13D-02  NBF=    58
 NBsUse=    58 1.00D-06 EigRej= -1.00D+00 NBFU=    58
 Precomputing XC quadrature grid using
 IXCGrd= 4 IRadAn=           5 IRanWt=          -1 IRanGd=           0 AccXCQ= 0.00D+00.
 Generated NRdTot=       0 NPtTot=           0 NUsed=           0 NTot=          32
 NSgBfM=    65    65    65    65    65 MxSgAt=     1 MxSgA2=     1.
 Leave Link  302 at Sat Feb  7 23:40:47 2015, MaxMem=   524288000 cpu:         1.5
 (Enter /opt/g09/l303.exe)
 DipDrv:  MaxL=1.
 Leave Link  303 at Sat Feb  7 23:40:47 2015, MaxMem=   524288000 cpu:         0.3
 (Enter /opt/g09/l401.exe)
 Initial guess from the checkpoint file:  "/scratch/pb556/g09_run/mech//Gau-14790.chk"
 B after Tr=     0.000000    0.000000    0.000000
         Rot=    1.000000    0.000000    0.000000    0.000000 Ang=   0.00 deg.
 Guess basis will be translated and rotated to current coordinates.
 JPrj=2 DoOrth=T DoCkMO=T.
 Initial guess <Sx>= 0.0000 <Sy>= 0.0000 <Sz>= 1.0000 <S**2>= 2.0040 S= 1.0013
 Leave Link  401 at Sat Feb  7 23:40:47 2015, MaxMem=   524288000 cpu:         0.8
 (Enter /opt/g09/l502.exe)
 UHF open shell SCF:
 Using DIIS extrapolation, IDIIS=  1040.
 Two-electron integral symmetry not used.
 Keep R1 and R2 ints in memory in canonical form, NReq=4905073.
 IVT=       19529 IEndB=       19529 NGot=   524288000 MDV=   521339240
 LenX=   521339240 LenY=   521334574
 Requested convergence on RMS density matrix=1.00D-08 within  64 cycles.
 Requested convergence on MAX density matrix=1.00D-06.
 Requested convergence on             energy=1.00D-06.
 No special actions if energy rises.
 FoFCou: FMM=F IPFlag=           0 FMFlag=           0 FMFlg1=           0
         NFxFlg=           0 DoJE=F BraDBF=F KetDBF=F FulRan=T
         wScrn=  0.000000 ICntrl=     600 IOpCl=  0 I1Cent=           0 NGrid=           0
         NMat0=    1 NMatS0=   1711 NMatT0=    0 NMatD0=    1 NMtDS0=    0 NMtDT0=    0
 Symmetry not used in FoFCou.

 Cycle   1  Pass 1  IDiag  1:
 E= -849.242836753376    
 DIIS: error= 1.20D-08 at cycle   1 NSaved=   1.
 NSaved= 1 IEnMin= 1 EnMin= -849.242836753376     IErMin= 1 ErrMin= 1.20D-08
 ErrMax= 1.20D-08  0.00D+00 EMaxC= 1.00D-01 BMatC= 7.51D-15 BMatP= 7.51D-15
 IDIUse=1 WtCom= 1.00D+00 WtEn= 0.00D+00
 Coeff-Com:  0.100D+01
 Coeff:      0.100D+01
 Gap=     0.069 Goal=   None    Shift=    0.000
 Gap=     0.088 Goal=   None    Shift=    0.000
 RMSDP=3.19D-09 MaxDP=3.87D-08              OVMax= 2.91D-07

 SCF Done:  E(UB971) =  -849.242836753     A.U. after    1 cycles
            NFock=  1  Conv=0.32D-08     -V/T= 2.0009
 <Sx>= 0.0000 <Sy>= 0.0000 <Sz>= 1.0000 <S**2>= 2.0040 S= 1.0013
 <L.S>= 0.000000000000E+00
 KE= 8.484776406656D+02 PE=-2.011467497327D+03 EE= 3.137470199081D+02
 Annihilation of the first spin contaminant:
 S**2 before annihilation     2.0040,   after     2.0000
 Leave Link  502 at Sat Feb  7 23:40:48 2015, MaxMem=   524288000 cpu:         3.8
 (Enter /opt/g09/l508.exe)
 QCSCF skips out because SCF is already converged.
 Leave Link  508 at Sat Feb  7 23:40:48 2015, MaxMem=   524288000 cpu:         0.0
 (Enter /opt/g09/l801.exe)
 DoSCS=F DFT=T ScalE2(SS,OS)=  1.000000  1.000000
 Range of M.O.s used for correlation:     1    58
 NBasis=    58 NAE=    12 NBE=    10 NFC=     0 NFV=     0
 NROrb=     58 NOA=    12 NOB=    10 NVA=    46 NVB=    48

 **** Warning!!: The smallest alpha delta epsilon is  0.68722912D-01


 **** Warning!!: The smallest beta delta epsilon is  0.88135889D-01

 Leave Link  801 at Sat Feb  7 23:40:48 2015, MaxMem=   524288000 cpu:         0.3
 (Enter /opt/g09/l1101.exe)
 Using compressed storage, NAtomX=     1.
 Will process      2 centers per pass.
 Leave Link 1101 at Sat Feb  7 23:40:48 2015, MaxMem=   524288000 cpu:         1.8
 (Enter /opt/g09/l1102.exe)
 Symmetrizing basis deriv contribution to polar:
 IMax=3 JMax=2 DiffMx= 0.00D+00
 Leave Link 1102 at Sat Feb  7 23:40:48 2015, MaxMem=   524288000 cpu:         0.3
 (Enter /opt/g09/l1110.exe)
 Forming Gx(P) for the SCF density, NAtomX=     1.
 Integral derivatives from FoFJK, PRISM(SPDF).
 Do as many integral derivatives as possible in FoFJK.
 G2DrvN: MDV=     524287888.
 G2DrvN: will do     2 centers at a time, making    1 passes.
 Calling FoFCou, ICntrl=  3107 FMM=F I1Cent=   0 AccDes= 0.00D+00.
 FoFJK:  IHMeth= 1 ICntrl=    3107 DoSepK=F KAlg= 0 I1Cent=   0 FoldK=F
 IRaf=         0 NMat=   1 IRICut=       1 DoRegI=T DoRafI=F ISym2E= 0.
 FoFCou: FMM=F IPFlag=           0 FMFlag=      100000 FMFlg1=           0
         NFxFlg=           0 DoJE=F BraDBF=F KetDBF=F FulRan=T
         wScrn=  0.000000 ICntrl=    3107 IOpCl=  1 I1Cent=           0 NGrid=           0
         NMat0=    1 NMatS0=      1 NMatT0=    0 NMatD0=    1 NMtDS0=    0 NMtDT0=    0
 Symmetry not used in FoFCou.
 End of G2Drv F.D. properties file   721 does not exist.
 End of G2Drv F.D. properties file   722 does not exist.
 End of G2Drv F.D. properties file   788 does not exist.
 Leave Link 1110 at Sat Feb  7 23:40:49 2015, MaxMem=   524288000 cpu:         9.1
 (Enter /opt/g09/l1002.exe)
 Minotr:  UHF open shell wavefunction.
          IDoAtm=1
          Direct CPHF calculation.
          Differentiating once with respect to electric field.
                with respect to dipole field.
          Differentiating once with respect to nuclear coordinates.
          Requested convergence is 1.0D-08 RMS, and 1.0D-07 maximum.
          Secondary convergence is 1.0D-12 RMS, and 1.0D-12 maximum.
          NewPWx=T KeepS1=F KeepF1=F KeepIn=T MapXYZ=F SortEE=F KeepMc=T.
          MDV=     524287870 using IRadAn=       1.
 Generate precomputed XC quadrature information.
 Keep R1 and R2 ints in memory in canonical form, NReq=4893513.
 FoFCou: FMM=F IPFlag=           0 FMFlag=           0 FMFlg1=           0
         NFxFlg=           0 DoJE=F BraDBF=F KetDBF=F FulRan=T
         wScrn=  0.000000 ICntrl=     600 IOpCl=  0 I1Cent=           0 NGrid=           0
         NMat0=    1 NMatS0=   1711 NMatT0=    0 NMatD0=    1 NMtDS0=    0 NMtDT0=    0
 Symmetry not used in FoFCou.
          Solving linear equations simultaneously, MaxMat=       0.
 FoF2E skips out because all densities are zero.
 CalDSu exits because no D1Ps are significant.
          There are     6 degrees of freedom in the 1st order CPHF.  IDoFFX=6 NUNeed=     3.
      3 vectors produced by pass  0 Test12= 1.72D-14 1.67D-08 XBig12= 5.18D+02 1.56D+01.
 AX will form     3 AO Fock derivatives at one time.
      3 vectors produced by pass  1 Test12= 1.72D-14 1.67D-08 XBig12= 3.22D+01 3.27D+00.
      3 vectors produced by pass  2 Test12= 1.72D-14 1.67D-08 XBig12= 2.14D+00 5.94D-01.
      3 vectors produced by pass  3 Test12= 1.72D-14 1.67D-08 XBig12= 1.85D-01 2.20D-01.
      3 vectors produced by pass  4 Test12= 1.72D-14 1.67D-08 XBig12= 3.68D-03 2.69D-02.
      3 vectors produced by pass  5 Test12= 1.72D-14 1.67D-08 XBig12= 7.99D-05 4.81D-03.
      3 vectors produced by pass  6 Test12= 1.72D-14 1.67D-08 XBig12= 3.00D-07 1.23D-04.
      3 vectors produced by pass  7 Test12= 1.72D-14 1.67D-08 XBig12= 6.56D-10 1.50D-05.
      3 vectors produced by pass  8 Test12= 1.72D-14 1.67D-08 XBig12= 2.31D-12 6.07D-07.
      3 vectors produced by pass  9 Test12= 1.72D-14 1.67D-08 XBig12= 3.30D-14 1.28D-07.
      2 vectors produced by pass 10 Test12= 1.72D-14 1.67D-08 XBig12= 5.43D-15 3.28D-08.
 InvSVY:  IOpt=1 It=  1 EMax= 4.44D-16
 Solved reduced A of dimension    32 with     3 vectors.
 FullF1:  Do perturbations    1 to     3.
 Isotropic polarizability for W=    0.000000      105.46 Bohr**3.
 End of Minotr F.D. properties file   721 does not exist.
 End of Minotr F.D. properties file   722 does not exist.
 End of Minotr F.D. properties file   788 does not exist.
 Leave Link 1002 at Sat Feb  7 23:40:51 2015, MaxMem=   524288000 cpu:        13.3
 (Enter /opt/g09/l701.exe)
 Compute integral second derivatives.
 ... and contract with generalized density number  0.
 Leave Link  701 at Sat Feb  7 23:40:51 2015, MaxMem=   524288000 cpu:         3.2
 (Enter /opt/g09/l702.exe)
 L702 exits ... SP integral derivatives will be done elsewhere.
 Leave Link  702 at Sat Feb  7 23:40:52 2015, MaxMem=   524288000 cpu:         0.3
 (Enter /opt/g09/l703.exe)
 Compute integral second derivatives, UseDBF=F ICtDFT=           0.
 Integral derivatives from FoFJK, PRISM(SPDF).
 Calling FoFJK, ICntrl=    100127 FMM=F ISym2X=0 I1Cent= 0 IOpClX= 1 NMat=1 NMatS=1 NMatT=0.
 FoFJK:  IHMeth= 1 ICntrl=  100127 DoSepK=F KAlg= 0 I1Cent=   0 FoldK=F
 IRaf=         0 NMat=   1 IRICut=       1 DoRegI=T DoRafI=F ISym2E= 0.
 FoFCou: FMM=F IPFlag=           0 FMFlag=      100000 FMFlg1=         800
         NFxFlg=           0 DoJE=F BraDBF=F KetDBF=F FulRan=T
         wScrn=  0.000000 ICntrl=  100127 IOpCl=  1 I1Cent=           0 NGrid=           0
         NMat0=    1 NMatS0=      1 NMatT0=    0 NMatD0=    1 NMtDS0=    0 NMtDT0=    0
 Symmetry not used in FoFCou.
 Leave Link  703 at Sat Feb  7 23:40:54 2015, MaxMem=   524288000 cpu:        20.5
 (Enter /opt/g09/l716.exe)
 Dipole        = 8.14672697D-09 1.15807725D-08 6.40553770D-09
 Polarizability= 1.02089614D+02 3.11284246D-01 1.07387133D+02
                 1.61314385D+00-9.45094787D-02 1.06915924D+02
 Full mass-weighted force constant matrix:
 Low frequencies ---   -0.0011   -0.0011   -0.0011
 Diagonal vibrational polarizability:
        0.0000000       0.0000000       0.0000000
 Harmonic frequencies (cm**-1), IR intensities (KM/Mole), Raman scattering
 activities (A**4/AMU), depolarization ratios for plane and unpolarized
 incident light, reduced masses (AMU), force constants (mDyne/A),
 and normal coordinates:

 -------------------
 - Thermochemistry -
 -------------------
 Temperature   298.150 Kelvin.  Pressure   1.00000 Atm.
 Atom     1 has atomic number 22 and mass  47.94795
 Molecular mass:    47.94795 amu.
 Zero-point vibrational energy          0.0 (Joules/Mol)
                                    0.00000 (Kcal/Mol)
 Vibrational temperatures: 
          (Kelvin)
 
 Zero-point correction=                           0.000000 (Hartree/Particle)
 Thermal correction to Energy=                    0.001416
 Thermal correction to Enthalpy=                  0.002360
 Thermal correction to Gibbs Free Energy=        -0.016507
 Sum of electronic and zero-point Energies=           -849.242837
 Sum of electronic and thermal Energies=              -849.241420
 Sum of electronic and thermal Enthalpies=            -849.240476
 Sum of electronic and thermal Free Energies=         -849.259344
 
                     E (Thermal)             CV                S
                      KCal/Mol        Cal/Mol-Kelvin    Cal/Mol-Kelvin
 Total                    0.889              2.981             39.710
 Electronic               0.000              0.000              2.183
 Translational            0.889              2.981             37.527
 Rotational               0.000              0.000              0.000
 Vibrational              0.000              0.000              0.000
                       Q            Log10(Q)             Ln(Q)
 Total Bot       0.391500D+08          7.592731         17.482910
 Total V=0       0.391500D+08          7.592731         17.482910
 Vib (Bot)       0.100000D+01          0.000000          0.000000
 Vib (V=0)       0.100000D+01          0.000000          0.000000
 Electronic      0.300000D+01          0.477121          1.098612
 Translational   0.130500D+08          7.115610         16.384298
 Rotational      0.100000D+01          0.000000          0.000000
 -------------------------------------------------------------------
 Center     Atomic                   Forces (Hartrees/Bohr)
 Number     Number              X              Y              Z
 -------------------------------------------------------------------
      1       22           0.000000000    0.000000000    0.000000000
 -------------------------------------------------------------------
 Cartesian Forces:  Max     0.000000000 RMS     0.000000000
 Force constants in Cartesian coordinates: 
                1             2             3 
      1  0.000000D+00
      2  0.000000D+00  0.000000D+00
      3  0.000000D+00  0.000000D+00  0.000000D+00
 Leave Link  716 at Sat Feb  7 23:40:54 2015, MaxMem=   524288000 cpu:         0.3
 (Enter /opt/g09/l103.exe)

 GradGradGradGradGradGradGradGradGradGradGradGradGradGradGradGradGradGrad
 Berny optimization.
 Search for a local minimum.
 Step number   1 out of a maximum of    2
 All quantities printed in internal units (Hartrees-Bohrs-Radians)
 Second derivative matrix not updated -- analytic derivatives used.
 The second derivative matrix:
                          X1        Y1        Z1
           X1           0.00000
           Y1           0.00000   0.00000
           Z1           0.00000   0.00000   0.00000
 ITU=  0
     Eigenvalues --- 
 Angle between quadratic step and forces=  90.00 degrees.
 Linear search not attempted -- first point.
 TrRot=  0.000000  0.000000  0.000000  0.000000  0.000000  0.000000
 Variable       Old X    -DE/DX   Delta X   Delta X   Delta X     New X
                                 (Linear)    (Quad)   (Total)
    X1        0.00000   0.00000   0.00000   0.00000   0.00000   0.00000
    Y1        0.00000   0.00000   0.00000   0.00000   0.00000   0.00000
    Z1        0.00000   0.00000   0.00000   0.00000   0.00000   0.00000
         Item               Value     Threshold  Converged?
 Maximum Force            0.000000     0.000015     YES
 RMS     Force            0.000000     0.000010     YES
 Maximum Displacement     0.000000     0.000060     YES
 RMS     Displacement     0.000000     0.000040     YES
 Predicted change in Energy= 0.000000D+00
 Optimization completed.
    -- Stationary point found.
 GradGradGradGradGradGradGradGradGradGradGradGradGradGradGradGradGradGrad

 Leave Link  103 at Sat Feb  7 23:40:54 2015, MaxMem=   524288000 cpu:         0.1
 (Enter /opt/g09/l9999.exe)
 1\1\GINC-HOPPER\Freq\UB971\6-311+G(d,p)\Ti1(3)\PB556\07-Feb-2015\0\\#P
  Geom=AllCheck Guess=TCheck SCRF=Check GenChk UB971/6-311+G(d,p) Freq\
 \freq-fine-ti_3let-b971-6311+gdp.gau\\0,3\Ti,0.,0.,0.\\Version=ES64L-G
 09RevD.01\HF=-849.2428368\S2=2.003982\S2-1=0.\S2A=2.000003\RMSD=3.193e
 -09\RMSF=5.109e-24\Thermal=0.0014163\Dipole=0.,0.,0.\DipoleDeriv=0.,0.
 ,0.,0.,0.,0.,0.,0.,0.\Polar=102.0896139,0.3112842,107.3871332,1.613143
 9,-0.0945095,106.915924\PG=OH [O(Ti1)]\NImag=0\\0.,0.,0.,0.,0.,0.\\0.,
 0.,0.\\\@


 KEEP CLOSE TO NATURES HEART, YOURSELF;
 AND BREAK CLEAR AWAY, ONCE IN A WHILE, AND
 CLIMB A MOUNTAIN OR SPEND A WEEK IN THE
 WOODS.  WASH YOUR SPIRIT CLEAN...
                                         -- JOHN MUIR
 Job cpu time:       0 days  0 hours  0 minutes 57.8 seconds.
 File lengths (MBytes):  RWF=      5 Int=      0 D2E=      0 Chk=      1 Scr=      1
 Normal termination of Gaussian 09 at Sat Feb  7 23:40:54 2015.
