 Entering Gaussian System, Link 0=g09
 Initial command:
 /usr/local/Cluster-Apps/gaussian/g09/l1.exe "/rds/user/am2145/hpc-work/scratch/26248351/Gau-240212.inp" -scrdir="/rds/user/am2145/hpc-work/scratch/26248351/"
 Entering Link 1 = /usr/local/Cluster-Apps/gaussian/g09/l1.exe PID=    240213.
  
 Copyright (c) 1988,1990,1992,1993,1995,1998,2003,2009,2013,
            Gaussian, Inc.  All Rights Reserved.
  
 This is part of the Gaussian(R) 09 program.  It is based on
 the Gaussian(R) 03 system (copyright 2003, Gaussian, Inc.),
 the Gaussian(R) 98 system (copyright 1998, Gaussian, Inc.),
 the Gaussian(R) 94 system (copyright 1995, Gaussian, Inc.),
 the Gaussian 92(TM) system (copyright 1992, Gaussian, Inc.),
 the Gaussian 90(TM) system (copyright 1990, Gaussian, Inc.),
 the Gaussian 88(TM) system (copyright 1988, Gaussian, Inc.),
 the Gaussian 86(TM) system (copyright 1986, Carnegie Mellon
 University), and the Gaussian 82(TM) system (copyright 1983,
 Carnegie Mellon University). Gaussian is a federally registered
 trademark of Gaussian, Inc.
  
 This software contains proprietary and confidential information,
 including trade secrets, belonging to Gaussian, Inc.
  
 This software is provided under written license and may be
 used, copied, transmitted, or stored only in accord with that
 written license.
  
 The following legend is applicable only to US Government
 contracts under FAR:
  
                    RESTRICTED RIGHTS LEGEND
  
 Use, reproduction and disclosure by the US Government is
 subject to restrictions as set forth in subparagraphs (a)
 and (c) of the Commercial Computer Software - Restricted
 Rights clause in FAR 52.227-19.
  
 Gaussian, Inc.
 340 Quinnipiac St., Bldg. 40, Wallingford CT 06492
  
  
 ---------------------------------------------------------------
 Warning -- This program may not be used in any manner that
 competes with the business of Gaussian, Inc. or will provide
 assistance to any competitor of Gaussian, Inc.  The licensee
 of this program is prohibited from giving any competitor of
 Gaussian, Inc. access to this program.  By using this program,
 the user acknowledges that Gaussian, Inc. is engaged in the
 business of creating and licensing software in the field of
 computational chemistry and represents and warrants to the
 licensee that it is not a competitor of Gaussian, Inc. and that
 it will not use this program in any manner prohibited above.
 ---------------------------------------------------------------
  

 Cite this work as:
 Gaussian 09, Revision D.01,
 M. J. Frisch, G. W. Trucks, H. B. Schlegel, G. E. Scuseria, 
 M. A. Robb, J. R. Cheeseman, G. Scalmani, V. Barone, B. Mennucci, 
 G. A. Petersson, H. Nakatsuji, M. Caricato, X. Li, H. P. Hratchian, 
 A. F. Izmaylov, J. Bloino, G. Zheng, J. L. Sonnenberg, M. Hada, 
 M. Ehara, K. Toyota, R. Fukuda, J. Hasegawa, M. Ishida, T. Nakajima, 
 Y. Honda, O. Kitao, H. Nakai, T. Vreven, J. A. Montgomery, Jr., 
 J. E. Peralta, F. Ogliaro, M. Bearpark, J. J. Heyd, E. Brothers, 
 K. N. Kudin, V. N. Staroverov, T. Keith, R. Kobayashi, J. Normand, 
 K. Raghavachari, A. Rendell, J. C. Burant, S. S. Iyengar, J. Tomasi, 
 M. Cossi, N. Rega, J. M. Millam, M. Klene, J. E. Knox, J. B. Cross, 
 V. Bakken, C. Adamo, J. Jaramillo, R. Gomperts, R. E. Stratmann, 
 O. Yazyev, A. J. Austin, R. Cammi, C. Pomelli, J. W. Ochterski, 
 R. L. Martin, K. Morokuma, V. G. Zakrzewski, G. A. Voth, 
 P. Salvador, J. J. Dannenberg, S. Dapprich, A. D. Daniels, 
 O. Farkas, J. B. Foresman, J. V. Ortiz, J. Cioslowski, 
 and D. J. Fox, Gaussian, Inc., Wallingford CT, 2013.
 
 ******************************************
 Gaussian 09:  ES64L-G09RevD.01 24-Apr-2013
                22-Jul-2020 
 ******************************************
 %NProcShared=20
 Will use up to   20 processors via shared memory.
 %mem=64GB
 %Chk=co2_td.chk
 ------------------
 #n CIS/6-311G(d,p)
 ------------------
 1/38=1/1;
 2/12=2,17=6,18=5,40=1/2;
 3/5=4,6=6,7=101,11=9,16=1,25=1,30=1/1,2,8,3;
 4//1;
 5/5=2,38=5/2;
 8/6=1,10=2/1,4;
 9/42=3/14;
 6/7=2,8=2,9=2,10=2/1;
 99/5=1,9=1/99;
 ------
 co2_td
 ------
 Symbolic Z-matrix:
 Charge =  0 Multiplicity = 1
 C                     0.        0.        0. 
 O                     0.        0.        1.16053 
 O                     0.        0.       -1.16053 
 
                          Input orientation:                          
 ---------------------------------------------------------------------
 Center     Atomic      Atomic             Coordinates (Angstroms)
 Number     Number       Type             X           Y           Z
 ---------------------------------------------------------------------
      1          6           0        0.000000    0.000000    0.000000
      2          8           0        0.000000    0.000000    1.160530
      3          8           0        0.000000    0.000000   -1.160530
 ---------------------------------------------------------------------
                    Distance matrix (angstroms):
                    1          2          3
     1  C    0.000000
     2  O    1.160530   0.000000
     3  O    1.160530   2.321060   0.000000
 Stoichiometry    CO2
 Framework group  D*H[O(C),C*(O.O)]
 Deg. of freedom     1
 Full point group                 D*H     NOp   8
 Largest Abelian subgroup         D2H     NOp   8
 Largest concise Abelian subgroup C2      NOp   2
                         Standard orientation:                         
 ---------------------------------------------------------------------
 Center     Atomic      Atomic             Coordinates (Angstroms)
 Number     Number       Type             X           Y           Z
 ---------------------------------------------------------------------
      1          6           0        0.000000    0.000000    0.000000
      2          8           0        0.000000    0.000000    1.160530
      3          8           0        0.000000    0.000000   -1.160530
 ---------------------------------------------------------------------
 Rotational constants (GHZ):      0.0000000     11.7298519     11.7298519
 Standard basis: 6-311G(d,p) (5D, 7F)
 There are    17 symmetry adapted cartesian basis functions of AG  symmetry.
 There are     2 symmetry adapted cartesian basis functions of B1G symmetry.
 There are     5 symmetry adapted cartesian basis functions of B2G symmetry.
 There are     5 symmetry adapted cartesian basis functions of B3G symmetry.
 There are     1 symmetry adapted cartesian basis functions of AU  symmetry.
 There are    13 symmetry adapted cartesian basis functions of B1U symmetry.
 There are     7 symmetry adapted cartesian basis functions of B2U symmetry.
 There are     7 symmetry adapted cartesian basis functions of B3U symmetry.
 There are    15 symmetry adapted basis functions of AG  symmetry.
 There are     2 symmetry adapted basis functions of B1G symmetry.
 There are     5 symmetry adapted basis functions of B2G symmetry.
 There are     5 symmetry adapted basis functions of B3G symmetry.
 There are     1 symmetry adapted basis functions of AU  symmetry.
 There are    12 symmetry adapted basis functions of B1U symmetry.
 There are     7 symmetry adapted basis functions of B2U symmetry.
 There are     7 symmetry adapted basis functions of B3U symmetry.
    54 basis functions,    96 primitive gaussians,    57 cartesian basis functions
    11 alpha electrons       11 beta electrons
       nuclear repulsion energy        58.3653009397 Hartrees.
 NAtoms=    3 NActive=    3 NUniq=    2 SFac= 2.25D+00 NAtFMM=   60 NAOKFM=F Big=F
 Integral buffers will be    131072 words long.
 Raffenetti 1 integral format.
 Two-electron integral symmetry is turned on.
 One-electron integrals computed using PRISM.
 NBasis=    54 RedAO= T EigKep=  1.35D-02  NBF=    15     2     5     5     1    12     7     7
 NBsUse=    54 1.00D-06 EigRej= -1.00D+00 NBFU=    15     2     5     5     1    12     7     7
 ExpMin= 1.46D-01 ExpMax= 8.59D+03 ExpMxC= 1.30D+03 IAcc=1 IRadAn=         1 AccDes= 0.00D+00
 Harris functional with IExCor=  205 and IRadAn=       1 diagonalized for initial guess.
 HarFok:  IExCor=  205 AccDes= 0.00D+00 IRadAn=         1 IDoV= 1 UseB2=F ITyADJ=14
 ICtDFT=  3500011 ScaDFX=  1.000000  1.000000  1.000000  1.000000
 FoFCou: FMM=F IPFlag=           0 FMFlag=      100000 FMFlg1=           0
         NFxFlg=           0 DoJE=T BraDBF=F KetDBF=T FulRan=T
         wScrn=  0.000000 ICntrl=     500 IOpCl=  0 I1Cent=   200000004 NGrid=           0
         NMat0=    1 NMatS0=      1 NMatT0=    0 NMatD0=    1 NMtDS0=    0 NMtDT0=    0
 Petite list used in FoFCou.
 Initial guess orbital symmetries:
       Occupied  (SGG) (SGU) (SGG) (SGG) (SGU) (SGG) (SGU) (PIU)
                 (PIU) (PIG) (PIG)
       Virtual   (PIU) (PIU) (SGG) (SGU) (PIU) (PIU) (SGG) (SGU)
                 (SGG) (PIG) (PIG) (PIU) (PIU) (SGU) (DLTG) (DLTG)
                 (SGG) (PIG) (PIG) (SGU) (PIU) (PIU) (SGG) (DLTU)
                 (DLTU) (DLTG) (DLTG) (PIU) (PIU) (SGU) (SGU) (SGG)
                 (PIG) (PIG) (PIU) (PIU) (PIG) (PIG) (SGG) (SGU)
                 (SGG) (SGU) (SGG)
 The electronic state of the initial guess is 1-SGG.
 Keep R1 ints in memory in symmetry-blocked form, NReq=1973315.
 Requested convergence on RMS density matrix=1.00D-08 within 128 cycles.
 Requested convergence on MAX density matrix=1.00D-06.
 Requested convergence on             energy=1.00D-06.
 No special actions if energy rises.
 SCF Done:  E(RHF) =  -187.684565796     A.U. after   10 cycles
            NFock= 10  Conv=0.11D-08     -V/T= 2.0011
 ExpMin= 1.46D-01 ExpMax= 8.59D+03 ExpMxC= 1.30D+03 IAcc=3 IRadAn=         5 AccDes= 0.00D+00
 HarFok:  IExCor=  205 AccDes= 0.00D+00 IRadAn=         5 IDoV=-2 UseB2=F ITyADJ=14
 ICtDFT= 12500011 ScaDFX=  1.000000  1.000000  1.000000  1.000000
 Range of M.O.s used for correlation:     4    54
 NBasis=    54 NAE=    11 NBE=    11 NFC=     3 NFV=     0
 NROrb=     51 NOA=     8 NOB=     8 NVA=    43 NVB=    43
 Semi-Direct transformation.
 ModeAB=           4 MOrb=             8 LenV=    8589733464
 LASXX=       153658 LTotXX=      153658 LenRXX=      319730
 LTotAB=      166072 MaxLAS=      419832 LenRXY=           0
 NonZer=      473388 LenScr=     1419264 LnRSAI=      419832
 LnScr1=     1258496 LExtra=           0 Total=      3417322
 MaxDsk=          -1 SrtSym=           T ITran=            3
 JobTyp=0 Pass  1:  I=   1 to   8.
 (rs|ai) integrals will be sorted in core.
 Spin components of T(2) and E(2):
     alpha-alpha T2 =       0.2060389733D-01 E2=     -0.7183648230D-01
     alpha-beta  T2 =       0.1035902800D+00 E2=     -0.3706092814D+00
     beta-beta   T2 =       0.2060389733D-01 E2=     -0.7183648230D-01
 ANorm=    0.1069952370D+01
 E2 =    -0.5142822460D+00 EUMP2 =    -0.18819884804225D+03
 Orbital symmetries:
       Occupied  (SGU) (SGG) (SGG) (SGG) (SGU) (SGG) (SGU) (PIU)
                 (PIU) (PIG) (PIG)
       Virtual   (PIU) (PIU) (SGG) (SGU) (PIU) (PIU) (SGG) (SGU)
                 (SGG) (PIG) (PIG) (PIU) (PIU) (SGU) (DLTG) (DLTG)
                 (SGG) (PIG) (PIG) (SGU) (PIU) (PIU) (SGG) (DLTU)
                 (DLTU) (DLTG) (DLTG) (PIU) (PIU) (SGU) (SGU) (SGG)
                 (PIG) (PIG) (PIU) (PIU) (PIG) (PIG) (SGG) (SGU)
                 (SGG) (SGU) (SGG)
    24 initial guesses have been made.
 Convergence on wavefunction:    0.001000000000000
 Iteration     1 Dimension    24 NMult     0 NNew     24
 New state      3 was old state      4
 Iteration     2 Dimension    48 NMult    24 NNew     24
 Iteration     3 Dimension    51 NMult    48 NNew      3
 New state      2 was old state      3
 New state      3 was old state      2
 Iteration     4 Dimension    54 NMult    51 NNew      3
 New state      2 was old state      3
 New state      3 was old state      2
 ***********************************************************************
 Excited states from <AA,BB:AA,BB> singles matrix:
 ***********************************************************************
 
 Ground to excited state transition densities written to RWF  633
 Ground to excited state transition electric dipole moments (Au):
       state          X           Y           Z        Dip. S.      Osc.
         1         0.0000      0.0000      0.0000      0.0000      0.0000
         2         0.0000      0.0000      0.0000      0.0000      0.0000
         3         0.0000      0.0000      0.0000      0.0000      0.0000
 Ground to excited state transition velocity dipole moments (Au):
       state          X           Y           Z        Dip. S.      Osc.
         1         0.0000      0.0000      0.0000      0.0000      0.0000
         2         0.0000      0.0000      0.0000      0.0000      0.0000
         3         0.0000      0.0000      0.0000      0.0000      0.0000
 Ground to excited state transition magnetic dipole moments (Au):
       state          X           Y           Z
         1         0.0000      0.0000      0.0000
         2         0.0000      0.0000      0.0000
         3         0.0000      0.0000      0.0000
 Ground to excited state transition velocity quadrupole moments (Au):
       state          XX          YY          ZZ          XY          XZ          YZ
         1         0.0000      0.0000      0.0000      0.0000      0.0000      0.0000
         2         0.0000      0.0000      0.0000      0.0000      0.0000      0.0000
         3         0.0000      0.0000      0.0000      0.0000      0.0000      0.0000
 <0|del|b> * <b|rxdel|0> + <0|del|b> * <b|delr+rdel|0>
 Rotatory Strengths (R) in cgs (10**-40 erg-esu-cm/Gauss)
       state          XX          YY          ZZ    R(velocity)    E-M Angle
         1         0.0000      0.0000      0.0000      0.0000       90.00
         2         0.0000      0.0000      0.0000      0.0000       90.00
         3         0.0000      0.0000      0.0000      0.0000       90.00
 1/2[<0|r|b>*<b|rxdel|0> + (<0|rxdel|b>*<b|r|0>)*]
 Rotatory Strengths (R) in cgs (10**-40 erg-esu-cm/Gauss)
       state          XX          YY          ZZ     R(length)
         1         0.0000      0.0000      0.0000      0.0000
         2         0.0000      0.0000      0.0000      0.0000
         3         0.0000      0.0000      0.0000      0.0000
  1/2[<0|del|b>*<b|r|0> + (<0|r|b>*<b|del|0>)*] (Au)
       state          X           Y           Z        Dip. S.   Osc.(frdel)
         1         0.0000      0.0000      0.0000      0.0000      0.0000
         2         0.0000      0.0000      0.0000      0.0000      0.0000
         3         0.0000      0.0000      0.0000      0.0000      0.0000

 Excitation energies and oscillator strengths:
 
 Excited state symmetry could not be determined.
 Excited State   1:      Singlet-?Sym    9.5323 eV  130.07 nm  f=0.0000  <S**2>=0.000
      10 -> 12        -0.49458
      11 -> 13         0.49458
 This state for optimization and/or second-order correction.
 Total Energy, E(CIS) =  -187.334261901    
 Copying the excited state density for this state as the 1-particle RhoCI density.
 
 Excited state symmetry could not be determined.
 Excited State   2:      Singlet-?Sym    9.7799 eV  126.77 nm  f=0.0000  <S**2>=0.000
      10 -> 12         0.12277
      10 -> 13        -0.47946
      11 -> 12         0.47946
      11 -> 13         0.12277
 
 Excited state symmetry could not be determined.
 Excited State   3:      Singlet-?Sym    9.7799 eV  126.77 nm  f=0.0000  <S**2>=0.000
      10 -> 12         0.47946
      10 -> 13         0.12277
      11 -> 12        -0.12277
      11 -> 13         0.47946
 SavETr:  write IOETrn=   770 NScale= 10 NData=  16 NLR=1 NState=    3 LETran=      64.

 **********************************************************************

            Population analysis using the SCF density.

 **********************************************************************

 Orbital symmetries:
       Occupied  (SGU) (SGG) (SGG) (SGG) (SGU) (SGG) (SGU) (PIU)
                 (PIU) (PIG) (PIG)
       Virtual   (PIU) (PIU) (SGG) (SGU) (PIU) (PIU) (SGG) (SGU)
                 (SGG) (PIG) (PIG) (PIU) (PIU) (SGU) (DLTG) (DLTG)
                 (SGG) (PIG) (PIG) (SGU) (PIU) (PIU) (SGG) (DLTU)
                 (DLTU) (DLTG) (DLTG) (PIU) (PIU) (SGU) (SGU) (SGG)
                 (PIG) (PIG) (PIU) (PIU) (PIG) (PIG) (SGG) (SGU)
                 (SGG) (SGU) (SGG)
 The electronic state is 1-SGG.
 Alpha  occ. eigenvalues --  -20.64683 -20.64678 -11.46046  -1.53092  -1.47798
 Alpha  occ. eigenvalues --   -0.79698  -0.74029  -0.71263  -0.71263  -0.54098
 Alpha  occ. eigenvalues --   -0.54098
 Alpha virt. eigenvalues --    0.21028   0.21028   0.22580   0.43953   0.51388
 Alpha virt. eigenvalues --    0.51388   0.72084   0.83603   0.90522   0.98058
 Alpha virt. eigenvalues --    0.98058   1.16641   1.16641   1.37020   1.41825
 Alpha virt. eigenvalues --    1.41825   1.50229   1.65939   1.65939   1.81972
 Alpha virt. eigenvalues --    2.81313   2.81313   2.97967   3.10805   3.10805
 Alpha virt. eigenvalues --    3.22726   3.22726   3.44232   3.44232   3.51954
 Alpha virt. eigenvalues --    3.98241   4.01611   4.02982   4.02982   5.38793
 Alpha virt. eigenvalues --    5.38793   5.46960   5.46960   5.99613   6.16679
 Alpha virt. eigenvalues --   25.48070  51.51366  51.73236
          Condensed to atoms (all electrons):
               1          2          3
     1  C    4.009041   0.633903   0.633903
     2  O    0.633903   7.771456  -0.043782
     3  O    0.633903  -0.043782   7.771456
 Mulliken charges:
               1
     1  C    0.723153
     2  O   -0.361576
     3  O   -0.361576
 Sum of Mulliken charges =   0.00000
 Mulliken charges with hydrogens summed into heavy atoms:
               1
     1  C    0.723153
     2  O   -0.361576
     3  O   -0.361576
 Electronic spatial extent (au):  <R**2>=            113.6499
 Charge=              0.0000 electrons
 Dipole moment (field-independent basis, Debye):
    X=              0.0000    Y=              0.0000    Z=              0.0000  Tot=              0.0000
 Quadrupole moment (field-independent basis, Debye-Ang):
   XX=            -14.5754   YY=            -14.5754   ZZ=            -20.2066
   XY=              0.0000   XZ=              0.0000   YZ=              0.0000
 Traceless Quadrupole moment (field-independent basis, Debye-Ang):
   XX=              1.8770   YY=              1.8770   ZZ=             -3.7541
   XY=              0.0000   XZ=              0.0000   YZ=              0.0000
 Octapole moment (field-independent basis, Debye-Ang**2):
  XXX=              0.0000  YYY=              0.0000  ZZZ=              0.0000  XYY=              0.0000
  XXY=              0.0000  XXZ=              0.0000  XZZ=              0.0000  YZZ=              0.0000
  YYZ=              0.0000  XYZ=              0.0000
 Hexadecapole moment (field-independent basis, Debye-Ang**3):
 XXXX=            -10.6669 YYYY=            -10.6669 ZZZZ=           -103.3228 XXXY=              0.0000
 XXXZ=              0.0000 YYYX=              0.0000 YYYZ=              0.0000 ZZZX=              0.0000
 ZZZY=              0.0000 XXYY=             -3.5556 XXZZ=            -18.4977 YYZZ=            -18.4977
 XXYZ=              0.0000 YYXZ=              0.0000 ZZXY=              0.0000
 N-N= 5.836530093967D+01 E-N=-5.599540025820D+02  KE= 1.874692071550D+02
 Symmetry AG   KE= 1.013818716459D+02
 Symmetry B1G  KE= 1.286475128918D-33
 Symmetry B2G  KE= 4.720391816541D+00
 Symmetry B3G  KE= 4.720391816541D+00
 Symmetry AU   KE= 1.383848354308D-34
 Symmetry B1U  KE= 6.932033822810D+01
 Symmetry B2U  KE= 3.663106823912D+00
 Symmetry B3U  KE= 3.663106823912D+00
 1\1\GINC-CPU-G-1\SP\RCIS-FC\6-311G(d,p)\C1O2\AM2145\22-Jul-2020\0\\#n 
 CIS/6-311G(d,p)\\co2_td\\0,1\C,0,0.,0.,0.\O,0,0.,0.,1.16053\O,0,0.,0.,
 -1.16053\\Version=ES64L-G09RevD.01\State=1-SGG\HF=-187.6845658\MP2=-18
 8.198848\RMSD=1.122e-09\PG=D*H [O(C1),C*(O1.O1)]\\@


 THERE'S SMALL CHOICE IN A BOWL OF ROTTEN APPLES.
                     SHAKESPEARE
 Job cpu time:       0 days  0 hours  7 minutes 23.8 seconds.
 File lengths (MBytes):  RWF=     33 Int=      0 D2E=      0 Chk=      2 Scr=      1
 Normal termination of Gaussian 09 at Wed Jul 22 15:08:43 2020.
