 cputime 	unlimited
 filesize 	413696 kbytes
 datasize 	131072 kbytes
 stacksize 	32768 kbytes
 coredumpsize 	1048575 kbytes
 memoryuse 	32768 kbytes
 Thu Aug 21 02:00:33 IDT 2003
 etrog
 
        *=*=*=*=*=*=*=*=*=*=*=*=*=*=*=*=*=*=*=*
        * xrung98: Running g98                *
        * (Command = /bin/time /bin/nice g98  *
        *=*=*=*=*=*=*=*=*=*=*=*=*=*=*=*=*=*=*=*
 
 Entering Gaussian System, Link 0=g98
 Initial command:
 /usr/spool/scr/aped/g98_A7_install/g98/l1.exe /usr/spool/scr1/tchem11/g98/ch2chfme_2.8/Gau-25930.inp -scrdir=/usr/spool/scr1/tchem11/g98/ch2chfme_2.8/
 Entering Link 1 = /usr/spool/scr/aped/g98_A7_install/g98/l1.exe PID=     18934.
  
 Copyright (c) 1988,1990,1992,1993,1995,1998 Gaussian, Inc.
                  All Rights Reserved.
  
 This is part of the Gaussian(R) 98 program.  It is based on
 the Gaussian 94(TM) system (copyright 1995 Gaussian, Inc.),
 the Gaussian 92(TM) system (copyright 1992 Gaussian, Inc.),
 the Gaussian 90(TM) system (copyright 1990 Gaussian, Inc.),
 the Gaussian 88(TM) system (copyright 1988 Gaussian, Inc.),
 the Gaussian 86(TM) system (copyright 1986 Carnegie Mellon
 University), and the Gaussian 82(TM) system (copyright 1983
 Carnegie Mellon University). Gaussian is a federally registered
 trademark of Gaussian, Inc.
  
 This software contains proprietary and confidential information,
 including trade secrets, belonging to Gaussian, Inc.
  
 This software is provided under written license and may be
 used, copied, transmitted, or stored only in accord with that
 written license.
  
 The following legend is applicable only to US Government
 contracts under DFARS:
  
                    RESTRICTED RIGHTS LEGEND
  
 Use, duplication or disclosure by the US Government is subject
 to restrictions as set forth in subparagraph (c)(1)(ii) of the
 Rights in Technical Data and Computer Software clause at DFARS
 252.227-7013.
  
 Gaussian, Inc.
 Carnegie Office Park, Building 6, Pittsburgh, PA 15106 USA
  
 The following legend is applicable only to US Government
 contracts under FAR:
  
                    RESTRICTED RIGHTS LEGEND
  
 Use, reproduction and disclosure by the US Government is subject
 to restrictions as set forth in subparagraph (c) of the
 Commercial Computer Software - Restricted Rights clause at FAR
 52.227-19.
  
 Gaussian, Inc.
 Carnegie Office Park, Building 6, Pittsburgh, PA 15106 USA
  
  
 ---------------------------------------------------------------
 Warning -- This program may not be used in any manner that
 competes with the business of Gaussian, Inc. or will provide
 assistance to any competitor of Gaussian, Inc.  The licensee
 of this program is prohibited from giving any competitor of
 Gaussian, Inc. access to this program.  By using this program,
 the user acknowledges that Gaussian, Inc. is engaged in the
 business of creating and licensing software in the field of
 computational chemistry and represents and warrants to the
 licensee that it is not a competitor of Gaussian, Inc. and that
 it will not use this program in any manner prohibited above.
 ---------------------------------------------------------------
  

 Cite this work as:
 Gaussian 98, Revision A.7,
 M. J. Frisch, G. W. Trucks, H. B. Schlegel, G. E. Scuseria, 
 M. A. Robb, J. R. Cheeseman, V. G. Zakrzewski, J. A. Montgomery, Jr., 
 R. E. Stratmann, J. C. Burant, S. Dapprich, J. M. Millam, 
 A. D. Daniels, K. N. Kudin, M. C. Strain, O. Farkas, J. Tomasi, 
 V. Barone, M. Cossi, R. Cammi, B. Mennucci, C. Pomelli, C. Adamo, 
 S. Clifford, J. Ochterski, G. A. Petersson, P. Y. Ayala, Q. Cui, 
 K. Morokuma, D. K. Malick, A. D. Rabuck, K. Raghavachari, 
 J. B. Foresman, J. Cioslowski, J. V. Ortiz, A. G. Baboul, 
 B. B. Stefanov, G. Liu, A. Liashenko, P. Piskorz, I. Komaromi, 
 R. Gomperts, R. L. Martin, D. J. Fox, T. Keith, M. A. Al-Laham, 
 C. Y. Peng, A. Nanayakkara, C. Gonzalez, M. Challacombe, 
 P. M. W. Gill, B. Johnson, W. Chen, M. W. Wong, J. L. Andres, 
 C. Gonzalez, M. Head-Gordon, E. S. Replogle, and J. A. Pople, 
 Gaussian, Inc., Pittsburgh PA, 1998.

 **********************************************
 Gaussian 98:  IBM-RS6000-G98RevA.7 11-Apr-1999
                  21-Aug-2003 
 **********************************************
 -------------------------------------------------
 #p B3lyp/6-31+G* OPT=(Z-matrix,NOEIGEN) OPTCYC=99
 -------------------------------------------------
 1/6=99,10=7,11=1,14=-1,18=40,26=3,38=1/1,3;
 2/17=6,18=5/2;
 3/5=1,6=6,7=11,11=2,25=1,30=1/1,2,3;
 4//1;
 5/5=2,38=4,42=-5/2;
 6/7=2,8=2,9=2,10=2,28=1/1;
 7/29=1/1,2,3,16;
 1/6=99,10=7,11=1,14=-1,18=40/3(1);
 99//99;
 2//2;
 3/5=1,6=6,7=11,11=2,25=1,30=1/1,2,3;
 4/5=5,16=2/1;
 5/5=2,38=4,42=-5/2;
 7//1,2,3,16;
 1/6=99,11=1,14=-1,18=40/3(-5);
 2//2;
 6/7=2,8=2,9=2,10=2,19=2,28=1/1;
 99/9=1/99;
 Leave Link    1 at Thu Aug 21 02:00:34 2003, MaxMem=          0 cpu:        .2
 (Enter /usr/spool/scr/aped/g98_A7_install/g98/l101.exe)
 ---
 mef
 ---
 Symbolic Z-matrix:
 Charge = -1 Multiplicity = 1
 C
 F                    1    R1
 H                    1    R2       2    A1
 H                    1    R3       2    A2       3    D1       0
 H                    1    R4       2    A3       3    D2       0
 X                    1     1.       2     90.      4     180.     0
 C                    1    R7       6     90.      2     180.     0
 C                    7    R8       1    A8       6    D8       0
 H                    7    R9       1    A9       6    D9       0
 H                    8    R11      7    A11      9    D11      0
 H                    8    R12      7    A12      9    D12      0
       Variables:
  R1                    1.4786                   
  R2                    1.0863                   
  R3                    1.0844                   
  R4                    1.0864                   
  R7                    2.8                      
  R8                    1.3602                   
  R9                    1.1199                   
  R11                   1.1109                   
  R12                   1.1031                   
  A1                  107.2438                   
  A2                  106.5546                   
  A3                  107.2363                   
  A8                  111.2462                   
  A9                  139.8965                   
  A11                 126.9019                   
  A12                 121.2886                   
  D1                 -119.6907                   
  D2                  120.6379                   
  D8                    1.8342                   
  D9                  183.1876                   
  D11                  -0.0972                   
  D12                 180.0128                   
 Leave Link  101 at Thu Aug 21 02:00:35 2003, MaxMem=    6291456 cpu:        .3
 (Enter /usr/spool/scr/aped/g98_A7_install/g98/l103.exe)

 GradGradGradGradGradGradGradGradGradGradGradGradGradGradGradGradGradGrad
 Berny optimization.
 Initialization pass.
                       ----------------------------
                       !    Initial Parameters    !
                       ! (Angstroms and Degrees)  !
 ----------------------                            ----------------------
 !      Name          Value   Derivative information (Atomic Units)     !
 ------------------------------------------------------------------------
 !       R1          1.4786   estimate D2E/DX2                          !
 !       R2          1.0863   estimate D2E/DX2                          !
 !       R3          1.0844   estimate D2E/DX2                          !
 !       R4          1.0864   estimate D2E/DX2                          !
 !       R7          2.8      estimate D2E/DX2                          !
 !       R8          1.3602   estimate D2E/DX2                          !
 !       R9          1.1199   estimate D2E/DX2                          !
 !       R11         1.1109   estimate D2E/DX2                          !
 !       R12         1.1031   estimate D2E/DX2                          !
 !       A1        107.2438   estimate D2E/DX2                          !
 !       A2        106.5546   estimate D2E/DX2                          !
 !       A3        107.2363   estimate D2E/DX2                          !
 !       A8        111.2462   estimate D2E/DX2                          !
 !       A9        139.8965   estimate D2E/DX2                          !
 !       A11       126.9019   estimate D2E/DX2                          !
 !       A12       121.2886   estimate D2E/DX2                          !
 !       D1       -119.6907   estimate D2E/DX2                          !
 !       D2        120.6379   estimate D2E/DX2                          !
 !       D8          1.8342   estimate D2E/DX2                          !
 !       D9        183.1876   estimate D2E/DX2                          !
 !       D11        -0.0972   estimate D2E/DX2                          !
 !       D12       180.0128   estimate D2E/DX2                          !
 ------------------------------------------------------------------------
 Trust Radius=3.00D-01 FncErr=1.00D-07 GrdErr=1.00D-06
 Number of steps in this run=  99 maximum allowed number of steps= 100.
 GradGradGradGradGradGradGradGradGradGradGradGradGradGradGradGradGradGrad

 Leave Link  103 at Thu Aug 21 02:00:35 2003, MaxMem=    6291456 cpu:        .1
 (Enter /usr/spool/scr/aped/g98_A7_install/g98/l202.exe)
 ------------------------------------------------------------------------
                         Z-MATRIX (ANGSTROMS AND DEGREES)
 CD Cent Atom  N1     Length/X     N2    Alpha/Y     N3     Beta/Z      J
 ------------------------------------------------------------------------
   1   1  C 
   2   2  F     1   1.478600(  1)
   3   3  H     1   1.086300(  2)   2  107.244( 11)
   4   4  H     1   1.084400(  3)   2  106.555( 12)   3 -119.691( 20)   0
   5   5  H     1   1.086400(  4)   2  107.236( 13)   3  120.638( 21)   0
   6      X     1   1.000000(  5)   2   90.000( 14)   4  180.000( 22)   0
   7   6  C     1   2.800000(  6)   6   90.000( 15)   2  180.000( 23)   0
   8   7  C     7   1.360200(  7)   1  111.246( 16)   6    1.834( 24)   0
   9   8  H     7   1.119900(  8)   1  139.897( 17)   6  183.188( 25)   0
  10   9  H     8   1.110900(  9)   7  126.902( 18)   9    -.097( 26)   0
  11  10  H     8   1.103100( 10)   7  121.289( 19)   9  180.013( 27)   0
 ------------------------------------------------------------------------
                         Z-Matrix orientation:                         
 ---------------------------------------------------------------------
 Center     Atomic     Atomic              Coordinates (Angstroms)
 Number     Number      Type              X           Y           Z
 ---------------------------------------------------------------------
    1          6             0         .000000     .000000     .000000
    2          9             0         .000000     .000000    1.478600
    3          1             0        1.037473     .000000    -.322021
    4          1             0        -.514858     .902983    -.308977
    5          1             0        -.528777    -.892766    -.321915
    6         -1             0         .495318    -.868712     .000000
    7          6             0         .000000     .000000   -2.800000
    8          6             0         .592367   -1.120844   -3.292904
    9          1             0        -.321925     .645594   -3.656591
   10          1             0         .743753   -1.379948   -4.362505
   11          1             0         .987872   -1.902080   -2.622028
 ---------------------------------------------------------------------
                    Distance matrix (angstroms):
                    1          2          3          4          5
     1  C     .000000
     2  F    1.478600    .000000
     3  H    1.086300   2.078121    .000000
     4  H    1.084400   2.067822   1.795906    .000000
     5  H    1.086400   2.078097   1.802823   1.795849    .000000
     6  X    1.000000   1.785009   1.073448   2.062722   1.073768
     7  C    2.800000   4.278600   2.686397   2.699195   2.686548
     8  C    3.528513   4.937048   3.206331   3.771690   3.183671
     9  H    3.727075   5.185616   3.658431   3.363034   3.678234
    10  H    4.635610   6.047804   4.279724   4.819436   4.264159
    11  H    3.386566   4.626981   2.985030   3.934054   2.934189
                    6          7          8          9         10
     6  X     .000000
     7  C    2.973214    .000000
     8  C    3.303968   1.360200    .000000
     9  H    4.041246   1.119900   2.022004    .000000
    10  H    4.399379   2.213334   1.110900   2.395163    .000000
    11  H    2.861029   2.150692   1.103100   3.045740   1.833433
                   11
    11  H     .000000
                           Interatomic angles:
       F2-C1-H3=107.2438       F2-C1-H4=106.5546       H3-C1-H4=111.6528
       F2-C1-H5=107.2363       H3-C1-H5=112.1485       H4-C1-H5=111.6396
       F2-C1-X6= 90.           H3-C1-X6= 61.7673       H4-C1-X6=163.4454
       H5-C1-X6= 61.7842       F2-C1-C7=180.           H3-C1-C7= 72.7562
       H4-C1-C7= 73.4454       H5-C1-C7= 72.7637       X6-C1-C7= 90.    
       C1-C7-C8=111.2462       C1-C7-H9=139.8965       C8-C7-H9=108.8472
      C7-C8-H10=126.9019      C7-C8-H11=121.2886     H10-C8-H11=111.8094
 Stoichiometry    C3H6F(1-)
 Framework group  C1[X(C3H6F)]
 Deg. of freedom   24
 Full point group                 C1      NOp   1
 Largest Abelian subgroup         C1      NOp   1
 Largest concise Abelian subgroup C1      NOp   1
                         Standard orientation:                         
 ---------------------------------------------------------------------
 Center     Atomic     Atomic              Coordinates (Angstroms)
 Number     Number      Type              X           Y           Z
 ---------------------------------------------------------------------
    1          6             0       -1.097377     .116262    -.000486
    2          9             0       -2.549550    -.162034     .001361
    3          1             0        -.689491    -.295116     .918450
    4          1             0        -.989481    1.194607    -.038634
    5          1             0        -.679522    -.359653    -.883190
    6          6             0        1.652578     .643268    -.003982
    7          6             0        2.375288    -.509039     .000884
    8          1             0        2.358121    1.512876     .008868
    9          1             0        3.482208    -.602120     .013620
   10          1             0        1.881184   -1.495232    -.009857
 ---------------------------------------------------------------------
 Rotational constants (GHZ):     29.8489608      1.9260435      1.8307726
 Isotopes: C-12,F-19,H-1,H-1,H-1,C-12,C-12,H-1,H-1,H-1
 Leave Link  202 at Thu Aug 21 02:00:36 2003, MaxMem=    6291456 cpu:        .2
 (Enter /usr/spool/scr/aped/g98_A7_install/g98/l301.exe)
 Standard basis: 6-31+G(d) (6D, 7F)
 There are    88 symmetry adapted basis functions of A   symmetry.
 Crude estimate of integral set expansion from redundant integrals=1.000.
 Integral buffers will be    262144 words long.
 Raffenetti 2 integral format.
 Two-electron integral symmetry is turned on.
    88 basis functions      152 primitive gaussians
    17 alpha electrons       17 beta electrons
       nuclear repulsion energy       101.1544845476 Hartrees.
 Leave Link  301 at Thu Aug 21 02:00:36 2003, MaxMem=    6291456 cpu:        .2
 (Enter /usr/spool/scr/aped/g98_A7_install/g98/l302.exe)
 One-electron integrals computed using PRISM.
 NBasis=    88 RedAO= T  NBF=    88
 NBsUse=    88 1.00D-04 NBFU=    88
 Leave Link  302 at Thu Aug 21 02:00:39 2003, MaxMem=    6291456 cpu:       1.4
 (Enter /usr/spool/scr/aped/g98_A7_install/g98/l303.exe)
 DipDrv:  MaxL=1.
 Leave Link  303 at Thu Aug 21 02:00:40 2003, MaxMem=    6291456 cpu:        .4
 (Enter /usr/spool/scr/aped/g98_A7_install/g98/l401.exe)
 Projected INDO Guess.
 Leave Link  401 at Thu Aug 21 02:00:42 2003, MaxMem=    6291456 cpu:        .7
 (Enter /usr/spool/scr/aped/g98_A7_install/g98/l502.exe)
 IExCor= 402 DFT=T Ex=B+HF Corr=LYP ScaHFX=  .2000
 ScaDFX=   .8000   .7200  1.0000   .8100
 IRadAn=      0 IRanWt=     -1 IRanGd=            0 ICorTp=0
 Using DIIS extrapolation.
 Closed shell SCF:
 Requested convergence on RMS density matrix=1.00D-08 within  64 cycles.
 Requested convergence on MAX density matrix=1.00D-06.
 Integral symmetry usage will be decided dynamically.
 IEnd=     30258 IEndB=     30258 NGot=   6291456 MDV=   6273255
 LenX=   6273255
 Fock matrices will be formed incrementally for  20 cycles.

 Cycle   1  Pass 1  IDiag 1:
 Petite list used in FoFDir.
 MinBra= 0 MaxBra= 2 Meth= 1.
 IRaf=       0 NMat=   1 IRICut=       1 DoRegI=T DoRafI=F ISym2E= 1 JSym2E=1.
 E= -.317891144585941D+03
 DIIS: error= 2.70D-01 at cycle   1.
 T= 2814. Gap=  .010 NK=0 IS=    1 IE=   88
          NO(<0.9)=   1  NV(>0.1)=   1  16.63e < EF  .37e >EF  Err=9.2D-11
 RMSDP=1.48D-01 MaxDP=5.66D+00

 Cycle   2  Pass 1  IDiag 1:
 RMSU=  1.48D-01    CP:  1.06D+00
 E= -.317957082047544D+03 Delta-E=        -.065937461603
 DIIS: error= 1.56D-01 at cycle   2.
 Coeff: -.246D+00 -.754D+00
 T= 2700. Gap=  .197 NK=0 IS=    1 IE=   88
          NO(<0.9)=   0  NV(>0.1)=   0  17.00e < EF  .00e >EF  Err=4.9D-11
 RMSDP=1.50D-01 MaxDP=5.76D+00

 Cycle   3  Pass 1  IDiag 1:
 RMSU=  1.31D-02    CP:  8.74D-01 -4.31D-03
 E= -.317949661645376D+03 Delta-E=         .007420402168
 DIIS: error= 1.50D-01 at cycle   3.
 Coeff: -.284D-01 -.535D+00 -.437D+00
 T= 2400. Gap=  .147 NK=0 IS=    1 IE=   88
          NO(<0.9)=   0  NV(>0.1)=   0  17.00e < EF  .00e >EF  Err=9.8D-11
 RMSDP=1.60D-02 MaxDP=4.24D-01

 Cycle   4  Pass 1  IDiag 1:
 RMSU=  1.45D-02    CP:  8.26D-01  4.02D-02  1.10D+00
 E= -.318804853948423D+03 Delta-E=        -.855192303047
 DIIS: error= 3.65D-02 at cycle   4.
 Coeff: -.248D-02 -.273D+00 -.161D+00 -.564D+00
 T= 2298. Gap=  .162 NK=4 IS=   12 IE=   27
          NO(<0.9)=   0  NV(>0.1)=   0  17.00e < EF  .00e >EF  Err=0.0D+00
 RMSDP=3.16D-03 MaxDP=7.74D-02

 Cycle   5  Pass 1  IDiag 1:
 RMSU=  2.94D-03    CP:  8.15D-01  3.96D-02  1.13D+00  9.30D-01
 E= -.318827861007888D+03 Delta-E=        -.023007059465
 DIIS: error= 2.90D-02 at cycle   5.
 Coeff:  .605D-03 -.629D-01  .394D-01 -.378D+00 -.599D+00
 T= 1800. Gap=  .120 NK=0 IS=    1 IE=   88
          NO(<0.9)=   0  NV(>0.1)=   0  17.00e < EF  .00e >EF  Err=4.0D-12
 RMSDP=5.76D-03 MaxDP=2.20D-01

 Cycle   6  Pass 1  IDiag 1:
 RMSU=  2.70D-03    CP:  8.10D-01  6.13D-02  1.17D+00  1.20D+00  1.09D+00
 E= -.318850942681817D+03 Delta-E=        -.023081673929
 DIIS: error= 4.27D-03 at cycle   6.
 Coeff:  .224D-03 -.319D-01  .655D-02 -.102D+00 -.157D+00 -.716D+00
 T= 1343. Gap=  .133 NK=1 IS=   16 IE=   26
          NO(<0.9)=   0  NV(>0.1)=   0  17.00e < EF  .00e >EF  Err=0.0D+00
 RMSDP=1.65D-03 MaxDP=6.68D-02

 Cycle   7  Pass 1  IDiag 1:
 RMSU=  4.23D-04    CP:  8.10D-01  5.40D-02  1.16D+00  1.13D+00  1.02D+00
                    CP:  7.62D-01
 E= -.318850886663809D+03 Delta-E=         .000056018009
 DIIS: error= 2.62D-03 at cycle   7.
 Coeff: -.217D-04 -.510D-02  .466D-02 -.330D-02  .421D-02 -.486D+00
 Coeff: -.514D+00
 T=  944. Gap=  .128 NK=1 IS=   16 IE=   26
          NO(<0.9)=   0  NV(>0.1)=   0  17.00e < EF  .00e >EF  Err=0.0D+00
 RMSDP=6.50D-04 MaxDP=2.02D-02

 Cycle   8  Pass 1  IDiag 1:
 RMSU=  2.02D-04    CP:  8.09D-01  5.58D-02  1.16D+00  1.16D+00  1.09D+00
                    CP:  8.94D-01  1.05D+00
 E= -.318851306269238D+03 Delta-E=        -.000419605429
 DIIS: error= 2.75D-04 at cycle   8.
 Coeff:  .281D-04 -.395D-03 -.310D-03  .400D-02  .178D-01 -.861D-01
 Coeff: -.104D+00 -.831D+00
 RMSDP=8.55D-05 MaxDP=2.16D-03

 Cycle   9  Pass 1  IDiag 1:
 RMSU=  4.99D-05    CP:  8.09D-01  5.55D-02  1.16D+00  1.16D+00  1.09D+00
                    CP:  9.00D-01  1.15D+00  1.09D+00
 E= -.318851310200961D+03 Delta-E=        -.000003931723
 DIIS: error= 5.99D-05 at cycle   9.
 Coeff:  .391D-05  .197D-04 -.224D-03  .107D-02  .414D-02 -.928D-02
 Coeff: -.105D-01 -.235D+00 -.750D+00
 RMSDP=5.66D-05 MaxDP=2.26D-03

 Cycle  10  Pass 1  IDiag 1:
 RMSU=  8.18D-06    CP:  8.09D-01  5.52D-02  1.16D+00  1.16D+00  1.09D+00
                    CP:  8.96D-01  1.19D+00  1.17D+00  1.16D+00
 E= -.318851310305687D+03 Delta-E=        -.000000104727
 DIIS: error= 2.74D-05 at cycle  10.
 Coeff: -.349D-06  .581D-04 -.690D-04  .174D-03  .140D-03  .324D-02
 Coeff:  .351D-02 -.324D-01 -.342D+00 -.632D+00
 RMSDP=2.03D-05 MaxDP=7.98D-04

 Cycle  11  Pass 1  IDiag 1:
 RMSU=  2.80D-06    CP:  8.09D-01  5.51D-02  1.16D+00  1.16D+00  1.09D+00
                    CP:  8.95D-01  1.20D+00  1.20D+00  1.23D+00  1.09D+00
 E= -.318851310329488D+03 Delta-E=        -.000000023801
 DIIS: error= 5.48D-06 at cycle  11.
 Coeff: -.619D-06  .107D-04 -.527D-05 -.522D-04 -.346D-03  .154D-02
 Coeff:  .916D-03  .696D-02 -.463D-01 -.166D+00 -.797D+00
 RMSDP=1.02D-05 MaxDP=4.16D-04

 Cycle  12  Pass 1  IDiag 1:
 RMSU=  5.61D-07    CP:  8.09D-01  5.51D-02  1.16D+00  1.16D+00  1.09D+00
                    CP:  8.94D-01  1.21D+00  1.21D+00  1.28D+00  1.19D+00
                    CP:  1.07D+00
 E= -.318851310331418D+03 Delta-E=        -.000000001931
 DIIS: error= 8.82D-07 at cycle  12.
 Coeff:  .466D-07 -.499D-06  .323D-05 -.151D-04 -.660D-04 -.130D-04
 Coeff: -.279D-03  .331D-02  .161D-01  .193D-01 -.114D+00 -.924D+00
 RMSDP=3.87D-06 MaxDP=1.55D-04

 Cycle  13  Pass 1  IDiag 1:
 RMSU=  1.01D-07    CP:  8.09D-01  5.51D-02  1.16D+00  1.16D+00  1.09D+00
                    CP:  8.93D-01  1.21D+00  1.22D+00  1.30D+00  1.23D+00
                    CP:  1.18D+00  1.11D+00
 E= -.318851310331520D+03 Delta-E=        -.000000000102
 DIIS: error= 1.33D-07 at cycle  13.
 Coeff:  .549D-08 -.148D-06  .509D-06  .748D-06  .450D-05 -.314D-04
 Coeff: -.283D-04  .183D-03  .268D-02  .547D-02  .108D-01 -.118D+00
 Coeff: -.901D+00
 RMSDP=5.61D-07 MaxDP=2.21D-05

 Cycle  14  Pass 1  IDiag 1:
 RMSU=  1.70D-08    CP:  8.09D-01  5.51D-02  1.16D+00  1.16D+00  1.09D+00
                    CP:  8.93D-01  1.21D+00  1.22D+00  1.30D+00  1.24D+00
                    CP:  1.19D+00  1.16D+00  1.09D+00
 E= -.318851310331489D+03 Delta-E=         .000000000032
 DIIS: error= 2.96D-08 at cycle  14.
 Coeff:  .488D-10 -.641D-07 -.705D-07  .719D-06  .407D-05 -.349D-05
 Coeff:  .125D-04 -.127D-03 -.434D-03 -.611D-04  .644D-02  .298D-01
 Coeff: -.791D-01 -.957D+00
 RMSDP=1.29D-07 MaxDP=5.08D-06

 Cycle  15  Pass 1  IDiag 1:
 RMSU=  3.86D-09    CP:  8.09D-01  5.51D-02  1.16D+00  1.16D+00  1.09D+00
                    CP:  8.93D-01  1.21D+00  1.22D+00  1.30D+00  1.24D+00
                    CP:  1.19D+00  1.17D+00  1.15D+00  1.18D+00
 E= -.318851310331512D+03 Delta-E=        -.000000000023
 DIIS: error= 4.19D-09 at cycle  15.
 Coeff: -.672D-09 -.700D-08 -.155D-07  .296D-07  .259D-06  .840D-06
 Coeff:  .299D-05 -.155D-04 -.118D-03 -.121D-03  .274D-03  .620D-02
 Coeff:  .163D-01 -.105D+00 -.918D+00
 RMSDP=1.16D-08 MaxDP=4.50D-07

 Cycle  16  Pass 1  IDiag 1:
 RMSU=  5.22D-10    CP:  8.09D-01  5.51D-02  1.16D+00  1.16D+00  1.09D+00
                    CP:  8.93D-01  1.21D+00  1.22D+00  1.30D+00  1.24D+00
                    CP:  1.19D+00  1.17D+00  1.16D+00  1.23D+00  1.16D+00
 E= -.318851310331502D+03 Delta-E=         .000000000010
 DIIS: error= 4.73D-10 at cycle  16.
 Inversion failed.  Skipping first   1 fock matrices.
 Coeff:  .108D-08 -.488D-09 -.218D-07 -.749D-07  .215D-06  .155D-07
 Coeff:  .174D-05  .105D-05 -.254D-05 -.132D-03 -.261D-03  .373D-02
 Coeff:  .130D-01 -.106D+00 -.910D+00
 RMSDP=3.80D-10 MaxDP=8.53D-09

 SCF Done:  E(RB+HF-LYP) =  -217.696825784     A.U. after   16 cycles
             Convg  =     .3799D-09             -V/T =  2.0091
             S**2   =    .0000
 KE= 2.157406359770D+02 PE=-7.194198621449D+02 EE= 1.848279158364D+02
 Leave Link  502 at Thu Aug 21 02:09:44 2003, MaxMem=    6291456 cpu:     275.4
 (Enter /usr/spool/scr/aped/g98_A7_install/g98/l601.exe)
 Copying SCF densities to generalized density rwf, ISCF=0 IROHF=0.

 **********************************************************************

            Population analysis using the SCF density.

 **********************************************************************

 Alpha  occ. eigenvalues --  -24.51814 -10.08164  -9.97678  -9.94368   -.99769
 Alpha  occ. eigenvalues --    -.52902   -.51628   -.33623   -.30046   -.30025
 Alpha  occ. eigenvalues --    -.29851   -.22461   -.18660   -.18484   -.15257
 Alpha  occ. eigenvalues --    -.04504    .01765
 Alpha virt. eigenvalues --     .14538    .15640    .17599    .18679    .19264
 Alpha virt. eigenvalues --     .19808    .20646    .23217    .24045    .25926
 Alpha virt. eigenvalues --     .28501    .29518    .29920    .30751    .35919
 Alpha virt. eigenvalues --     .36708    .39272    .40373    .42540    .44415
 Alpha virt. eigenvalues --     .44916    .45273    .49957    .52786    .58259
 Alpha virt. eigenvalues --     .77956    .81473    .83349    .84108    .88539
 Alpha virt. eigenvalues --     .92802    .94477    .98641   1.07972   1.10209
 Alpha virt. eigenvalues --    1.11261   1.16107   1.18204   1.22686   1.26508
 Alpha virt. eigenvalues --    1.32566   1.39067   1.53259   1.59693   1.60263
 Alpha virt. eigenvalues --    1.69098   1.77810   1.79963   1.80299   1.81753
 Alpha virt. eigenvalues --    2.00354   2.00391   2.02337   2.07013   2.12844
 Alpha virt. eigenvalues --    2.15250   2.18927   2.33570   2.37847   2.39191
 Alpha virt. eigenvalues --    2.48653   2.50216   2.50423   2.60436   2.78480
 Alpha virt. eigenvalues --    2.95542   3.22006   4.39424   4.47334   4.52762
 Alpha virt. eigenvalues --    5.33089
          Condensed to atoms (all electrons):
              1          2          3          4          5          6
  1  C    5.552590   -.141297    .415379    .429170    .415730   -.706343
  2  F    -.141297   9.626309   -.048904   -.054597   -.049008    .112747
  3  H     .415379   -.048904    .503193   -.027974   -.029936   -.029650
  4  H     .429170   -.054597   -.027974    .502477   -.027941   -.051646
  5  H     .415730   -.049008   -.029936   -.027941    .503562   -.030544
  6  C    -.706343    .112747   -.029650   -.051646   -.030544   8.189006
  7  C     .220399   -.032322    .005724    .013091    .006276   -.616724
  8  H     .030503   -.000308    .000245    .000641    .000244    .175437
  9  H    -.010294    .000033   -.000036   -.000024   -.000038    .055738
 10  H     .027528   -.000724    .000601    .000186    .000691   -.203138
              7          8          9         10
  1  C     .220399    .030503   -.010294    .027528
  2  F    -.032322   -.000308    .000033   -.000724
  3  H     .005724    .000245   -.000036    .000601
  4  H     .013091    .000641   -.000024    .000186
  5  H     .006276    .000244   -.000038    .000691
  6  C    -.616724    .175437    .055738   -.203138
  7  C    6.023881    .008561    .269488    .466364
  8  H     .008561    .730960   -.023998    .010542
  9  H     .269488   -.023998    .695903   -.079690
 10  H     .466364    .010542   -.079690    .671744
 Total atomic charges:
              1
  1  C    -.233366
  2  F    -.411930
  3  H     .211357
  4  H     .216616
  5  H     .210962
  6  C    -.894883
  7  C    -.364740
  8  H     .067172
  9  H     .092916
 10  H     .105897
 Sum of Mulliken charges=  -1.00000
 Atomic charges with hydrogens summed into heavy atoms:
              1
  1  C     .405568
  2  F    -.411930
  3  H     .000000
  4  H     .000000
  5  H     .000000
  6  C    -.827711
  7  C    -.165927
  8  H     .000000
  9  H     .000000
 10  H     .000000
 Sum of Mulliken charges=  -1.00000
 Electronic spatial extent (au):  <R**2>=   631.5568
 Charge=    -1.0000 electrons
 Dipole moment (Debye):
    X=    -3.2656    Y=     -.8930    Z=      .0279  Tot=     3.3856
 Quadrupole moment (Debye-Ang):
   XX=   -56.6110   YY=   -32.3580   ZZ=   -32.2458
   XY=    -1.5316   XZ=      .0569   YZ=      .0483
 Octapole moment (Debye-Ang**2):
  XXX=   -39.8737  YYY=    -4.8464  ZZZ=      .1742  XYY=   -18.4765
  XXY=     4.4496  XXZ=      .1020  XZZ=   -19.4628  YZZ=    -1.5121
  YYZ=     -.0343  XYZ=      .0664
 Hexadecapole moment (Debye-Ang**3):
 XXXX=  -952.0254 YYYY=  -114.1216 ZZZZ=   -60.8935 XXXY=     8.7324
 XXXZ=      .4241 YYYX=    -2.0970 YYYZ=      .0817 ZZZX=      .0514
 ZZZY=      .1515 XXYY=  -158.3713 XXZZ=  -151.7573 YYZZ=   -29.3946
 XXYZ=      .0805 YYXZ=      .0674 ZZXY=     2.3328
 N-N= 1.011544845476D+02 E-N=-7.194198621487D+02  KE= 2.157406359770D+02
 Leave Link  601 at Thu Aug 21 02:09:45 2003, MaxMem=    6291456 cpu:        .5
 (Enter /usr/spool/scr/aped/g98_A7_install/g98/l701.exe)
 Compute integral first derivatives.
 ... and contract with generalized density number  0.
 Leave Link  701 at Thu Aug 21 02:09:49 2003, MaxMem=    6291456 cpu:       1.7
 (Enter /usr/spool/scr/aped/g98_A7_install/g98/l702.exe)
 L702 exits ... SP integral derivatives will be done elsewhere.
 Leave Link  702 at Thu Aug 21 02:09:49 2003, MaxMem=    6291456 cpu:        .0
 (Enter /usr/spool/scr/aped/g98_A7_install/g98/l703.exe)
 Compute integral first derivatives.
 Integral derivatives from FoFDir, PRISM(SPDF).
 Symmetry not used in FoFDir.
 MinBra= 0 MaxBra= 2 Meth= 1.
 IRaf=       0 NMat=   1 IRICut=       1 DoRegI=T DoRafI=F ISym2E= 0 JSym2E=0.
 Leave Link  703 at Thu Aug 21 02:11:31 2003, MaxMem=    6291456 cpu:      51.1
 (Enter /usr/spool/scr/aped/g98_A7_install/g98/l716.exe)
 Dipole        =-1.28475775D+00-3.51334238D-01 1.09749052D-02
 ***** Axes restored to original set *****
 -------------------------------------------------------------------
 Center     Atomic                   Forces (Hartrees/Bohr)
 Number     Number              X              Y              Z
 -------------------------------------------------------------------
    1          6           -.001652959     .002948510     .005803627
    2          9            .001049548    -.001916486    -.000037457
    3          1            .000010722    -.000003986    -.000012585
    4          1            .000017300    -.000015099    -.000015367
    5          1            .000007551     .000004219    -.000025113
    6          6            .000656920    -.000982345    -.005689956
    7          6           -.000130262    -.000013555     .000016713
    8          1           -.000031800    -.000026937    -.000011002
    9          1            .000032864     .000000143    -.000025404
   10          1            .000040115     .000005536    -.000003455
 -------------------------------------------------------------------
 Cartesian Forces:  Max      .005803627 RMS      .001670135
 ------------------------------------------------------------------------
           Internal Coordinate Forces (Hartree/Bohr or radian)
 Cent Atom N1     Length/X     N2     Alpha/Y      N3      Beta/Z       J
 ------------------------------------------------------------------------
   1  C 
   2  F     1   -.000037(   1)
   3  H     1    .000014(   2)  2    .000018(  11)
   4  H     1   -.000016(   3)  2    .000043(  12)  3    .000010(  20)  0
   5  H     1    .000000(   4)  2    .000054(  13)  3   -.000009(  21)  0
      X     1    .000000(   5)  2   -.006135(  14)  4   -.000005(  22)  0
   6  C     1    .005713(   6)  6   -.006135(  15)  2    .000162(  23)  0
   7  C     7   -.000014(   7)  1    .000055(  16)  6    .000064(  24)  0
   8  H     7    .000002(   8)  1    .000032(  17)  6   -.000068(  25)  0
   9  H     8    .000029(   9)  7    .000016(  18)  9    .000048(  26)  0
  10  H     8    .000008(  10)  7    .000024(  19)  9   -.000068(  27)  0
 ------------------------------------------------------------------------
 Internal  Forces:  Max      .006135300 RMS      .001999798
 Force constants in Cartesian coordinates: 
             1             2             3             4             5
   1   .396233D+01
   2   .174581D+01   .160434D+01
   3  -.105539D-02   .175203D-02   .761801D+00
   4  -.219800D+01  -.114491D+01   .191425D-03   .144079D+01
   5  -.114491D+01  -.651454D+00  -.329772D-03   .749188D+00   .428776D+00
   6   .000000D+00   .000000D+00  -.347304D+00   .000000D+00   .000000D+00
   7  -.324945D+00  -.195638D-03   .687248D-01   .828945D-02  -.285271D-05
   8  -.426700D-03  -.854605D-01  -.490404D-03  -.113654D-04   .244299D-03
   9   .885737D-01  -.630299D-03  -.131023D+00   .267066D-01  -.919073D-05
  10  -.145425D+00   .104627D+00  -.331883D-01   .212594D-02  -.333753D-02
  11   .104612D+00  -.269235D+00   .582277D-01  -.333767D-02   .607684D-02
  12  -.429598D-01   .753680D-01  -.129206D+00  -.132968D-01   .233209D-01
  13  -.147888D+00  -.105263D+00  -.345663D-01   .232592D-02   .351805D-02
  14  -.105017D+00  -.262393D+00  -.593425D-01   .352671D-02   .620316D-02
  15  -.445585D-01  -.764897D-01  -.130967D+00  -.136012D-01  -.229820D-01
  16  -.115758D+01  -.597033D+00  -.106264D-03   .744466D+00   .395541D+00
  17  -.597033D+00  -.351863D+00   .182934D-03   .395541D+00   .210154D+00
  18  -.394408D-02   .688601D-02  -.233007D-01   .000000D+00   .000000D+00
  19   .509432D-02  -.854714D-03   .000000D+00   .000000D+00   .000000D+00
  20  -.835407D-03   .620547D-02   .000000D+00   .000000D+00   .000000D+00
  21   .802198D-02  -.151382D-01   .000000D+00   .000000D+00   .000000D+00
  22   .626677D-02  -.226181D-02   .000000D+00   .000000D+00   .000000D+00
  23  -.228236D-02   .982313D-02   .000000D+00   .000000D+00   .000000D+00
  24  -.407535D-02   .825351D-02   .000000D+00   .000000D+00   .000000D+00
  25   .247579D-02   .130846D-02   .000000D+00   .000000D+00   .000000D+00
  26   .129200D-02   .682822D-03   .000000D+00   .000000D+00   .000000D+00
  27   .374331D-04   .197834D-04   .000000D+00   .000000D+00   .000000D+00
  28  -.233391D-02  -.123348D-02   .000000D+00   .000000D+00   .000000D+00
  29  -.121589D-02  -.642600D-03   .000000D+00   .000000D+00   .000000D+00
  30  -.399850D-04  -.211321D-04   .000000D+00   .000000D+00   .000000D+00
             6             7             8             9            10
   6   .347304D+00
   7   .000000D+00   .329583D+00
   8   .000000D+00   .122293D-03   .623319D-01
   9   .000000D+00  -.736330D-01   .393999D-03   .115210D+00
  10   .000000D+00  -.421899D-02   .288900D-01  -.135925D-01   .129058D+00
  11   .000000D+00  -.158712D-02   .114534D-01  -.511331D-02  -.116510D+00
  12   .000000D+00   .239189D-02  -.146677D-01   .770609D-02   .354601D-01
  13   .000000D+00  -.433980D-02  -.284081D-01  -.139818D-01   .193545D-01
  14   .000000D+00   .166311D-02   .115022D-01   .535814D-02  -.155455D-01
  15   .000000D+00   .251627D-02   .147641D-01   .810680D-02   .113207D-01
  16   .000000D+00  -.436810D-02  -.503255D-03  -.140730D-01  -.602274D-03
  17   .000000D+00   .000000D+00  -.226591D-03   .000000D+00   .201084D-02
  18   .000000D+00   .000000D+00   .000000D+00   .000000D+00   .000000D+00
  19   .000000D+00   .000000D+00  -.432944D-03   .000000D+00   .375388D-03
  20   .000000D+00   .000000D+00  -.228811D-03   .000000D+00   .198393D-03
  21   .000000D+00   .000000D+00   .000000D+00   .000000D+00   .000000D+00
  22   .000000D+00   .000000D+00   .770110D-03   .000000D+00  -.667731D-03
  23   .000000D+00   .000000D+00   .384015D-03   .000000D+00  -.332964D-03
  24   .000000D+00   .000000D+00   .000000D+00   .000000D+00   .000000D+00
  25   .000000D+00   .000000D+00   .000000D+00   .000000D+00   .000000D+00
  26   .000000D+00   .000000D+00   .000000D+00   .000000D+00   .000000D+00
  27   .000000D+00   .000000D+00   .000000D+00   .000000D+00   .000000D+00
  28   .000000D+00   .000000D+00   .000000D+00   .000000D+00   .000000D+00
  29   .000000D+00   .000000D+00   .000000D+00   .000000D+00   .000000D+00
  30   .000000D+00   .000000D+00   .000000D+00   .000000D+00   .000000D+00
            11            12            13            14            15
  11   .266964D+00
  12  -.622035D-01   .113801D+00
  13   .149349D-01   .113962D-01   .131817D+00
  14  -.121232D-01  -.952595D-02   .117206D+00   .259999D+00
  15   .908913D-02   .769888D-02   .371519D-01   .635103D-01   .115161D+00
  16   .205470D-02   .700845D-02  -.155970D-02  -.166185D-02   .717079D-02
  17  -.305939D-02  -.122918D-01  -.212183D-02  -.310925D-02   .121082D-01
  18   .000000D+00   .000000D+00   .000000D+00   .000000D+00   .000000D+00
  19   .214037D-03   .000000D+00  -.372457D-03   .220603D-03   .000000D+00
  20   .113119D-03   .000000D+00  -.196844D-03   .116589D-03   .000000D+00
  21   .000000D+00   .000000D+00   .000000D+00   .000000D+00   .000000D+00
  22  -.380724D-03   .000000D+00   .662519D-03  -.392404D-03   .000000D+00
  23  -.189848D-03   .000000D+00   .330364D-03  -.195672D-03   .000000D+00
  24   .000000D+00   .000000D+00   .000000D+00   .000000D+00   .000000D+00
  25   .000000D+00   .000000D+00   .000000D+00   .000000D+00   .000000D+00
  26   .000000D+00   .000000D+00   .000000D+00   .000000D+00   .000000D+00
  27   .000000D+00   .000000D+00   .000000D+00   .000000D+00   .000000D+00
  28   .000000D+00   .000000D+00   .000000D+00   .000000D+00   .000000D+00
  29   .000000D+00   .000000D+00   .000000D+00   .000000D+00   .000000D+00
  30   .000000D+00   .000000D+00   .000000D+00   .000000D+00   .000000D+00
            16            17            18            19            20
  16   .625812D+00
  17  -.288152D-01   .676124D+00
  18  -.161080D-01   .222765D-01   .438417D+00
  19  -.162308D+00   .166195D+00   .591833D-01   .313712D+00
  20   .165742D+00  -.388670D+00  -.109916D+00  -.282102D+00   .705112D+00
  21   .632524D-01  -.117825D+00  -.212645D+00  -.441878D-01   .698024D-01
  22  -.705337D-01   .521165D-01  -.436569D-01   .850815D-02   .882418D-02
  23   .526462D-01  -.149472D+00   .893133D-01   .830924D-02  -.375108D-02
  24  -.524751D-01   .105725D+00  -.232019D+00   .306495D-02  -.614342D-02
  25   .191812D-01   .461095D-02   .125666D-01  -.711152D-01   .276435D-01
  26   .495888D-02   .129357D-01  -.234557D-01   .277850D-01  -.107887D+00
  27   .151355D-02  -.248098D-02   .746062D-02   .292099D-01  -.486937D-01
  28   .749271D-02   .749595D-02  -.804082D-02  -.938942D-01   .807269D-01
  29   .707122D-02  -.281362D-02   .148962D-01   .806664D-01  -.211010D+00
  30   .381723D-02  -.769559D-02   .220870D-01  -.472703D-01   .949511D-01
            21            22            23            24            25
  21   .685223D+00
  22  -.984082D-02   .561144D-01
  23   .185158D-01  -.584879D-01   .143500D+00
  24   .176533D-01   .534915D-01  -.107832D+00   .214365D+00
  25   .338492D-01  -.611414D-02  -.318590D-02  -.103317D-03   .428059D-01
  26  -.578153D-01  -.319068D-02  -.166257D-02  -.539162D-04  -.259714D-01
  27  -.306253D+00  -.924436D-04  -.481696D-04  -.156212D-05  -.336560D-01
  28  -.510950D-01   .576377D-02   .300333D-02   .973964D-04   .127664D-01
  29   .102461D+00   .300273D-02   .156463D-02   .507403D-04  -.440555D-02
  30  -.183978D+00   .987458D-04   .514535D-04   .166861D-05  -.126565D-01
            26            27            28            29            30
  26   .770048D-01
  27   .564115D-01   .306620D+00
  28  -.487375D-02   .298754D-02   .702052D-01
  29   .189267D-01  -.520843D-02  -.851189D-01   .193975D+00
  30   .249134D-01  -.782648D-02   .560509D-01  -.112199D+00   .169716D+00
 Force constants in internal coordinates: 
             1             2             3             4             5
   1   .347304D+00
   2   .000000D+00   .352438D+00
   3   .000000D+00   .000000D+00   .354679D+00
   4   .000000D+00   .000000D+00   .000000D+00   .352320D+00
   5   .000000D+00   .000000D+00   .000000D+00   .000000D+00   .000000D+00
   6   .000000D+00   .000000D+00   .000000D+00   .000000D+00   .000000D+00
   7   .000000D+00   .000000D+00   .000000D+00   .000000D+00   .000000D+00
   8   .000000D+00   .000000D+00   .000000D+00   .000000D+00   .000000D+00
   9   .000000D+00   .000000D+00   .000000D+00   .000000D+00   .000000D+00
  10   .000000D+00   .000000D+00   .000000D+00   .000000D+00   .000000D+00
  11   .000000D+00   .000000D+00   .000000D+00   .000000D+00   .000000D+00
  12   .000000D+00   .000000D+00   .000000D+00   .000000D+00   .000000D+00
  13   .000000D+00   .000000D+00   .000000D+00   .000000D+00   .000000D+00
  14   .000000D+00   .000000D+00   .000000D+00   .000000D+00   .000000D+00
  15   .000000D+00   .000000D+00   .000000D+00   .000000D+00   .000000D+00
  16   .000000D+00   .000000D+00   .000000D+00   .000000D+00   .000000D+00
  17   .000000D+00   .000000D+00   .000000D+00   .000000D+00   .000000D+00
  18   .000000D+00   .000000D+00   .000000D+00   .000000D+00   .000000D+00
  19   .000000D+00   .000000D+00   .000000D+00   .000000D+00   .000000D+00
  20   .000000D+00   .000000D+00   .000000D+00   .000000D+00   .000000D+00
  21   .000000D+00   .000000D+00   .000000D+00   .000000D+00   .000000D+00
  22   .000000D+00   .000000D+00   .000000D+00   .000000D+00   .000000D+00
  23   .000000D+00   .000000D+00   .000000D+00   .000000D+00   .000000D+00
  24   .000000D+00   .000000D+00   .000000D+00   .000000D+00   .000000D+00
  25   .000000D+00   .000000D+00   .000000D+00   .000000D+00   .000000D+00
  26   .000000D+00   .000000D+00   .000000D+00   .000000D+00   .000000D+00
  27   .000000D+00   .000000D+00   .000000D+00   .000000D+00   .000000D+00
             6             7             8             9            10
   6   .233007D-01
   7   .000000D+00   .529071D+00
   8   .000000D+00   .000000D+00   .315739D+00
   9   .000000D+00   .000000D+00   .000000D+00   .325049D+00
  10   .000000D+00   .000000D+00   .000000D+00   .000000D+00   .333416D+00
  11   .000000D+00   .000000D+00   .000000D+00   .000000D+00   .000000D+00
  12   .000000D+00   .000000D+00   .000000D+00   .000000D+00   .000000D+00
  13   .000000D+00   .000000D+00   .000000D+00   .000000D+00   .000000D+00
  14   .000000D+00   .000000D+00   .000000D+00   .000000D+00   .000000D+00
  15   .000000D+00   .000000D+00   .000000D+00   .000000D+00   .000000D+00
  16   .000000D+00   .000000D+00   .000000D+00   .000000D+00   .000000D+00
  17   .000000D+00   .000000D+00   .000000D+00   .000000D+00   .000000D+00
  18   .000000D+00   .000000D+00   .000000D+00   .000000D+00   .000000D+00
  19   .000000D+00   .000000D+00   .000000D+00   .000000D+00   .000000D+00
  20   .000000D+00   .000000D+00   .000000D+00   .000000D+00   .000000D+00
  21   .000000D+00   .000000D+00   .000000D+00   .000000D+00   .000000D+00
  22   .000000D+00   .000000D+00   .000000D+00   .000000D+00   .000000D+00
  23   .000000D+00   .000000D+00   .000000D+00   .000000D+00   .000000D+00
  24   .000000D+00   .000000D+00   .000000D+00   .000000D+00   .000000D+00
  25   .000000D+00   .000000D+00   .000000D+00   .000000D+00   .000000D+00
  26   .000000D+00   .000000D+00   .000000D+00   .000000D+00   .000000D+00
  27   .000000D+00   .000000D+00   .000000D+00   .000000D+00   .000000D+00
            11            12            13            14            15
  11   .389187D+00
  12   .354103D-01   .388511D+00
  13   .374554D-01   .353790D-01   .389171D+00
  14  -.792837D-01   .160055D+00  -.792370D-01   .253074D+00
  15  -.792837D-01   .160055D+00  -.792370D-01   .253074D+00   .253074D+00
  16   .000000D+00   .000000D+00   .000000D+00   .165941D-05   .165941D-05
  17   .000000D+00   .000000D+00   .000000D+00   .365072D-05   .365072D-05
  18   .000000D+00   .000000D+00   .000000D+00   .000000D+00   .000000D+00
  19   .000000D+00   .000000D+00   .000000D+00   .000000D+00   .000000D+00
  20   .605473D-01   .245605D-04  -.605323D-01   .875128D-04   .875128D-04
  21  -.622097D-01   .614522D-01  -.168510D-02   .860992D-04   .860992D-04
  22   .000000D+00   .000000D+00   .000000D+00   .863796D-04   .863796D-04
  23  -.139036D+00   .000000D+00   .139063D+00   .420692D+00   .420692D+00
  24   .000000D+00   .000000D+00   .000000D+00   .257113D-03   .257113D-03
  25   .000000D+00   .000000D+00   .000000D+00  -.170734D-03  -.170734D-03
  26   .000000D+00   .000000D+00   .000000D+00  -.565040D-04  -.565040D-04
  27   .000000D+00   .000000D+00   .000000D+00   .603830D-04   .603830D-04
            16            17            18            19            20
  16   .409962D+00
  17   .159947D+00   .319954D+00
  18   .000000D+00   .000000D+00   .320000D+00
  19   .000000D+00   .000000D+00   .160000D+00   .320000D+00
  20   .837074D-04   .172352D-03  -.569119D-05  -.503462D-05   .250742D+00
  21   .000000D+00   .000000D+00   .000000D+00   .000000D+00  -.123126D+00
  22   .837074D-04   .172352D-03  -.569119D-05  -.503462D-05   .137057D-01
  23   .324781D-04   .801490D-04   .000000D+00   .000000D+00   .165895D-02
  24  -.195349D-02  -.943901D-03  -.407486D-05  -.360476D-05   .172228D-01
  25   .203719D-02   .111625D-02  -.161633D-05  -.142986D-05  -.351716D-02
  26  -.198151D-03  -.594237D-03  -.191497D-03  -.195489D-03  -.473324D-02
  27  -.851319D-04  -.694679D-03   .189122D-03   .193387D-03   .505818D-02
            21            22            23            24            25
  21   .239615D+00
  22  -.460000D-02   .183057D-01
  23  -.323000D-04   .164673D-02   .143451D+02
  24  -.230000D-02   .195228D-01   .532060D-02   .706130D-01
  25  -.230000D-02  -.121716D-02  -.367387D-02  -.510902D-01   .498730D-01
  26   .000000D+00  -.473324D-02   .281186D-03  -.211851D-01   .164519D-01
  27   .000000D+00   .505818D-02  -.300489D-03  -.141745D-01   .192327D-01
            26            27
  26   .810807D-01
  27  -.307514D-01   .851672D-01
 Leave Link  716 at Thu Aug 21 02:11:32 2003, MaxMem=    6291456 cpu:        .0
 (Enter /usr/spool/scr/aped/g98_A7_install/g98/l103.exe)

 GradGradGradGradGradGradGradGradGradGradGradGradGradGradGradGradGradGrad
 Berny optimization.
 Search for a local minimum.
 Step number   1 out of a maximum of  99
 All quantities printed in internal units (Hartrees-Bohrs-Radians)
 Second derivative matrix not updated -- first step.
     Eigenvalues ---     .00727    .02330    .03585    .10196    .11510
     Eigenvalues ---     .13187    .16000    .19881    .25519    .31574
     Eigenvalues ---     .32505    .33342    .34730    .35232    .35244
     Eigenvalues ---     .35468    .36898    .46089    .46681    .48000
     Eigenvalues ---     .52907    .53114
 RFO step:  Lambda=-1.32558415D-03.
 Linear search not attempted -- first point.
 Variable       Old X    -DE/DX   Delta X   Delta X   Delta X     New X
                                 (Linear)    (Quad)   (Total)
    R1        2.79415   -.00004    .00000   -.00011   -.00011   2.79404
    R2        2.05281    .00001    .00000    .00004    .00004   2.05285
    R3        2.04922   -.00002    .00000   -.00005   -.00005   2.04917
    R4        2.05300    .00000    .00000    .00000    .00000   2.05300
    R7        5.29123    .00571    .00000    .23199    .23199   5.52322
    R8        2.57041   -.00001    .00000   -.00003   -.00003   2.57038
    R9        2.11630    .00000    .00000    .00001    .00001   2.11631
   R11        2.09930    .00003    .00000    .00009    .00009   2.09939
   R12        2.08456    .00001    .00000    .00002    .00002   2.08458
    A1        1.87176    .00002    .00000    .00001    .00001   1.87177
    A2        1.85973    .00004    .00000    .00011    .00011   1.85983
    A3        1.87163    .00005    .00000    .00013    .00013   1.87176
    A8        1.94161    .00005    .00000    .00012    .00012   1.94174
    A9        2.44165    .00003    .00000    .00004    .00004   2.44170
   A11        2.21486    .00002    .00000    .00002    .00002   2.21487
   A12        2.11689    .00002    .00000    .00007    .00007   2.11695
    D1       -2.08900    .00001    .00000    .00004    .00004  -2.08895
    D2        2.10553   -.00001    .00000   -.00005   -.00005   2.10548
    D8         .03201    .00006    .00000   -.00002   -.00002    .03199
    D9        3.19723   -.00007    .00000   -.00159   -.00159   3.19564
   D11        -.00170    .00005    .00000    .00085    .00085   -.00084
   D12        3.14182   -.00007    .00000   -.00013   -.00013   3.14168
         Item               Value     Threshold  Converged?
 Maximum Force             .005713      .000450     NO 
 RMS     Force             .001219      .000300     NO 
 Maximum Displacement      .231992      .001800     NO 
 RMS     Displacement      .049462      .001200     NO 
 Predicted change in Energy=-6.271179D-04
 GradGradGradGradGradGradGradGradGradGradGradGradGradGradGradGradGradGrad

 Leave Link  103 at Thu Aug 21 02:11:34 2003, MaxMem=    6291456 cpu:        .2
 (Enter /usr/spool/scr/aped/g98_A7_install/g98/l202.exe)
 ------------------------------------------------------------------------
                         Z-MATRIX (ANGSTROMS AND DEGREES)
 CD Cent Atom  N1     Length/X     N2    Alpha/Y     N3     Beta/Z      J
 ------------------------------------------------------------------------
   1   1  C 
   2   2  F     1   1.478543(  1)
   3   3  H     1   1.086321(  2)   2  107.244( 11)
   4   4  H     1   1.084376(  3)   2  106.561( 12)   3 -119.688( 20)   0
   5   5  H     1   1.086400(  4)   2  107.244( 13)   3  120.635( 21)   0
   6      X     1   1.000000(  5)   2   90.000( 14)   4  180.000( 22)   0
   7   6  C     1   2.922765(  6)   6   90.000( 15)   2  180.000( 23)   0
   8   7  C     7   1.360186(  7)   1  111.253( 16)   6    1.833( 24)   0
   9   8  H     7   1.119903(  8)   1  139.899( 17)   6  183.097( 25)   0
  10   9  H     8   1.110947(  9)   7  126.903( 18)   9    -.048( 26)   0
  11  10  H     8   1.103113( 10)   7  121.292( 19)   9  180.005( 27)   0
 ------------------------------------------------------------------------
                         Z-Matrix orientation:                         
 ---------------------------------------------------------------------
 Center     Atomic     Atomic              Coordinates (Angstroms)
 Number     Number      Type              X           Y           Z
 ---------------------------------------------------------------------
    1          6             0         .000000     .000000     .000000
    2          9             0         .000000     .000000    1.478543
    3          1             0        1.037490     .000000    -.322036
    4          1             0        -.514791     .902957    -.309079
    5          1             0        -.528709    -.892756    -.322054
    6         -1             0         .495280    -.868733     .000000
    7          6             0         .000000     .000000   -2.922765
    8          6             0         .592310   -1.120790   -3.415821
    9          1             0        -.322906     .645065   -3.779390
   10          1             0         .743476   -1.379895   -4.485502
   11          1             0         .988868   -1.901633   -2.745087
 ---------------------------------------------------------------------
                    Distance matrix (angstroms):
                    1          2          3          4          5
     1  C     .000000
     2  F    1.478543    .000000
     3  H    1.086321   2.078093    .000000
     4  H    1.084376   2.067833   1.795849    .000000
     5  H    1.086400   2.078147   1.802774   1.795814    .000000
     6  X    1.000000   1.784962   1.073498   2.062682   1.073708
     7  C    2.922765   4.401308   2.800031   2.812773   2.800044
     8  C    3.643465   5.055868   3.320521   3.869505   3.298497
     9  H    3.847618   5.307187   3.770952   3.485166   3.789515
    10  H    4.751483   6.166579   4.396021   4.923124   4.380646
    11  H    3.482754   4.736362   3.080544   4.007599   3.031825
                    6          7          8          9         10
     6  X     .000000
     7  C    3.089103    .000000
     8  C    3.426482   1.360186    .000000
     9  H    4.152686   1.119903   2.021892    .000000
    10  H    4.521351   2.213371   1.110947   2.395042    .000000
    11  H    2.974225   2.150730   1.103113   3.045687   1.833431
                   11
    11  H     .000000
                           Interatomic angles:
       F2-C1-H3=107.2443       F2-C1-H4=106.5606       H3-C1-H4=111.6477
       F2-C1-H5=107.244        H3-C1-H5=112.1422       H4-C1-H5=111.6382
       F2-C1-X6= 90.           H3-C1-X6= 61.7697       H4-C1-X6=163.4394
       H5-C1-X6= 61.7803       F2-C1-C7=180.           H3-C1-C7= 72.7557
       H4-C1-C7= 73.4394       H5-C1-C7= 72.756        X6-C1-C7= 90.    
       C1-C7-C8=111.2533       C1-C7-H9=139.899        C8-C7-H9=108.8389
      C7-C8-H10=126.9029      C7-C8-H11=121.2924     H10-C8-H11=111.8047
 Stoichiometry    C3H6F(1-)
 Framework group  C1[X(C3H6F)]
 Deg. of freedom   24
 Full point group                 C1      NOp   1
 Largest Abelian subgroup         C1      NOp   1
 Largest concise Abelian subgroup C1      NOp   1
                         Standard orientation:                         
 ---------------------------------------------------------------------
 Center     Atomic     Atomic              Coordinates (Angstroms)
 Number     Number      Type              X           Y           Z
 ---------------------------------------------------------------------
    1          6             0       -1.151615     .112401    -.000430
    2          9             0       -2.605318    -.157476     .001245
    3          1             0        -.746148    -.301658     .918398
    4          1             0       -1.037367    1.190081    -.038148
    5          1             0        -.736333    -.365614    -.883214
    6          6             0        1.722047     .645890    -.003740
    7          6             0        2.438211    -.510482     .000735
    8          1             0        2.432646    1.511388     .008336
    9          1             0        3.544633    -.609858     .013298
   10          1             0        1.938575   -1.493906    -.009262
 ---------------------------------------------------------------------
 Rotational constants (GHZ):     29.8159500      1.8243044      1.7384949
 Isotopes: C-12,F-19,H-1,H-1,H-1,C-12,C-12,H-1,H-1,H-1
 Leave Link  202 at Thu Aug 21 02:11:35 2003, MaxMem=    6291456 cpu:        .1
 (Enter /usr/spool/scr/aped/g98_A7_install/g98/l301.exe)
 Standard basis: 6-31+G(d) (6D, 7F)
 There are    88 symmetry adapted basis functions of A   symmetry.
 Crude estimate of integral set expansion from redundant integrals=1.000.
 Integral buffers will be    262144 words long.
 Raffenetti 2 integral format.
 Two-electron integral symmetry is turned on.
    88 basis functions      152 primitive gaussians
    17 alpha electrons       17 beta electrons
       nuclear repulsion energy        99.9775185291 Hartrees.
 Leave Link  301 at Thu Aug 21 02:11:35 2003, MaxMem=    6291456 cpu:        .2
 (Enter /usr/spool/scr/aped/g98_A7_install/g98/l302.exe)
 One-electron integrals computed using PRISM.
 NBasis=    88 RedAO= T  NBF=    88
 NBsUse=    88 1.00D-04 NBFU=    88
 Leave Link  302 at Thu Aug 21 02:11:38 2003, MaxMem=    6291456 cpu:       1.4
 (Enter /usr/spool/scr/aped/g98_A7_install/g98/l303.exe)
 DipDrv:  MaxL=1.
 Leave Link  303 at Thu Aug 21 02:11:39 2003, MaxMem=    6291456 cpu:        .4
 (Enter /usr/spool/scr/aped/g98_A7_install/g98/l401.exe)
 Initial guess read from the read-write file:
 Guess basis functions will be translated to current atomic coordinates.
 Leave Link  401 at Thu Aug 21 02:11:40 2003, MaxMem=    6291456 cpu:        .1
 (Enter /usr/spool/scr/aped/g98_A7_install/g98/l502.exe)
 IExCor= 402 DFT=T Ex=B+HF Corr=LYP ScaHFX=  .2000
 ScaDFX=   .8000   .7200  1.0000   .8100
 IRadAn=      0 IRanWt=     -1 IRanGd=            0 ICorTp=0
 Using DIIS extrapolation.
 Closed shell SCF:
 Requested convergence on RMS density matrix=1.00D-08 within  64 cycles.
 Requested convergence on MAX density matrix=1.00D-06.
 Integral symmetry usage will be decided dynamically.
 IEnd=     30258 IEndB=     30258 NGot=   6291456 MDV=   6273255
 LenX=   6273255
 Fock matrices will be formed incrementally for  20 cycles.

 Cycle   1  Pass 1  IDiag 1:
 Petite list used in FoFDir.
 MinBra= 0 MaxBra= 2 Meth= 1.
 IRaf=       0 NMat=   1 IRICut=       1 DoRegI=T DoRafI=F ISym2E= 1 JSym2E=1.
 E= -.317674964478136D+03
 DIIS: error= 1.15D-03 at cycle   1.
 RMSDP=1.26D-03 MaxDP=3.44D-02

 Cycle   2  Pass 1  IDiag 1:
 RMSU=  1.17D-03    CP:  9.87D-01
 E= -.317675220766515D+03 Delta-E=        -.000256288379
 DIIS: error= 1.00D-03 at cycle   2.
 Coeff: -.365D+00 -.635D+00
 RMSDP=3.31D-04 MaxDP=1.07D-02

 Cycle   3  Pass 1  IDiag 1:
 RMSU=  2.74D-04    CP:  9.91D-01  8.79D-01
 E= -.317675247309590D+03 Delta-E=        -.000026543076
 DIIS: error= 8.61D-04 at cycle   3.
 Coeff: -.177D-01 -.445D+00 -.538D+00
 RMSDP=3.27D-04 MaxDP=1.28D-02

 Cycle   4  Pass 1  IDiag 1:
 RMSU=  1.35D-04    CP:  9.87D-01  1.07D+00  5.68D-01
 E= -.317675282091806D+03 Delta-E=        -.000034782216
 DIIS: error= 1.94D-04 at cycle   4.
 Coeff:  .182D-01 -.197D+00 -.279D+00 -.543D+00
 RMSDP=5.79D-05 MaxDP=2.03D-03

 Cycle   5  Pass 1  IDiag 1:
 RMSU=  2.50D-05    CP:  9.86D-01  1.10D+00  5.57D-01  1.22D+00
 E= -.317675283867767D+03 Delta-E=        -.000001775961
 DIIS: error= 6.58D-05 at cycle   5.
 Coeff:  .946D-02 -.472D-01 -.675D-01 -.261D+00 -.634D+00
 RMSDP=3.90D-05 MaxDP=1.49D-03

 Cycle   6  Pass 1  IDiag 1:
 RMSU=  8.18D-06    CP:  9.85D-01  1.12D+00  5.32D-01  1.41D+00  1.11D+00
 E= -.317675284048350D+03 Delta-E=        -.000000180583
 DIIS: error= 2.35D-05 at cycle   6.
 Coeff:  .194D-02 -.508D-03  .315D-03 -.744D-01 -.325D+00 -.602D+00
 RMSDP=1.61D-05 MaxDP=5.95D-04

 Cycle   7  Pass 1  IDiag 1:
 RMSU=  2.70D-06    CP:  9.85D-01  1.13D+00  5.23D-01  1.48D+00  1.25D+00
                    CP:  1.21D+00
 E= -.317675284069072D+03 Delta-E=        -.000000020723
 DIIS: error= 8.12D-06 at cycle   7.
 Coeff: -.264D-03  .664D-02  .990D-02  .762D-02 -.379D-01 -.292D+00
 Coeff: -.694D+00
 RMSDP=9.77D-06 MaxDP=3.78D-04

 Cycle   8  Pass 1  IDiag 1:
 RMSU=  7.51D-07    CP:  9.85D-01  1.13D+00  5.16D-01  1.53D+00  1.32D+00
                    CP:  1.35D+00  1.16D+00
 E= -.317675284071442D+03 Delta-E=        -.000000002369
 DIIS: error= 1.92D-06 at cycle   8.
 Coeff: -.275D-03  .376D-02  .548D-02  .855D-02 -.469D-03 -.128D+00
 Coeff: -.350D+00 -.539D+00
 RMSDP=1.74D-06 MaxDP=6.31D-05

 Cycle   9  Pass 1  IDiag 1:
 RMSU=  1.99D-07    CP:  9.85D-01  1.14D+00  5.15D-01  1.54D+00  1.33D+00
                    CP:  1.40D+00  1.18D+00  1.15D+00
 E= -.317675284071722D+03 Delta-E=        -.000000000280
 DIIS: error= 7.40D-07 at cycle   9.
 Coeff: -.719D-04  .480D-03  .723D-03  .219D-02  .578D-02 -.119D-01
 Coeff: -.276D-01 -.231D+00 -.739D+00
 RMSDP=1.18D-06 MaxDP=4.61D-05

 Cycle  10  Pass 1  IDiag 1:
 RMSU=  6.80D-08    CP:  9.85D-01  1.14D+00  5.14D-01  1.55D+00  1.34D+00
                    CP:  1.43D+00  1.22D+00  1.29D+00  1.14D+00
 E= -.317675284071739D+03 Delta-E=        -.000000000017
 DIIS: error= 5.72D-08 at cycle  10.
 Coeff:  .133D-05 -.114D-03 -.145D-03  .162D-05  .124D-02  .529D-02
 Coeff:  .117D-01 -.181D-01 -.147D+00 -.853D+00
 RMSDP=2.79D-07 MaxDP=1.07D-05

 Cycle  11  Pass 1  IDiag 1:
 RMSU=  1.84D-08    CP:  9.85D-01  1.14D+00  5.14D-01  1.55D+00  1.35D+00
                    CP:  1.44D+00  1.23D+00  1.34D+00  1.22D+00  1.02D+00
 E= -.317675284071757D+03 Delta-E=        -.000000000018
 DIIS: error= 1.66D-08 at cycle  11.
 Coeff:  .289D-05 -.396D-04 -.491D-04 -.918D-04 -.602D-05  .156D-02
 Coeff:  .217D-02  .649D-02  .677D-02 -.157D+00 -.860D+00
 RMSDP=5.49D-08 MaxDP=2.12D-06

 Cycle  12  Pass 1  IDiag 1:
 RMSU=  2.23D-09    CP:  9.85D-01  1.14D+00  5.14D-01  1.55D+00  1.35D+00
                    CP:  1.44D+00  1.23D+00  1.35D+00  1.24D+00  1.09D+00
                    CP:  1.10D+00
 E= -.317675284071809D+03 Delta-E=        -.000000000052
 DIIS: error= 1.64D-09 at cycle  12.
 Coeff:  .394D-06 -.223D-05 -.349D-05 -.131D-04 -.445D-04  .763D-05
 Coeff: -.136D-03  .156D-02  .615D-02  .159D-01 -.780D-01 -.945D+00
 RMSDP=9.65D-09 MaxDP=3.73D-07

 SCF Done:  E(RB+HF-LYP) =  -217.697765543     A.U. after   12 cycles
             Convg  =     .9647D-08             -V/T =  2.0092
             S**2   =    .0000
 KE= 2.157174902375D+02 PE=-7.169489624004D+02 EE= 1.835561880910D+02
 Leave Link  502 at Thu Aug 21 02:17:53 2003, MaxMem=    6291456 cpu:     194.3
 (Enter /usr/spool/scr/aped/g98_A7_install/g98/l701.exe)
 Compute integral first derivatives.
 ... and contract with generalized density number  0.
 Leave Link  701 at Thu Aug 21 02:17:57 2003, MaxMem=    6291456 cpu:       1.7
 (Enter /usr/spool/scr/aped/g98_A7_install/g98/l702.exe)
 L702 exits ... SP integral derivatives will be done elsewhere.
 Leave Link  702 at Thu Aug 21 02:17:57 2003, MaxMem=    6291456 cpu:        .0
 (Enter /usr/spool/scr/aped/g98_A7_install/g98/l703.exe)
 Compute integral first derivatives.
 Integral derivatives from FoFDir, PRISM(SPDF).
 Symmetry not used in FoFDir.
 MinBra= 0 MaxBra= 2 Meth= 1.
 IRaf=       0 NMat=   1 IRICut=       1 DoRegI=T DoRafI=F ISym2E= 0 JSym2E=0.
 Leave Link  703 at Thu Aug 21 02:19:37 2003, MaxMem=    6291456 cpu:      50.0
 (Enter /usr/spool/scr/aped/g98_A7_install/g98/l716.exe)
 ***** Axes restored to original set *****
 -------------------------------------------------------------------
 Center     Atomic                   Forces (Hartrees/Bohr)
 Number     Number              X              Y              Z
 -------------------------------------------------------------------
    1          6           -.001376402     .002477691     .008658544
    2          9            .000940113    -.001721397    -.003843385
    3          1            .000107037    -.000038971    -.000626639
    4          1           -.000102430     .000183967    -.000994827
    5          1           -.000018205    -.000099596    -.000620575
    6          6            .000354076    -.000479776    -.002870288
    7          6            .000189501    -.000515165     .000507001
    8          1           -.000007621    -.000049267     .000213246
    9          1           -.000041323     .000093183    -.000162568
   10          1           -.000044747     .000149332    -.000260509
 -------------------------------------------------------------------
 Cartesian Forces:  Max      .008658544 RMS      .001938959
 ------------------------------------------------------------------------
           Internal Coordinate Forces (Hartree/Bohr or radian)
 Cent Atom N1     Length/X     N2     Alpha/Y      N3      Beta/Z       J
 ------------------------------------------------------------------------
   1  C 
   2  F     1   -.003843(   1)
   3  H     1    .000288(   2)  2    .001163(  11)
   4  H     1    .000485(   3)  2    .001831(  12)  3   -.000001(  20)  0
   5  H     1    .000275(   4)  2    .001159(  13)  3   -.000069(  21)  0
      X     1    .000000(   5)  2   -.004784(  14)  4   -.000006(  22)  0
   6  C     1    .002573(   6)  6   -.004784(  15)  2    .000121(  23)  0
   7  C     7    .000239(   7)  1    .000064(  16)  6    .000060(  24)  0
   8  H     7   -.000189(   8)  1   -.000224(  17)  6   -.000066(  25)  0
   9  H     8    .000129(   9)  7   -.000298(  18)  9    .000007(  26)  0
  10  H     8   -.000280(  10)  7    .000238(  19)  9   -.000046(  27)  0
 ------------------------------------------------------------------------
 Internal  Forces:  Max      .004784378 RMS      .001655897
 Leave Link  716 at Thu Aug 21 02:19:38 2003, MaxMem=    6291456 cpu:        .0
 (Enter /usr/spool/scr/aped/g98_A7_install/g98/l103.exe)

 GradGradGradGradGradGradGradGradGradGradGradGradGradGradGradGradGradGrad
 Berny optimization.
 Search for a local minimum.
 Step number   2 out of a maximum of  99
 All quantities printed in internal units (Hartrees-Bohrs-Radians)
 Update second derivatives using information from points  1  2
 Trust test= 1.50D+00 RLast= 2.32D-01 DXMaxT set to 4.24D-01
     Eigenvalues ---     .00727    .01325    .03585    .10196    .11510
     Eigenvalues ---     .13187    .16000    .19881    .25519    .31574
     Eigenvalues ---     .32505    .33342    .34750    .35232    .35244
     Eigenvalues ---     .35468    .36898    .46094    .46681    .48000
     Eigenvalues ---     .52907    .53114
 RFO step:  Lambda=-3.14703957D-04.
 Quartic linear search produced a step of  1.30795.
 Variable       Old X    -DE/DX   Delta X   Delta X   Delta X     New X
                                 (Linear)    (Quad)   (Total)
    R1        2.79404   -.00384   -.00014   -.02588   -.02602   2.76802
    R2        2.05285    .00029    .00005    .00187    .00192   2.05477
    R3        2.04917    .00049   -.00006    .00328    .00322   2.05239
    R4        2.05300    .00027    .00000    .00183    .00183   2.05483
    R7        5.52322    .00257    .30343    .02084    .32427   5.84749
    R8        2.57038    .00024   -.00003    .00110    .00106   2.57144
    R9        2.11631   -.00019    .00001   -.00142   -.00141   2.11490
   R11        2.09939    .00013    .00012    .00082    .00094   2.10032
   R12        2.08458   -.00028    .00003   -.00201   -.00197   2.08261
    A1        1.87177    .00116    .00001    .00532    .00534   1.87710
    A2        1.85983    .00183    .00014    .01040    .01054   1.87037
    A3        1.87176    .00116    .00018    .00514    .00532   1.87708
    A8        1.94174    .00006    .00016    .00111    .00127   1.94301
    A9        2.44170   -.00022    .00006   -.00232   -.00226   2.43943
   A11        2.21487   -.00030    .00002   -.00410   -.00408   2.21080
   A12        2.11695    .00024    .00009    .00370    .00378   2.12074
    D1       -2.08895    .00000    .00006   -.00138   -.00132  -2.09027
    D2        2.10548   -.00007   -.00007   -.00262   -.00269   2.10279
    D8         .03199    .00006   -.00003   -.00089   -.00092    .03107
    D9        3.19564   -.00007   -.00208   -.00269   -.00477   3.19087
   D11        -.00084    .00001    .00111   -.00018    .00093    .00009
   D12        3.14168   -.00005   -.00018    .00022    .00005   3.14173
         Item               Value     Threshold  Converged?
 Maximum Force             .003843      .000450     NO 
 RMS     Force             .001133      .000300     NO 
 Maximum Displacement      .324269      .001800     NO 
 RMS     Displacement      .069443      .001200     NO 
 Predicted change in Energy=-7.776424D-04
 GradGradGradGradGradGradGradGradGradGradGradGradGradGradGradGradGradGrad

 Leave Link  103 at Thu Aug 21 02:19:38 2003, MaxMem=    6291456 cpu:        .1
 (Enter /usr/spool/scr/aped/g98_A7_install/g98/l202.exe)
 ------------------------------------------------------------------------
                         Z-MATRIX (ANGSTROMS AND DEGREES)
 CD Cent Atom  N1     Length/X     N2    Alpha/Y     N3     Beta/Z      J
 ------------------------------------------------------------------------
   1   1  C 
   2   2  F     1   1.464776(  1)
   3   3  H     1   1.087338(  2)   2  107.550( 11)
   4   4  H     1   1.086078(  3)   2  107.164( 12)   3 -119.764( 20)   0
   5   5  H     1   1.087370(  4)   2  107.549( 13)   3  120.481( 21)   0
   6      X     1   1.000000(  5)   2   90.000( 14)   4  180.000( 22)   0
   7   6  C     1   3.094361(  6)   6   90.000( 15)   2  180.000( 23)   0
   8   7  C     7   1.360749(  7)   1  111.326( 16)   6    1.780( 24)   0
   9   8  H     7   1.119158(  8)   1  139.769( 17)   6  182.824( 25)   0
  10   9  H     8   1.111442(  9)   7  126.669( 18)   9     .005( 26)   0
  11  10  H     8   1.102068( 10)   7  121.509( 19)   9  180.008( 27)   0
 ------------------------------------------------------------------------
                         Z-Matrix orientation:                         
 ---------------------------------------------------------------------
 Center     Atomic     Atomic              Coordinates (Angstroms)
 Number     Number      Type              X           Y           Z
 ---------------------------------------------------------------------
    1          6             0         .000000     .000000     .000000
    2          9             0         .000000     .000000    1.464776
    3          1             0        1.036727     .000000    -.327874
    4          1             0        -.515145     .900810    -.320516
    5          1             0        -.525902    -.893482    -.327858
    6         -1             0         .496427    -.868079     .000000
    7          6             0         .000000     .000000   -3.094361
    8          6             0         .594767   -1.119369   -3.589236
    9          1             0        -.327487     .644386   -3.948780
   10          1             0         .742624   -1.373855   -4.661001
   11          1             0         .996417   -1.900446   -2.923541
 ---------------------------------------------------------------------
                    Distance matrix (angstroms):
                    1          2          3          4          5
     1  C     .000000
     2  F    1.464776    .000000
     3  H    1.087338   2.070844    .000000
     4  H    1.086078   2.064970   1.794385    .000000
     5  H    1.087370   2.070850   1.800033   1.794340    .000000
     6  X    1.000000   1.773575   1.073772   2.062759   1.073914
     7  C    3.094361   4.559136   2.954361   2.961595   2.954390
     8  C    3.806488   5.210544   3.476320   3.999695   3.455939
     9  H    4.014393   5.461600   3.922662   3.642152   3.938970
    10  H    4.915679   6.321717   4.555213   5.059238   4.540489
    11  H    3.626518   4.884861   3.217267   4.111884   3.173169
                    6          7          8          9         10
     6  X     .000000
     7  C    3.251933    .000000
     8  C    3.599366   1.360749    .000000
     9  H    4.308045   1.119158   2.022537    .000000
    10  H    4.694822   2.212087   1.111442   2.392841    .000000
    11  H    3.140520   2.152608   1.102068   3.046310   1.833160
                   11
    11  H     .000000
                           Interatomic angles:
       F2-C1-H3=107.55         F2-C1-H4=107.1644       H3-C1-H4=111.3   
       F2-C1-H5=107.5486       H3-C1-H5=111.7289       H4-C1-H5=111.2932
       F2-C1-X6= 90.           H3-C1-X6= 61.75         H4-C1-X6=162.8356
       H5-C1-X6= 61.7579       F2-C1-C7=180.           H3-C1-C7= 72.45  
       H4-C1-C7= 72.8356       H5-C1-C7= 72.4514       X6-C1-C7= 90.    
       C1-C7-C8=111.3263       C1-C7-H9=139.7692       C8-C7-H9=108.8984
      C7-C8-H10=126.6693      C7-C8-H11=121.5092     H10-C8-H11=111.8215
 Stoichiometry    C3H6F(1-)
 Framework group  C1[X(C3H6F)]
 Deg. of freedom   24
 Full point group                 C1      NOp   1
 Largest Abelian subgroup         C1      NOp   1
 Largest concise Abelian subgroup C1      NOp   1
                         Standard orientation:                         
 ---------------------------------------------------------------------
 Center     Atomic     Atomic              Coordinates (Angstroms)
 Number     Number      Type              X           Y           Z
 ---------------------------------------------------------------------
    1          6             0       -1.232527     .105970    -.000324
    2          9             0       -2.674563    -.151122     .001002
    3          1             0        -.824065    -.312319     .916463
    4          1             0       -1.099045    1.183216    -.036207
    5          1             0        -.814868    -.373274    -.882515
    6          6             0        1.813797     .649082    -.003124
    7          6             0        2.523473    -.511945     .000528
    8          1             0        2.528108    1.510576     .006926
    9          1             0        3.630225    -.613337     .011669
   10          1             0        2.022251   -1.493404    -.007835
 ---------------------------------------------------------------------
 Rotational constants (GHZ):     29.8061943      1.7014491      1.6264882
 Isotopes: C-12,F-19,H-1,H-1,H-1,C-12,C-12,H-1,H-1,H-1
 Leave Link  202 at Thu Aug 21 02:19:39 2003, MaxMem=    6291456 cpu:        .1
 (Enter /usr/spool/scr/aped/g98_A7_install/g98/l301.exe)
 Standard basis: 6-31+G(d) (6D, 7F)
 There are    88 symmetry adapted basis functions of A   symmetry.
 Crude estimate of integral set expansion from redundant integrals=1.000.
 Integral buffers will be    262144 words long.
 Raffenetti 2 integral format.
 Two-electron integral symmetry is turned on.
    88 basis functions      152 primitive gaussians
    17 alpha electrons       17 beta electrons
       nuclear repulsion energy        98.6850666922 Hartrees.
 Leave Link  301 at Thu Aug 21 02:19:39 2003, MaxMem=    6291456 cpu:        .2
 (Enter /usr/spool/scr/aped/g98_A7_install/g98/l302.exe)
 One-electron integrals computed using PRISM.
 NBasis=    88 RedAO= T  NBF=    88
 NBsUse=    88 1.00D-04 NBFU=    88
 Leave Link  302 at Thu Aug 21 02:19:42 2003, MaxMem=    6291456 cpu:       1.5
 (Enter /usr/spool/scr/aped/g98_A7_install/g98/l303.exe)
 DipDrv:  MaxL=1.
 Leave Link  303 at Thu Aug 21 02:19:44 2003, MaxMem=    6291456 cpu:        .4
 (Enter /usr/spool/scr/aped/g98_A7_install/g98/l401.exe)
 Initial guess read from the read-write file:
 Guess basis functions will be translated to current atomic coordinates.
 Leave Link  401 at Thu Aug 21 02:19:44 2003, MaxMem=    6291456 cpu:        .1
 (Enter /usr/spool/scr/aped/g98_A7_install/g98/l502.exe)
 IExCor= 402 DFT=T Ex=B+HF Corr=LYP ScaHFX=  .2000
 ScaDFX=   .8000   .7200  1.0000   .8100
 IRadAn=      0 IRanWt=     -1 IRanGd=            0 ICorTp=0
 Using DIIS extrapolation.
 Closed shell SCF:
 Requested convergence on RMS density matrix=1.00D-08 within  64 cycles.
 Requested convergence on MAX density matrix=1.00D-06.
 Integral symmetry usage will be decided dynamically.
 IEnd=     30258 IEndB=     30258 NGot=   6291456 MDV=   6273255
 LenX=   6273255
 Fock matrices will be formed incrementally for  20 cycles.

 Cycle   1  Pass 1  IDiag 1:
 Petite list used in FoFDir.
 MinBra= 0 MaxBra= 2 Meth= 1.
 IRaf=       0 NMat=   1 IRICut=       1 DoRegI=T DoRafI=F ISym2E= 1 JSym2E=1.
 E= -.316382818004748D+03
 DIIS: error= 1.37D-03 at cycle   1.
 RMSDP=1.43D-03 MaxDP=3.93D-02

 Cycle   2  Pass 1  IDiag 1:
 RMSU=  1.34D-03    CP:  9.87D-01
 E= -.316383299888498D+03 Delta-E=        -.000481883751
 DIIS: error= 1.20D-03 at cycle   2.
 Coeff: -.289D+00 -.711D+00
 RMSDP=3.86D-04 MaxDP=9.95D-03

 Cycle   3  Pass 1  IDiag 1:
 RMSU=  3.54D-04    CP:  9.90D-01  9.14D-01
 E= -.316383310787564D+03 Delta-E=        -.000010899065
 DIIS: error= 1.31D-03 at cycle   3.
 Coeff: -.218D-01 -.501D+00 -.477D+00
 RMSDP=3.82D-04 MaxDP=1.49D-02

 Cycle   4  Pass 1  IDiag 1:
 RMSU=  1.66D-04    CP:  9.85D-01  1.11D+00  5.92D-01
 E= -.316383385611074D+03 Delta-E=        -.000074823511
 DIIS: error= 2.27D-04 at cycle   4.
 Coeff:  .129D-01 -.199D+00 -.223D+00 -.590D+00
 RMSDP=7.18D-05 MaxDP=2.48D-03

 Cycle   5  Pass 1  IDiag 1:
 RMSU=  2.92D-05    CP:  9.84D-01  1.15D+00  5.99D-01  1.21D+00
 E= -.316383387700103D+03 Delta-E=        -.000002089029
 DIIS: error= 9.95D-05 at cycle   5.
 Coeff:  .823D-02 -.442D-01 -.521D-01 -.318D+00 -.593D+00
 RMSDP=4.32D-05 MaxDP=1.60D-03

 Cycle   6  Pass 1  IDiag 1:
 RMSU=  9.39D-06    CP:  9.84D-01  1.17D+00  5.97D-01  1.38D+00  1.02D+00
 E= -.316383388127120D+03 Delta-E=        -.000000427016
 DIIS: error= 2.28D-05 at cycle   6.
 Coeff:  .175D-02 -.115D-02 -.137D-02 -.956D-01 -.265D+00 -.639D+00
 RMSDP=1.87D-05 MaxDP=6.89D-04

 Cycle   7  Pass 1  IDiag 1:
 RMSU=  2.93D-06    CP:  9.84D-01  1.17D+00  5.95D-01  1.45D+00  1.14D+00
                    CP:  1.19D+00
 E= -.316383388152148D+03 Delta-E=        -.000000025028
 DIIS: error= 1.05D-05 at cycle   7.
 Coeff: -.194D-03  .587D-02  .711D-02  .966D-02 -.151D-01 -.321D+00
 Coeff: -.687D+00
 RMSDP=1.12D-05 MaxDP=4.25D-04

 Cycle   8  Pass 1  IDiag 1:
 RMSU=  9.05D-07    CP:  9.83D-01  1.18D+00  5.94D-01  1.50D+00  1.21D+00
                    CP:  1.34D+00  1.15D+00
 E= -.316383388156148D+03 Delta-E=        -.000000004000
 DIIS: error= 2.86D-06 at cycle   8.
 Coeff: -.220D-03  .343D-02  .412D-02  .101D-01  .612D-02 -.138D+00
 Coeff: -.330D+00 -.555D+00
 RMSDP=2.16D-06 MaxDP=7.92D-05

 Cycle   9  Pass 1  IDiag 1:
 RMSU=  2.13D-07    CP:  9.83D-01  1.18D+00  5.94D-01  1.51D+00  1.22D+00
                    CP:  1.39D+00  1.19D+00  1.18D+00
 E= -.316383388156430D+03 Delta-E=        -.000000000282
 DIIS: error= 1.23D-06 at cycle   9.
 Coeff: -.723D-04  .494D-03  .652D-03  .302D-02  .589D-02 -.139D-01
 Coeff: -.266D-01 -.277D+00 -.693D+00
 RMSDP=1.36D-06 MaxDP=5.27D-05

 Cycle  10  Pass 1  IDiag 1:
 RMSU=  7.40D-08    CP:  9.83D-01  1.18D+00  5.93D-01  1.51D+00  1.23D+00
                    CP:  1.42D+00  1.23D+00  1.33D+00  1.10D+00
 E= -.316383388156453D+03 Delta-E=        -.000000000024
 DIIS: error= 5.75D-08 at cycle  10.
 Coeff:  .498D-06 -.957D-04 -.964D-04  .885D-05  .673D-03  .552D-02
 Coeff:  .125D-01 -.152D-01 -.104D+00 -.900D+00
 RMSDP=3.63D-07 MaxDP=1.39D-05

 Cycle  11  Pass 1  IDiag 1:
 RMSU=  2.24D-08    CP:  9.83D-01  1.18D+00  5.93D-01  1.52D+00  1.23D+00
                    CP:  1.43D+00  1.25D+00  1.39D+00  1.19D+00  1.06D+00
 E= -.316383388156470D+03 Delta-E=        -.000000000017
 DIIS: error= 1.84D-08 at cycle  11.
 Coeff:  .201D-05 -.344D-04 -.346D-04 -.899D-04 -.234D-04  .164D-02
 Coeff:  .251D-02  .582D-02  .643D-03 -.198D+00 -.812D+00
 RMSDP=5.54D-08 MaxDP=2.13D-06

 Cycle  12  Pass 1  IDiag 1:
 RMSU=  2.88D-09    CP:  9.83D-01  1.18D+00  5.93D-01  1.52D+00  1.23D+00
                    CP:  1.43D+00  1.25D+00  1.40D+00  1.21D+00  1.13D+00
                    CP:  1.02D+00
 E= -.316383388156651D+03 Delta-E=        -.000000000181
 DIIS: error= 2.56D-09 at cycle  12.
 Coeff:  .451D-06 -.288D-05 -.309D-05 -.209D-04 -.457D-04  .325D-04
 Coeff: -.277D-03  .223D-02  .584D-02  .161D-01 -.120D+00 -.903D+00
 RMSDP=1.31D-08 MaxDP=5.01D-07

 Cycle  13  Pass 1  IDiag 1:
 RMSU=  3.56D-10    CP:  9.83D-01  1.18D+00  5.93D-01  1.52D+00  1.23D+00
                    CP:  1.43D+00  1.25D+00  1.41D+00  1.21D+00  1.14D+00
                    CP:  1.08D+00  1.17D+00
 E= -.316383388156727D+03 Delta-E=        -.000000000076
 DIIS: error= 4.75D-10 at cycle  13.
 Coeff: -.361D-07  .997D-06  .774D-06  .295D-05 -.442D-06 -.528D-04
 Coeff: -.755D-04 -.858D-04  .244D-03  .671D-02  .190D-01 -.148D-01
 Coeff: -.101D+01
 RMSDP=1.78D-09 MaxDP=6.76D-08

 SCF Done:  E(RB+HF-LYP) =  -217.698321465     A.U. after   13 cycles
             Convg  =     .1781D-08             -V/T =  2.0092
             S**2   =    .0000
 KE= 2.157060866613D+02 PE=-7.142124081566D+02 EE= 1.821229333386D+02
 Leave Link  502 at Thu Aug 21 02:26:23 2003, MaxMem=    6291456 cpu:     207.0
 (Enter /usr/spool/scr/aped/g98_A7_install/g98/l701.exe)
 Compute integral first derivatives.
 ... and contract with generalized density number  0.
 Leave Link  701 at Thu Aug 21 02:26:27 2003, MaxMem=    6291456 cpu:       1.8
 (Enter /usr/spool/scr/aped/g98_A7_install/g98/l702.exe)
 L702 exits ... SP integral derivatives will be done elsewhere.
 Leave Link  702 at Thu Aug 21 02:26:27 2003, MaxMem=    6291456 cpu:        .0
 (Enter /usr/spool/scr/aped/g98_A7_install/g98/l703.exe)
 Compute integral first derivatives.
 Integral derivatives from FoFDir, PRISM(SPDF).
 Symmetry not used in FoFDir.
 MinBra= 0 MaxBra= 2 Meth= 1.
 IRaf=       0 NMat=   1 IRICut=       1 DoRegI=T DoRafI=F ISym2E= 0 JSym2E=0.
 Leave Link  703 at Thu Aug 21 02:28:10 2003, MaxMem=    6291456 cpu:      51.7
 (Enter /usr/spool/scr/aped/g98_A7_install/g98/l716.exe)
 ***** Axes restored to original set *****
 -------------------------------------------------------------------
 Center     Atomic                   Forces (Hartrees/Bohr)
 Number     Number              X              Y              Z
 -------------------------------------------------------------------
    1          6           -.001063384     .001934428     .007008893
    2          9            .000681678    -.001244951    -.003745679
    3          1            .000007653     .000016726    -.000948543
    4          1            .000068462    -.000119077    -.001215282
[...]
             S**2   =    .0000
 KE= 2.157143323119D+02 PE=-7.130166265749D+02 EE= 1.814930292916D+02
 Leave Link  502 at Thu Aug 21 06:02:29 2003, MaxMem=    6291456 cpu:     177.2
 (Enter /usr/spool/scr/aped/g98_A7_install/g98/l701.exe)
 Compute integral first derivatives.
 ... and contract with generalized density number  0.
 Leave Link  701 at Thu Aug 21 06:02:32 2003, MaxMem=    6291456 cpu:       1.8
 (Enter /usr/spool/scr/aped/g98_A7_install/g98/l702.exe)
 L702 exits ... SP integral derivatives will be done elsewhere.
 Leave Link  702 at Thu Aug 21 06:02:33 2003, MaxMem=    6291456 cpu:        .0
 (Enter /usr/spool/scr/aped/g98_A7_install/g98/l703.exe)
 Compute integral first derivatives.
 Integral derivatives from FoFDir, PRISM(SPDF).
 Symmetry not used in FoFDir.
 MinBra= 0 MaxBra= 2 Meth= 1.
 IRaf=       0 NMat=   1 IRICut=       1 DoRegI=T DoRafI=F ISym2E= 0 JSym2E=0.
 Leave Link  703 at Thu Aug 21 06:04:16 2003, MaxMem=    6291456 cpu:      53.9
 (Enter /usr/spool/scr/aped/g98_A7_install/g98/l716.exe)
 ***** Axes restored to original set *****
 -------------------------------------------------------------------
 Center     Atomic                   Forces (Hartrees/Bohr)
 Number     Number              X              Y              Z
 -------------------------------------------------------------------
    1          6           -.000665637     .000995042    -.000152941
    2          9            .000448471    -.000656997     .000052986
    3          1            .000001509     .000007868     .000022583
    4          1           -.000012358    -.000003979     .000024430
    5          1            .000002984    -.000000072     .000019515
    6          6            .000237133    -.000412071     .000055260
    7          6            .000006469     .000034690    -.000056251
    8          1           -.000009485     .000039321     .000034917
    9          1            .000011911     .000011315    -.000000221
   10          1           -.000020997    -.000015116    -.000000277
 -------------------------------------------------------------------
 Cartesian Forces:  Max      .000995042 RMS      .000278758
 ------------------------------------------------------------------------
           Internal Coordinate Forces (Hartree/Bohr or radian)
 Cent Atom N1     Length/X     N2     Alpha/Y      N3      Beta/Z       J
 ------------------------------------------------------------------------
   1  C 
   2  F     1    .000053(   1)
   3  H     1   -.000006(   2)  2   -.000045(  11)
   4  H     1   -.000005(   3)  2   -.000049(  12)  3    .000002(  20)  0
   5  H     1   -.000008(   4)  2   -.000037(  13)  3   -.000005(  21)  0
      X     1    .000000(   5)  2   -.002153(  14)  4    .000027(  22)  0
   6  C     1   -.000033(   6)  6   -.002153(  15)  2   -.000219(  23)  0
   7  C     7    .000002(   7)  1    .000164(  16)  6   -.000054(  24)  0
   8  H     7    .000001(   8)  1   -.000105(  17)  6    .000081(  25)  0
   9  H     8    .000000(   9)  7   -.000003(  18)  9    .000028(  26)  0
  10  H     8   -.000001(  10)  7    .000000(  19)  9    .000046(  27)  0
 ------------------------------------------------------------------------
 Internal  Forces:  Max      .002152656 RMS      .000589315
 Leave Link  716 at Thu Aug 21 06:04:16 2003, MaxMem=    6291456 cpu:        .0
 (Enter /usr/spool/scr/aped/g98_A7_install/g98/l103.exe)

 GradGradGradGradGradGradGradGradGradGradGradGradGradGradGradGradGradGrad
 Berny optimization.
 Search for a local minimum.
 Step number  33 out of a maximum of  99
 All quantities printed in internal units (Hartrees-Bohrs-Radians)
 Update second derivatives using information from points 13 18 28
 Trust test=-1.04D+01 RLast= 6.85D-02 DXMaxT set to 5.00D-02
 Energy Rises -- skip Quadratic search.
 Skip linear search -- no minimum in search direction.
 Steepest descent instead of Quadratic search.
 Variable       Old X    -DE/DX   Delta X   Delta X   Delta X     New X
                                 (Linear)    (Quad)   (Total)
    R1        2.73762    .00005    .00000    .00003    .00003   2.73765
    R2        2.05745   -.00001    .00000    .00000    .00000   2.05745
    R3        2.05558   -.00001    .00000    .00000    .00000   2.05557
    R4        2.05726   -.00001    .00000    .00000    .00000   2.05725
    R7        5.96258   -.00003    .00000   -.00002   -.00002   5.96257
    R8        2.57181    .00000    .00000    .00000    .00000   2.57181
    R9        2.11561    .00000    .00000    .00000    .00000   2.11561
   R11        2.10107    .00000    .00000    .00000    .00000   2.10107
   R12        2.08179    .00000    .00000    .00000    .00000   2.08179
    A1        1.88994   -.00005    .00000   -.00002   -.00002   1.88992
    A2        1.88844   -.00005    .00000   -.00002   -.00002   1.88842
    A3        1.89074   -.00004    .00000   -.00002   -.00002   1.89072
    A8        2.02942    .00016    .00000    .00008    .00008   2.02950
    A9        2.35514   -.00011    .00000   -.00005   -.00005   2.35508
   A11        2.20997    .00000    .00000    .00000    .00000   2.20997
   A12        2.12048    .00000    .00000    .00000    .00000   2.12048
    D1       -2.09102    .00000    .00000    .00000    .00000  -2.09102
    D2        2.10053   -.00001    .00000    .00000    .00000   2.10052
    D8        -.13202   -.00005    .00000   -.00003   -.00003   -.13205
    D9        2.98693    .00008    .00000    .00004    .00004   2.98697
   D11         .00025    .00003    .00000    .00001    .00001    .00027
   D12        3.14162    .00005    .00000    .00002    .00002   3.14164
         Item               Value     Threshold  Converged?
 Maximum Force             .000164      .000450     YES
 RMS     Force             .000052      .000300     YES
 Maximum Displacement      .000082      .001800     YES
 RMS     Displacement      .000026      .001200     YES
 Predicted change in Energy=-8.018982D-07
 Optimization completed.
    -- Stationary point found.
                       ----------------------------
                       !   Optimized Parameters   !
                       ! (Angstroms and Degrees)  !
 ----------------------                            ----------------------
 !      Name          Value   Derivative information (Atomic Units)     !
 ------------------------------------------------------------------------
 !       R1          1.4487   -DE/DX =    0.0001                        !
 !       R2          1.0888   -DE/DX =    0.                            !
 !       R3          1.0878   -DE/DX =    0.                            !
 !       R4          1.0887   -DE/DX =    0.                            !
 !       R7          3.1553   -DE/DX =    0.                            !
 !       R8          1.3609   -DE/DX =    0.                            !
 !       R9          1.1195   -DE/DX =    0.                            !
 !       R11         1.1118   -DE/DX =    0.                            !
 !       R12         1.1016   -DE/DX =    0.                            !
 !       A1        108.2855   -DE/DX =    0.                            !
 !       A2        108.1998   -DE/DX =    0.                            !
 !       A3        108.3313   -DE/DX =    0.                            !
 !       A8        116.2771   -DE/DX =    0.0002                        !
 !       A9        134.9394   -DE/DX =   -0.0001                        !
 !       A11       126.622    -DE/DX =    0.                            !
 !       A12       121.4947   -DE/DX =    0.                            !
 !       D1       -119.8065   -DE/DX =    0.                            !
 !       D2        120.3514   -DE/DX =    0.                            !
 !       D8         -7.5642   -DE/DX =   -0.0001                        !
 !       D9        171.1385   -DE/DX =    0.0001                        !
 !       D11         0.0146   -DE/DX =    0.                            !
 !       D12       180.0016   -DE/DX =    0.                            !
 ------------------------------------------------------------------------
 GradGradGradGradGradGradGradGradGradGradGradGradGradGradGradGradGradGrad

 Leave Link  103 at Thu Aug 21 06:04:17 2003, MaxMem=    6291456 cpu:        .1
 (Enter /usr/spool/scr/aped/g98_A7_install/g98/l202.exe)
 ------------------------------------------------------------------------
                         Z-MATRIX (ANGSTROMS AND DEGREES)
 CD Cent Atom  N1     Length/X     N2    Alpha/Y     N3     Beta/Z      J
 ------------------------------------------------------------------------
   1   1  C 
   2   2  F     1   1.448687(  1)
   3   3  H     1   1.088757(  2)   2  108.286( 11)
   4   4  H     1   1.087765(  3)   2  108.200( 12)   3 -119.806( 20)   0
   5   5  H     1   1.088654(  4)   2  108.331( 13)   3  120.351( 21)   0
   6      X     1   1.000000(  5)   2   90.000( 14)   4  180.000( 22)   0
   7   6  C     1   3.155264(  6)   6   90.000( 15)   2  180.000( 23)   0
   8   7  C     7   1.360943(  7)   1  116.277( 16)   6   -7.564( 24)   0
   9   8  H     7   1.119531(  8)   1  134.939( 17)   6  171.139( 25)   0
  10   9  H     8   1.111838(  9)   7  126.622( 18)   9     .015( 26)   0
  11  10  H     8   1.101637( 10)   7  121.495( 19)   9  180.002( 27)   0
 ------------------------------------------------------------------------
                         Z-Matrix orientation:                         
 ---------------------------------------------------------------------
 Center     Atomic     Atomic              Coordinates (Angstroms)
 Number     Number      Type              X           Y           Z
 ---------------------------------------------------------------------
    1          6             0         .000000     .000000     .000000
    2          9             0         .000000     .000000    1.448687
    3          1             0        1.033780     .000000    -.341600
    4          1             0        -.513648     .896645    -.339744
    5          1             0        -.522183    -.891773    -.342394
    6         -1             0         .497072    -.867709     .000000
    7          6             0         .000000     .000000   -3.155264
    8          6             0         .740689    -.969810   -3.757771
    9          1             0        -.495137     .618741   -3.946054
   10          1             0         .850083   -1.137555   -4.851425
   11          1             0        1.318908   -1.700740   -3.170397
 ---------------------------------------------------------------------
                    Distance matrix (angstroms):
                    1          2          3          4          5
     1  C     .000000
     2  F    1.448687    .000000
     3  H    1.088757   2.067324    .000000
     4  H    1.087765   2.065500   1.788437    .000000
     5  H    1.088654   2.067826   1.793399   1.788440    .000000
     6  X    1.000000   1.760311   1.075948   2.061535   1.075497
     7  C    3.155264   4.603951   2.997566   2.999159   2.996694
     8  C    3.950949   5.347556   3.563237   4.091445   3.642216
     9  H    4.024841   5.452635   3.963901   3.617049   3.907525
    10  H    5.054997   6.458180   4.654707   5.133517   4.719628
    11  H    3.831899   5.095878   3.312991   4.256438   3.470107
                    6          7          8          9         10
     6  X     .000000
     7  C    3.309938    .000000
     8  C    3.767044   1.360943    .000000
     9  H    4.331900   1.119531   2.021438    .000000
    10  H    4.871731   2.212156   1.111838   2.390374    .000000
    11  H    3.379463   2.152270   1.101637   3.045061   1.833802
                   11
    11  H     .000000
                           Interatomic angles:
       F2-C1-H3=108.2855       F2-C1-H4=108.1998       H3-C1-H4=110.5097
       F2-C1-H5=108.3313       H3-C1-H5=110.9014       H4-C1-H5=110.5178
       F2-C1-X6= 90.           H3-C1-X6= 61.8376       H4-C1-X6=161.8002
       H5-C1-X6= 61.8124       F2-C1-C7=180.           H3-C1-C7= 71.7145
       H4-C1-C7= 71.8002       H5-C1-C7= 71.6687       X6-C1-C7= 90.    
       C1-C7-C8=116.2771       C1-C7-H9=134.9394       C8-C7-H9=108.7737
      C7-C8-H10=126.622       C7-C8-H11=121.4947     H10-C8-H11=111.8833
 Stoichiometry    C3H6F(1-)
 Framework group  C1[X(C3H6F)]
 Deg. of freedom   24
 Full point group                 C1      NOp   1
 Largest Abelian subgroup         C1      NOp   1
 Largest concise Abelian subgroup C1      NOp   1
                         Standard orientation:                         
 ---------------------------------------------------------------------
 Center     Atomic     Atomic              Coordinates (Angstroms)
 Number     Number      Type              X           Y           Z
 ---------------------------------------------------------------------
    1          6             0        1.288936     .092439    -.000421
    2          9             0        2.717363    -.148991     .001407
    3          1             0         .847876    -.473550    -.819270
    4          1             0        1.124717    1.158374    -.142004
    5          1             0         .885649    -.231860     .957367
    6          6             0       -1.822200     .618277    -.004402
    7          6             0       -2.619655    -.484539     .000948
    8          1             0       -2.469900    1.531329     .008574
    9          1             0       -3.731304    -.499115     .015446
   10          1             0       -2.195790   -1.501315    -.009518
 ---------------------------------------------------------------------
 Rotational constants (GHZ):     31.4918760      1.6261412      1.5617889
 Isotopes: C-12,F-19,H-1,H-1,H-1,C-12,C-12,H-1,H-1,H-1
 Leave Link  202 at Thu Aug 21 06:04:17 2003, MaxMem=    6291456 cpu:        .1
 (Enter /usr/spool/scr/aped/g98_A7_install/g98/l601.exe)
 Copying SCF densities to generalized density rwf, ISCF=0 IROHF=0.

 **********************************************************************

            Population analysis using the SCF density.

 **********************************************************************

 Alpha  occ. eigenvalues --  -24.54086 -10.09644  -9.97375  -9.94274  -1.02551
 Alpha  occ. eigenvalues --    -.54135   -.51525   -.33324   -.32366   -.31934
 Alpha  occ. eigenvalues --    -.31876   -.22151   -.20066   -.19977   -.14974
 Alpha  occ. eigenvalues --    -.04167    .02085
 Alpha virt. eigenvalues --     .13837    .15841    .17758    .18467    .19036
 Alpha virt. eigenvalues --     .19197    .20319    .23160    .23879    .25868
 Alpha virt. eigenvalues --     .27997    .29025    .30338    .31883    .34608
 Alpha virt. eigenvalues --     .35932    .38372    .40449    .41298    .43421
 Alpha virt. eigenvalues --     .43731    .43850    .49610    .51682    .58159
 Alpha virt. eigenvalues --     .78061    .79518    .80459    .82782    .88848
 Alpha virt. eigenvalues --     .91413    .94443    .98298   1.06293   1.07468
 Alpha virt. eigenvalues --    1.11208   1.15354   1.17765   1.21552   1.24942
 Alpha virt. eigenvalues --    1.28877   1.39810   1.43630   1.58169   1.58507
 Alpha virt. eigenvalues --    1.69395   1.76055   1.77415   1.79082   1.80039
 Alpha virt. eigenvalues --    1.97947   1.97983   2.04058   2.07298   2.12874
 Alpha virt. eigenvalues --    2.13920   2.19963   2.33741   2.35848   2.36528
 Alpha virt. eigenvalues --    2.48986   2.51659   2.51872   2.60655   2.78494
 Alpha virt. eigenvalues --    2.95551   3.20473   4.38400   4.44799   4.52356
 Alpha virt. eigenvalues --    5.30579
          Condensed to atoms (all electrons):
              1          2          3          4          5          6
  1  C    5.329729   -.056605    .403709    .408325    .403159   -.411758
  2  F    -.056605   9.543471   -.046345   -.048251   -.046121    .057474
  3  H     .403709   -.046345    .501415   -.029095   -.029784   -.011651
  4  H     .408325   -.048251   -.029095    .498153   -.029037   -.020182
  5  H     .403159   -.046121   -.029784   -.029037    .500002   -.010774
  6  C    -.411758    .057474   -.011651   -.020182   -.010774   7.640218
  7  C     .116871   -.014397    .001338    .005115    .001079   -.363115
  8  H     .017989   -.000123    .000057    .000178    .000056    .199101
  9  H    -.004853    .000008   -.000008   -.000005   -.000006    .022993
 10  H     .014797   -.000203    .000202    .000037    .000119   -.174291
              7          8          9         10
  1  C     .116871    .017989   -.004853    .014797
  2  F    -.014397   -.000123    .000008   -.000203
  3  H     .001338    .000057   -.000008    .000202
  4  H     .005115    .000178   -.000005    .000037
  5  H     .001079    .000056   -.000006    .000119
  6  C    -.363115    .199101    .022993   -.174291
  7  C    5.874662   -.009084    .296090    .447353
  8  H    -.009084    .742787   -.024682    .010838
  9  H     .296090   -.024682    .703324   -.081574
 10  H     .447353    .010838   -.081574    .676353
 Total atomic charges:
              1
  1  C    -.221364
  2  F    -.388907
  3  H     .210162
  4  H     .214762
  5  H     .211308
  6  C    -.928014
  7  C    -.355912
  8  H     .062884
  9  H     .088711
 10  H     .106370
 Sum of Mulliken charges=  -1.00000
 Atomic charges with hydrogens summed into heavy atoms:
              1
  1  C     .414867
  2  F    -.388907
  3  H     .000000
  4  H     .000000
  5  H     .000000
  6  C    -.865129
  7  C    -.160831
  8  H     .000000
  9  H     .000000
 10  H     .000000
 Sum of Mulliken charges=  -1.00000
 Electronic spatial extent (au):  <R**2>=   724.9144
 Charge=    -1.0000 electrons
 Dipole moment (Debye):
    X=     4.5792    Y=     -.9702    Z=      .0343  Tot=     4.6809
 Quadrupole moment (Debye-Ang):
   XX=   -59.5434   YY=   -32.0478   ZZ=   -32.4841
   XY=     1.3896   XZ=     -.0682   YZ=      .0508
 Octapole moment (Debye-Ang**2):
  XXX=    53.7442  YYY=    -5.2034  ZZZ=      .3969  XYY=    20.1483
  XXY=     4.9270  XXZ=      .1282  XZZ=    22.0527  YZZ=    -1.5689
  YYZ=     -.2265  XYZ=     -.1055
 Hexadecapole moment (Debye-Ang**3):
 XXXX= -1143.7780 YYYY=  -110.2449 ZZZZ=   -62.3717 XXXY=   -12.5441
 XXXZ=     -.5743 YYYX=     2.3443 YYYZ=     -.0026 ZZZX=      .1034
 ZZZY=      .1944 XXYY=  -180.7616 XXZZ=  -177.3848 YYZZ=   -28.8742
 XXYZ=      .0526 YYXZ=     -.2624 ZZXY=    -2.6073
 N-N= 9.811079963306D+01 E-N=-7.130166265976D+02  KE= 2.157143323119D+02
 Leave Link  601 at Thu Aug 21 06:04:19 2003, MaxMem=    6291456 cpu:        .5
 (Enter /usr/spool/scr/aped/g98_A7_install/g98/l9999.exe)
 1\1\GINC-ETROG\POpt\RB3LYP\6-31+G(d)\C3H6F1(1-)\TCHEM11\21-Aug-2003\1\
 \#P B3LYP/6-31+G* OPT=(Z-MATRIX,NOEIGEN) OPTCYC=99\\mef\\-1,1\C\F,1,R1
 \H,1,R2,2,A1\H,1,R3,2,A2,3,D1,0\H,1,R4,2,A3,3,D2,0\X,1,1.,2,90.,4,180.
 ,0\C,1,R7,6,90.,2,180.,0\C,7,R8,1,A8,6,D8,0\H,7,R9,1,A9,6,D9,0\H,8,R11
 ,7,A11,9,D11,0\H,8,R12,7,A12,9,D12,0\\R1=1.44868691\R2=1.0887566\R3=1.
 08776457\R4=1.08865415\R7=3.1552638\R8=1.36094313\R9=1.1195312\R11=1.1
 1183832\R12=1.10163738\A1=108.28552764\A2=108.19984821\A3=108.33129004
 \A8=116.27711426\A9=134.93938069\A11=126.621968\A12=121.49472987\D1=-1
 19.80648962\D2=120.35135143\D8=-7.5641777\D9=171.13852887\D11=0.014557
 25\D12=180.00164077\\Version=IBM-RS6000-G98RevA.7\HF=-217.6984653\RMSD
 =8.631e-10\RMSF=2.788e-04\Dipole=0.0376666,-0.0671036,1.8400045\PG=C01
  [X(C3H6F1)]\\@


 ASKING DUMB QUESTIONS IS EASIER THAN CORECTING DUMB MISTAKES.
 Job cpu time:  0 days  2 hours 17 minutes 43.4 seconds.
 File lengths (MBytes):  RWF=   14 Int=    0 D2E=    0 Chk=    6 Scr=    1
 Normal termination of Gaussian 98.

Real   14626.82
User   8137.20
System 126.23
 
        *=*=*=*=*=*=*=*=*=*=*=*=*
        * xrung98: Leaving g98  *
        *=*=*=*=*=*=*=*=*=*=*=*=*
 
 
 Scratch directory report:  /usr/spool/scr1/tchem11/g98/ch2chfme_2.8
 ========================= 
 total 0
 
 Thu Aug 21 06:04:21 IDT 2003
 etrog
 8137.2u 126.3s 4:03:48 56% 1573+-2598k 0+0io 1867pf+0w
 
 ****** xrung98 messages ******
