 Entering Gaussian System, Link 0=g03
 Input=/home/rkanters/PIB/cyanine_f.com
 Output=/home/rkanters/PIB/cyanine_f.log
 Initial command:
 /usr/local/g03/l1.exe /tmp/Gau-3892.inp -scrdir=/tmp/
 Entering Link 1 = /usr/local/g03/l1.exe PID=      3894.
  
 Copyright (c) 1988,1990,1992,1993,1995,1998,2003, Gaussian, Inc.
                  All Rights Reserved.
  
 This is the Gaussian(R) 03 program.  It is based on the
 the Gaussian(R) 98 system (copyright 1998, Gaussian, Inc.),
 the Gaussian(R) 94 system (copyright 1995, Gaussian, Inc.),
 the Gaussian 92(TM) system (copyright 1992, Gaussian, Inc.),
 the Gaussian 90(TM) system (copyright 1990, Gaussian, Inc.),
 the Gaussian 88(TM) system (copyright 1988, Gaussian, Inc.),
 the Gaussian 86(TM) system (copyright 1986, Carnegie Mellon
 University), and the Gaussian 82(TM) system (copyright 1983,
 Carnegie Mellon University). Gaussian is a federally registered
 trademark of Gaussian, Inc.
  
 This software contains proprietary and confidential information,
 including trade secrets, belonging to Gaussian, Inc.
  
 This software is provided under written license and may be
 used, copied, transmitted, or stored only in accord with that
 written license.
  
 The following legend is applicable only to US Government
 contracts under DFARS:
  
                    RESTRICTED RIGHTS LEGEND
  
 Use, duplication or disclosure by the US Government is subject
 to restrictions as set forth in subparagraph (c)(1)(ii) of the
 Rights in Technical Data and Computer Software clause at DFARS
 252.227-7013.
  
 Gaussian, Inc.
 Carnegie Office Park, Building 6, Pittsburgh, PA 15106 USA
  
 The following legend is applicable only to US Government
 contracts under FAR:
  
                    RESTRICTED RIGHTS LEGEND
  
 Use, reproduction and disclosure by the US Government is subject
 to restrictions as set forth in subparagraph (c) of the
 Commercial Computer Software - Restricted Rights clause at FAR
 52.227-19.
  
 Gaussian, Inc.
 Carnegie Office Park, Building 6, Pittsburgh, PA 15106 USA
  
  
 ---------------------------------------------------------------
 Warning -- This program may not be used in any manner that
 competes with the business of Gaussian, Inc. or will provide
 assistance to any competitor of Gaussian, Inc.  The licensee
 of this program is prohibited from giving any competitor of
 Gaussian, Inc. access to this program.  By using this program,
 the user acknowledges that Gaussian, Inc. is engaged in the
 business of creating and licensing software in the field of
 computational chemistry and represents and warrants to the
 licensee that it is not a competitor of Gaussian, Inc. and that
 it will not use this program in any manner prohibited above.
 ---------------------------------------------------------------
  

 Cite this work as:
 Gaussian 03, Revision B.04,
 M. J. Frisch, G. W. Trucks, H. B. Schlegel, G. E. Scuseria, 
 M. A. Robb, J. R. Cheeseman, J. A. Montgomery, Jr., T. Vreven, 
 K. N. Kudin, J. C. Burant, J. M. Millam, S. S. Iyengar, J. Tomasi, 
 V. Barone, B. Mennucci, M. Cossi, G. Scalmani, N. Rega, 
 G. A. Petersson, H. Nakatsuji, M. Hada, M. Ehara, K. Toyota, 
 R. Fukuda, J. Hasegawa, M. Ishida, T. Nakajima, Y. Honda, O. Kitao, 
 H. Nakai, M. Klene, X. Li, J. E. Knox, H. P. Hratchian, J. B. Cross, 
 C. Adamo, J. Jaramillo, R. Gomperts, R. E. Stratmann, O. Yazyev, 
 A. J. Austin, R. Cammi, C. Pomelli, J. W. Ochterski, P. Y. Ayala, 
 K. Morokuma, G. A. Voth, P. Salvador, J. J. Dannenberg, 
 V. G. Zakrzewski, S. Dapprich, A. D. Daniels, M. C. Strain, 
 O. Farkas, D. K. Malick, A. D. Rabuck, K. Raghavachari, 
 J. B. Foresman, J. V. Ortiz, Q. Cui, A. G. Baboul, S. Clifford, 
 J. Cioslowski, B. B. Stefanov, G. Liu, A. Liashenko, P. Piskorz, 
 I. Komaromi, R. L. Martin, D. J. Fox, T. Keith, M. A. Al-Laham, 
 C. Y. Peng, A. Nanayakkara, M. Challacombe, P. M. W. Gill, 
 B. Johnson, W. Chen, M. W. Wong, C. Gonzalez, and J. A. Pople, 
 Gaussian, Inc., Pittsburgh PA, 2003.
 
 *********************************************
 Gaussian 03:  x86-Linux-G03RevB.04 2-Jun-2003
                  14-Feb-2006 
 *********************************************
 %chk=cyanine.chk
 %mem=6MW
 %nproc=1
 Will use up to    1 processors via shared memory.
 -----------------------------------------------
 # opt=calcfc freq=noraman pm3 geom=connectivity
 -----------------------------------------------
 1/10=4,14=-1,18=50,26=3,38=1,57=2/1,3;
 2/9=110,17=6,18=5,40=1/2;
 3/5=2,11=9,12=1,16=1,25=1,30=1/1;
 4/5=3,11=1,20=7,22=2,24=3,35=1/1,2;
 6/7=2,8=2,9=2,10=2/1;
 7/25=1/16;
 1/10=4,14=-1,18=50/3(1);
 99//99;
 2/9=110/2;
 3/5=2,11=9,12=1,16=1,25=1,30=1/1;
 4/5=5,11=1,16=3,20=7,22=1,24=3,35=1/1,2;
 7//16;
 1/14=-1,18=50/3(-4);
 2/9=110/2;
 6/7=2,8=2,9=2,10=2/1;
 99//99;
 ----------------------------
 [1,1'-diethyl-2,2'-cyanine]+
 ----------------------------
 Symbolic Z-matrix:
 Charge =  1 Multiplicity = 1
 C
 C                    1    B1
 C                    2    B2       1    A1
 C                    3    B3       2    A2       1    D1       0
 C                    4    B4       3    A3       2    D2       0
 C                    5    B5       4    A4       3    D3       0
 H                    3    B6       2    A5       1    D4       0
 H                    1    B7       2    A6       3    D5       0
 H                    2    B8       1    A7       6    D6       0
 C                    3    B9       2    A8       1    D7       0
 H                    5    B10      4    A9       3    D8       0
 H                    6    B11      5    A10      4    D9       0
 C                    10   B12      3    A11      2    D10      0
 C                    10   B13      3    A12      2    D11      0
 H                    13   B14      10   A13      3    D12      0
 H                    14   B15      10   A14      3    D13      0
 C                    13   B16      10   A15      3    D14      0
 H                    17   B17      13   A16      10   D15      0
 C                    17   B18      13   A17      10   D16      0
 C                    19   B19      17   A18      13   D17      0
 C                    19   B20      17   A19      13   D18      0
 H                    19   B21      17   A20      13   D19      0
 C                    20   B22      19   A21      17   D20      0
 H                    20   B23      19   A22      17   D21      0
 C                    21   B24      19   A23      17   D22      0
 C                    21   B25      19   A24      17   D23      0
 H                    23   B26      20   A25      19   D24      0
 C                    25   B27      21   A26      19   D25      0
 C                    26   B28      21   A27      19   D26      0
 H                    26   B29      21   A28      19   D27      0
 C                    28   B30      25   A29      21   D28      0
 H                    28   B31      25   A30      21   D29      0
 H                    29   B32      26   A31      21   D30      0
 H                    31   B33      28   A32      25   D31      0
 N                    19   B34      17   A33      13   D32      0
 N                    13   B35      10   A34      3    D33      0
       Variables:
  B1                    1.40096                  
  B2                    1.40096                  
  B3                    1.40156                  
  B4                    1.40184                  
  B5                    1.40184                  
  B6                    2.14721                  
  B7                    1.07                     
  B8                    1.07                     
  B9                    1.39487                  
  B10                   1.07                     
  B11                   1.07                     
  B12                   2.41441                  
  B13                   1.39487                  
  B14                   2.03155                  
  B15                   1.07                     
  B16                   1.54                     
  B17                   1.07                     
  B18                   1.3552                   
  B19                   1.40156                  
  B20                   2.34225                  
  B21                   2.03155                  
  B22                   1.39487                  
  B23                   1.07                     
  B24                   1.40156                  
  B25                   1.40184                  
  B26                   1.07                     
  B27                   1.40096                  
  B28                   1.40184                  
  B29                   1.07                     
  B30                   1.40096                  
  B31                   1.07                     
  B32                   1.07                     
  B33                   1.07                     
  B34                   1.34431                  
  B35                   1.34431                  
  A1                  119.92036                  
  A2                  120.26164                  
  A3                  119.73353                  
  A4                  120.08219                  
  A5                   94.92335                  
  A6                  120.01966                  
  A7                  120.03982                  
  A8                  120.32015                  
  A9                  119.95891                  
  A10                 119.9792                   
  A11                  88.40011                  
  A12                 118.78106                  
  A13                 115.78829                  
  A14                 120.30087                  
  A15                 149.91262                  
  A16                 119.99998                  
  A17                 120.00002                  
  A18                 119.69185                  
  A19                 149.09668                  
  A20                  94.29909                  
  A21                 119.39826                  
  A22                 120.30088                  
  A23                  91.191                    
  A24                 149.07547                  
  A25                 120.60946                  
  A26                 120.26165                  
  A27                 120.08218                  
  A28                 119.95892                  
  A29                 119.92035                  
  A30                 120.03983                  
  A31                 119.97919                  
  A32                 120.01965                  
  A33                 119.69182                  
  A34                  90.39556                  
  D1                    0.                       
  D2                    0.                       
  D3                    0.                       
  D4                 -180.                       
  D5                  180.                       
  D6                 -180.                       
  D7                 -180.                       
  D8                 -180.                       
  D9                 -180.                       
  D10                 180.                       
  D11                 180.                       
  D12                   0.                       
  D13                -180.                       
  D14                -180.                       
  D15                 180.                       
  D16                   0.                       
  D17                   0.                       
  D18                -180.                       
  D19                -180.                       
  D20                 180.                       
  D21                   0.                       
  D22                -180.                       
  D23                   0.                       
  D24                -180.                       
  D25                 180.                       
  D26                -180.                       
  D27                   0.                       
  D28                   0.                       
  D29                -180.                       
  D30                 180.                       
  D31                 180.                       
  D32                -180.                       
  D33                   0.                       
 

 GradGradGradGradGradGradGradGradGradGradGradGradGradGradGradGradGradGrad
 Berny optimization.
 Initialization pass.
                           ----------------------------
                           !    Initial Parameters    !
                           ! (Angstroms and Degrees)  !
 --------------------------                            --------------------------
 ! Name  Definition              Value          Derivative Info.                !
 --------------------------------------------------------------------------------
 ! R1    R(1,2)                  1.401          calculate D2E/DX2 analytically  !
 ! R2    R(1,6)                  1.4014         calculate D2E/DX2 analytically  !
 ! R3    R(1,8)                  1.07           calculate D2E/DX2 analytically  !
 ! R4    R(2,3)                  1.401          calculate D2E/DX2 analytically  !
 ! R5    R(2,9)                  1.07           calculate D2E/DX2 analytically  !
 ! R6    R(3,4)                  1.4016         calculate D2E/DX2 analytically  !
 ! R7    R(3,10)                 1.3949         calculate D2E/DX2 analytically  !
 ! R8    R(4,5)                  1.4018         calculate D2E/DX2 analytically  !
 ! R9    R(4,36)                 1.3443         calculate D2E/DX2 analytically  !
 ! R10   R(5,6)                  1.4018         calculate D2E/DX2 analytically  !
 ! R11   R(5,11)                 1.07           calculate D2E/DX2 analytically  !
 ! R12   R(6,12)                 1.07           calculate D2E/DX2 analytically  !
 ! R13   R(7,10)                 1.07           calculate D2E/DX2 analytically  !
 ! R14   R(10,14)                1.3949         calculate D2E/DX2 analytically  !
 ! R15   R(13,14)                1.4016         calculate D2E/DX2 analytically  !
 ! R16   R(13,17)                1.54           calculate D2E/DX2 analytically  !
 ! R17   R(13,36)                1.3443         calculate D2E/DX2 analytically  !
 ! R18   R(14,16)                1.07           calculate D2E/DX2 analytically  !
 ! R19   R(15,36)                1.0            calculate D2E/DX2 analytically  !
 ! R20   R(16,24)                0.6455         calculate D2E/DX2 analytically  !
 ! R21   R(17,18)                1.07           calculate D2E/DX2 analytically  !
 ! R22   R(17,19)                1.3552         calculate D2E/DX2 analytically  !
 ! R23   R(19,20)                1.4016         calculate D2E/DX2 analytically  !
 ! R24   R(19,35)                1.3443         calculate D2E/DX2 analytically  !
 ! R25   R(20,23)                1.3949         calculate D2E/DX2 analytically  !
 ! R26   R(20,24)                1.07           calculate D2E/DX2 analytically  !
 ! R27   R(21,25)                1.4016         calculate D2E/DX2 analytically  !
 ! R28   R(21,26)                1.4018         calculate D2E/DX2 analytically  !
 ! R29   R(21,35)                1.3443         calculate D2E/DX2 analytically  !
 ! R30   R(22,35)                1.0            calculate D2E/DX2 analytically  !
 ! R31   R(23,25)                1.3949         calculate D2E/DX2 analytically  !
 ! R32   R(23,27)                1.07           calculate D2E/DX2 analytically  !
 ! R33   R(25,28)                1.401          calculate D2E/DX2 analytically  !
 ! R34   R(26,29)                1.4018         calculate D2E/DX2 analytically  !
 ! R35   R(26,30)                1.07           calculate D2E/DX2 analytically  !
 ! R36   R(28,31)                1.401          calculate D2E/DX2 analytically  !
 ! R37   R(28,32)                1.07           calculate D2E/DX2 analytically  !
 ! R38   R(29,31)                1.4014         calculate D2E/DX2 analytically  !
 ! R39   R(29,33)                1.07           calculate D2E/DX2 analytically  !
 ! R40   R(31,34)                1.07           calculate D2E/DX2 analytically  !
 ! A1    A(2,1,6)              119.9607         calculate D2E/DX2 analytically  !
 ! A2    A(2,1,8)              120.0197         calculate D2E/DX2 analytically  !
 ! A3    A(6,1,8)              120.0197         calculate D2E/DX2 analytically  !
 ! A4    A(1,2,3)              119.9204         calculate D2E/DX2 analytically  !
 ! A5    A(1,2,9)              120.0398         calculate D2E/DX2 analytically  !
 ! A6    A(3,2,9)              120.0398         calculate D2E/DX2 analytically  !
 ! A7    A(2,3,4)              120.2616         calculate D2E/DX2 analytically  !
 ! A8    A(2,3,10)             120.3202         calculate D2E/DX2 analytically  !
 ! A9    A(4,3,10)             119.4182         calculate D2E/DX2 analytically  !
 ! A10   A(3,4,5)              119.7335         calculate D2E/DX2 analytically  !
 ! A11   A(3,4,36)             120.5958         calculate D2E/DX2 analytically  !
 ! A12   A(5,4,36)             119.6707         calculate D2E/DX2 analytically  !
 ! A13   A(4,5,6)              120.0822         calculate D2E/DX2 analytically  !
 ! A14   A(4,5,11)             119.9589         calculate D2E/DX2 analytically  !
 ! A15   A(6,5,11)             119.9589         calculate D2E/DX2 analytically  !
 ! A16   A(1,6,5)              120.0416         calculate D2E/DX2 analytically  !
 ! A17   A(1,6,12)             119.9792         calculate D2E/DX2 analytically  !
 ! A18   A(5,6,12)             119.9792         calculate D2E/DX2 analytically  !
 ! A19   A(3,10,7)             120.6095         calculate D2E/DX2 analytically  !
 ! A20   A(3,10,14)            118.7811         calculate D2E/DX2 analytically  !
 ! A21   A(7,10,14)            120.6095         calculate D2E/DX2 analytically  !
 ! A22   A(14,13,17)           119.6918         calculate D2E/DX2 analytically  !
 ! A23   A(14,13,36)           120.6163         calculate D2E/DX2 analytically  !
 ! A24   A(17,13,36)           119.6918         calculate D2E/DX2 analytically  !
 ! A25   A(10,14,13)           119.3983         calculate D2E/DX2 analytically  !
 ! A26   A(10,14,16)           120.3009         calculate D2E/DX2 analytically  !
 ! A27   A(13,14,16)           120.3009         calculate D2E/DX2 analytically  !
 ! A28   A(14,16,24)           141.7769         calculate D2E/DX2 analytically  !
 ! A29   A(13,17,18)           120.0            calculate D2E/DX2 analytically  !
 ! A30   A(13,17,19)           120.0            calculate D2E/DX2 analytically  !
 ! A31   A(18,17,19)           120.0            calculate D2E/DX2 analytically  !
 ! A32   A(17,19,20)           119.6918         calculate D2E/DX2 analytically  !
 ! A33   A(17,19,35)           119.6918         calculate D2E/DX2 analytically  !
 ! A34   A(20,19,35)           120.6163         calculate D2E/DX2 analytically  !
 ! A35   A(19,20,23)           119.3983         calculate D2E/DX2 analytically  !
 ! A36   A(19,20,24)           120.3009         calculate D2E/DX2 analytically  !
 ! A37   A(23,20,24)           120.3009         calculate D2E/DX2 analytically  !
 ! A38   A(25,21,26)           119.7335         calculate D2E/DX2 analytically  !
 ! A39   A(25,21,35)           120.5958         calculate D2E/DX2 analytically  !
 ! A40   A(26,21,35)           119.6706         calculate D2E/DX2 analytically  !
 ! A41   A(20,23,25)           118.7811         calculate D2E/DX2 analytically  !
 ! A42   A(20,23,27)           120.6095         calculate D2E/DX2 analytically  !
 ! A43   A(25,23,27)           120.6095         calculate D2E/DX2 analytically  !
 ! A44   A(16,24,20)           158.2377         calculate D2E/DX2 analytically  !
 ! A45   A(21,25,23)           119.4182         calculate D2E/DX2 analytically  !
 ! A46   A(21,25,28)           120.2617         calculate D2E/DX2 analytically  !
 ! A47   A(23,25,28)           120.3201         calculate D2E/DX2 analytically  !
 ! A48   A(21,26,29)           120.0822         calculate D2E/DX2 analytically  !
 ! A49   A(21,26,30)           119.9589         calculate D2E/DX2 analytically  !
 ! A50   A(29,26,30)           119.9589         calculate D2E/DX2 analytically  !
 ! A51   A(25,28,31)           119.9203         calculate D2E/DX2 analytically  !
 ! A52   A(25,28,32)           120.0398         calculate D2E/DX2 analytically  !
 ! A53   A(31,28,32)           120.0398         calculate D2E/DX2 analytically  !
 ! A54   A(26,29,31)           120.0416         calculate D2E/DX2 analytically  !
 ! A55   A(26,29,33)           119.9792         calculate D2E/DX2 analytically  !
 ! A56   A(31,29,33)           119.9792         calculate D2E/DX2 analytically  !
 ! A57   A(28,31,29)           119.9607         calculate D2E/DX2 analytically  !
 ! A58   A(28,31,34)           120.0196         calculate D2E/DX2 analytically  !
 ! A59   A(29,31,34)           120.0197         calculate D2E/DX2 analytically  !
 ! A60   A(19,35,21)           121.1903         calculate D2E/DX2 analytically  !
 ! A61   A(19,35,22)           119.4048         calculate D2E/DX2 analytically  !
 ! A62   A(21,35,22)           119.4048         calculate D2E/DX2 analytically  !
 ! A63   A(4,36,13)            121.1903         calculate D2E/DX2 analytically  !
 ! A64   A(4,36,15)            119.4048         calculate D2E/DX2 analytically  !
 ! A65   A(13,36,15)           119.4048         calculate D2E/DX2 analytically  !
 ! D1    D(6,1,2,3)              0.0            calculate D2E/DX2 analytically  !
 ! D2    D(6,1,2,9)            180.0            calculate D2E/DX2 analytically  !
 ! D3    D(8,1,2,3)            180.0            calculate D2E/DX2 analytically  !
 ! D4    D(2,1,6,5)              0.0            calculate D2E/DX2 analytically  !
 ! D5    D(2,1,6,12)           180.0            calculate D2E/DX2 analytically  !
 ! D6    D(8,1,6,5)            180.0            calculate D2E/DX2 analytically  !
 ! D7    D(1,2,3,4)              0.0            calculate D2E/DX2 analytically  !
 ! D8    D(1,2,3,10)           180.0            calculate D2E/DX2 analytically  !
 ! D9    D(9,2,3,4)            180.0            calculate D2E/DX2 analytically  !
 ! D10   D(2,3,4,5)              0.0            calculate D2E/DX2 analytically  !
 ! D11   D(2,3,4,36)           180.0            calculate D2E/DX2 analytically  !
 ! D12   D(10,3,4,5)           180.0            calculate D2E/DX2 analytically  !
 ! D13   D(2,3,10,7)             0.0            calculate D2E/DX2 analytically  !
 ! D14   D(2,3,10,14)          180.0            calculate D2E/DX2 analytically  !
 ! D15   D(4,3,10,7)           180.0            calculate D2E/DX2 analytically  !
 ! D16   D(3,4,5,6)              0.0            calculate D2E/DX2 analytically  !
 ! D17   D(3,4,5,11)           180.0            calculate D2E/DX2 analytically  !
 ! D18   D(36,4,5,6)           180.0            calculate D2E/DX2 analytically  !
 ! D19   D(3,4,36,13)            0.0            calculate D2E/DX2 analytically  !
 ! D20   D(3,4,36,15)          180.0            calculate D2E/DX2 analytically  !
 ! D21   D(5,4,36,13)          180.0            calculate D2E/DX2 analytically  !
 ! D22   D(4,5,6,1)              0.0            calculate D2E/DX2 analytically  !
 ! D23   D(4,5,6,12)           180.0            calculate D2E/DX2 analytically  !
 ! D24   D(11,5,6,1)           180.0            calculate D2E/DX2 analytically  !
 ! D25   D(3,10,14,13)           0.0            calculate D2E/DX2 analytically  !
 ! D26   D(3,10,14,16)         180.0            calculate D2E/DX2 analytically  !
 ! D27   D(7,10,14,13)         180.0            calculate D2E/DX2 analytically  !
 ! D28   D(17,13,14,10)        180.0            calculate D2E/DX2 analytically  !
 ! D29   D(17,13,14,16)          0.0            calculate D2E/DX2 analytically  !
 ! D30   D(36,13,14,10)          0.0            calculate D2E/DX2 analytically  !
 ! D31   D(14,13,17,18)        180.0            calculate D2E/DX2 analytically  !
 ! D32   D(14,13,17,19)          0.0            calculate D2E/DX2 analytically  !
 ! D33   D(36,13,17,18)          0.0            calculate D2E/DX2 analytically  !
 ! D34   D(14,13,36,4)           0.0            calculate D2E/DX2 analytically  !
 ! D35   D(14,13,36,15)        180.0            calculate D2E/DX2 analytically  !
 ! D36   D(17,13,36,4)         180.0            calculate D2E/DX2 analytically  !
 ! D37   D(10,14,16,24)        180.0            calculate D2E/DX2 analytically  !
 ! D38   D(13,14,16,24)          0.0            calculate D2E/DX2 analytically  !
 ! D39   D(14,16,24,20)          0.0            calculate D2E/DX2 analytically  !
 ! D40   D(13,17,19,20)          0.0            calculate D2E/DX2 analytically  !
 ! D41   D(13,17,19,35)        180.0            calculate D2E/DX2 analytically  !
 ! D42   D(18,17,19,20)        180.0            calculate D2E/DX2 analytically  !
 ! D43   D(17,19,20,23)        180.0            calculate D2E/DX2 analytically  !
 ! D44   D(17,19,20,24)          0.0            calculate D2E/DX2 analytically  !
 ! D45   D(35,19,20,23)          0.0            calculate D2E/DX2 analytically  !
 ! D46   D(17,19,35,21)        180.0            calculate D2E/DX2 analytically  !
 ! D47   D(17,19,35,22)          0.0            calculate D2E/DX2 analytically  !
 ! D48   D(20,19,35,21)          0.0            calculate D2E/DX2 analytically  !
 ! D49   D(19,20,23,25)          0.0            calculate D2E/DX2 analytically  !
 ! D50   D(19,20,23,27)        180.0            calculate D2E/DX2 analytically  !
 ! D51   D(24,20,23,25)        180.0            calculate D2E/DX2 analytically  !
 ! D52   D(19,20,24,16)          0.0            calculate D2E/DX2 analytically  !
 ! D53   D(23,20,24,16)        180.0            calculate D2E/DX2 analytically  !
 ! D54   D(26,21,25,23)        180.0            calculate D2E/DX2 analytically  !
 ! D55   D(26,21,25,28)          0.0            calculate D2E/DX2 analytically  !
 ! D56   D(35,21,25,23)          0.0            calculate D2E/DX2 analytically  !
 ! D57   D(25,21,26,29)          0.0            calculate D2E/DX2 analytically  !
 ! D58   D(25,21,26,30)        180.0            calculate D2E/DX2 analytically  !
 ! D59   D(35,21,26,29)        180.0            calculate D2E/DX2 analytically  !
 ! D60   D(25,21,35,19)          0.0            calculate D2E/DX2 analytically  !
 ! D61   D(25,21,35,22)        180.0            calculate D2E/DX2 analytically  !
 ! D62   D(26,21,35,19)        180.0            calculate D2E/DX2 analytically  !
 ! D63   D(20,23,25,21)          0.0            calculate D2E/DX2 analytically  !
 ! D64   D(20,23,25,28)        180.0            calculate D2E/DX2 analytically  !
 ! D65   D(27,23,25,21)        180.0            calculate D2E/DX2 analytically  !
 ! D66   D(21,25,28,31)          0.0            calculate D2E/DX2 analytically  !
 ! D67   D(21,25,28,32)        180.0            calculate D2E/DX2 analytically  !
 ! D68   D(23,25,28,31)        180.0            calculate D2E/DX2 analytically  !
 ! D69   D(21,26,29,31)          0.0            calculate D2E/DX2 analytically  !
 ! D70   D(21,26,29,33)        180.0            calculate D2E/DX2 analytically  !
 ! D71   D(30,26,29,31)        180.0            calculate D2E/DX2 analytically  !
 ! D72   D(25,28,31,29)          0.0            calculate D2E/DX2 analytically  !
 ! D73   D(25,28,31,34)        180.0            calculate D2E/DX2 analytically  !
 ! D74   D(32,28,31,29)        180.0            calculate D2E/DX2 analytically  !
 ! D75   D(26,29,31,28)          0.0            calculate D2E/DX2 analytically  !
 ! D76   D(26,29,31,34)        180.0            calculate D2E/DX2 analytically  !
 ! D77   D(33,29,31,28)        180.0            calculate D2E/DX2 analytically  !
 --------------------------------------------------------------------------------
 Trust Radius=3.00D-01 FncErr=1.00D-07 GrdErr=1.00D-06
 Number of steps in this run= 192 maximum allowed number of steps= 216.
 GradGradGradGradGradGradGradGradGradGradGradGradGradGradGradGradGradGrad

                          Input orientation:                          
 ---------------------------------------------------------------------
 Center     Atomic     Atomic              Coordinates (Angstroms)
 Number     Number      Type              X           Y           Z
 ---------------------------------------------------------------------
    1          6             0        0.000000    0.000000    0.000000
    2          6             0        0.000000    0.000000    1.400963
    3          6             0        1.214243    0.000000    2.099758
    4          6             0        2.430248    0.000000    1.402838
    5          6             0        2.428182    0.000000    0.001003
    6          6             0        1.214128    0.000000   -0.699867
    7          1             0        0.306896    0.000000    4.045836
    8          1             0       -0.926464    0.000000   -0.535318
    9          1             0       -0.926275    0.000000    1.936607
   10          6             0        1.223976    0.000000    3.494597
   11          1             0        3.354424    0.000000   -0.534699
   12          1             0        1.214474    0.000000   -1.769867
   13          6             0        3.636911    0.000000    3.410348
   14          6             0        2.451189    0.000000    4.157629
   15          1             0        4.456365    0.000000    1.551394
   16          1             0        2.487031    0.000000    5.227029
   17          6             0        4.995542    0.000000    4.135414
   18          1             0        5.903820    0.000000    3.569790
   19          6             0        5.040766    0.000000    5.489859
   20          6             0        3.847074    0.000000    6.224344
   21          6             0        6.310120    0.000000    7.458329
   22          1             0        7.070558    0.000000    5.574462
   23          6             0        3.900765    0.000000    7.618180
   24          1             0        2.903154    0.000000    5.720444
   25          6             0        5.148266    0.000000    8.242205
   26          6             0        7.567283    0.000000    8.078561
   27          1             0        3.001514    0.000000    8.198049
   28          6             0        5.239771    0.000000    9.640178
   29          6             0        7.660734    0.000000    9.477278
   30          1             0        8.456631    0.000000    7.483615
   31          6             0        6.497063    0.000000   10.258171
   32          1             0        4.350461    0.000000   10.235179
   33          1             0        8.621156    0.000000    9.948966
   34          1             0        6.568802    0.000000   11.325763
   35          7             0        6.230140    0.000000    6.116401
   36          7             0        3.599279    0.000000    2.066567
 ---------------------------------------------------------------------
                    Distance matrix (angstroms):
                    1          2          3          4          5
     1  C    0.000000
     2  C    1.400963   0.000000
     3  C    2.425566   1.400964   0.000000
     4  C    2.806076   2.430249   1.401559   0.000000
     5  C    2.428182   2.802848   2.424546   1.401837   0.000000
     6  C    1.401400   2.426437   2.799625   2.429057   1.401836
     7  H    4.057459   2.662618   2.147206   3.390289   4.567332
     8  H    1.070000   2.146514   3.395034   3.876076   3.397247
     9  H    2.146726   1.070000   2.146727   3.398700   3.872847
    10  C    3.702745   2.425163   1.394872   2.414652   3.695309
    11  H    3.396772   3.872847   3.394221   2.146660   1.070000
    12  H    2.146480   3.395454   3.869625   3.397671   2.146874
    13  C    4.985739   4.155087   2.754444   2.342249   3.617273
    14  C    4.826407   3.688839   2.401014   2.754871   4.156690
    15  H    4.718688   4.458904   3.288170   2.031556   2.552889
    16  H    5.788536   4.563343   3.376360   3.824612   5.226357
    17  C    6.485144   5.694968   4.294429   3.748027   4.866693
    18  H    6.899166   6.289587   4.914583   4.094066   4.981597
    19  C    7.453045   6.490639   5.112246   4.849592   6.078910
    20  C    7.317270   6.169682   4.893261   5.025367   6.383042
    21  C    9.769559   8.746959   7.394744   7.191826   8.407208
    22  H    9.003745   8.210413   6.809551   6.239785   7.253627
    23  C    8.558775   7.339601   6.137620   6.386931   7.758214
    24  H    6.414966   5.204442   3.995220   4.343427   5.739130
    25  C    9.717952   8.561964   7.294257   7.359658   8.678495
    26  C   11.069188  10.092278   8.723943   8.423443   9.573782
    27  H    8.730241   7.430307   6.354800   6.819182   8.217073
    28  C   10.972158   9.764214   8.547678   8.703286  10.040854
    29  C   12.186289  11.131653   9.797195   9.620528  10.824943
    30  H   11.292436  10.416970   9.024306   8.561141   9.608938
    31  C   12.142565  10.984623   9.719459   9.744532  11.034731
    32  H   11.121394   9.847328   8.718998   9.038665  10.413142
    33  H   13.164583  12.140538  10.792238  10.552897  11.718144
    34  H   13.092825  11.901714  10.667261  10.751375  12.057982
    35  N    8.730693   7.813449   6.425934   6.054490   7.200901
    36  N    4.150362   3.660306   2.385266   1.344309   2.374452
                    6          7          8          9         10
     6  C    0.000000
     7  H    4.831642   0.000000
     8  H    2.146907   4.744275   0.000000
     9  H    3.395927   2.443268   2.471925   0.000000
    10  C    4.194475   1.070000   4.567779   2.655355   0.000000
    11  H    2.146659   5.501701   4.280887   4.942847   4.557853
    12  H    1.070000   5.886093   2.471381   4.280275   5.264472
    13  C    4.771137   3.390110   6.032634   4.795267   2.414405
    14  C    5.012543   2.147205   5.782066   4.042302   1.394870
    15  H    3.947186   4.841521   5.773146   5.396407   3.771521
    16  H    6.062044   2.479557   6.697506   4.741047   2.143975
    17  C    6.138325   4.689502   7.542274   6.316856   3.825619
    18  H    6.342175   5.617133   7.968983   7.022641   4.680448
    19  C    7.277078   4.949215   8.480011   6.944867   4.306850
    20  C    7.407908   4.156772   8.275246   6.416350   3.785784
    21  C    9.619007   6.905346  10.782696   9.102462   6.448258
    22  H    8.582831   6.934250  10.063885   8.785405   6.205511
    23  C    8.741162   5.067300   9.475319   7.455239   4.916212
    24  H    6.638765   3.089477   7.334885   5.383489   2.788196
    25  C    9.769242   6.406901  10.674608   8.755605   6.159532
    26  C   10.836206   8.305184  12.097216  10.481609   7.826255
    27  H    9.075663   4.949934   9.576049   7.391426   5.028132
    28  C   11.096051   7.458547  11.898033   9.867377   7.341307
    29  C   12.047116   9.142182  13.190604  11.427968   8.787737
    30  H   10.928093   8.845140  12.342842  10.899918   8.259755
    31  C   12.165032   8.769907  13.099929  11.151429   8.576210
    32  H   11.375931   7.393131  11.993729   9.834136   7.430367
    33  H   12.971573  10.196757  14.180171  12.464001   9.817186
    34  H   13.163902   9.602541  14.030832  12.013843   9.481262
    35  N    8.462971   6.274715   9.770483   8.287638   5.651153
    36  N    3.652684   3.841521   5.220359   4.527420   2.771521
                   11         12         13         14         15
    11  H    0.000000
    12  H    2.470835   0.000000
    13  C    3.955148   5.718639   0.000000
    14  C    4.778470   6.055136   1.401559   0.000000
    15  H    2.359250   4.641189   2.031554   3.288342   0.000000
    16  H    5.826652   7.111677   2.150013   1.070000   4.169960
    17  C    4.950073   7.012049   1.540000   2.544451   2.639672
    18  H    4.831796   7.106469   2.272509   3.502316   2.483756
    19  C    6.256121   8.206347   2.509019   2.912172   3.981586
    20  C    6.776973   8.416531   2.821833   2.493954   4.712503
    21  C    8.522009  10.541594   4.850999   5.077988   6.190984
    22  H    7.150630   9.393237   4.058734   4.831769   4.797820
    23  C    8.171164   9.764814   4.216097   3.751890   6.092174
    24  H    6.271400   7.678307   2.423828   1.626857   4.448982
    25  C    8.958343  10.757152   5.062711   4.894690   6.726491
    26  C    9.588348  11.719629   6.102461   6.445783   7.230609
    27  H    8.739876  10.126839   4.829681   4.077726   6.804015
    28  C   10.348075  12.099262   6.432725   6.150978   8.126632
    29  C   10.898807  12.963508   7.280027   7.445672   8.549129
    30  H    9.503993  11.750565   6.310404   6.864948   7.154954
    31  C   11.241095  13.136949   7.421128   7.320226   8.942729
    32  H   10.815838  12.407882   6.862031   6.367405   8.684430
    33  H   11.732250  13.863260   8.221692   8.462155   9.373617
    34  H   12.288319  14.147945   8.440958   8.266612  10.000033
    35  N    7.246162   9.346129   3.748007   4.256437   4.897505
    36  N    2.612764   4.517247   1.344308   2.385509   1.000000
                   16         17         18         19         20
    16  H    0.000000
    17  C    2.735736   0.000000
    18  H    3.797485   1.070000   0.000000
    19  C    2.567225   1.355200   2.105120   0.000000
    20  C    1.686522   2.383821   3.358104   1.401559   0.000000
    21  C    4.426591   3.573496   3.909708   2.342249   2.754870
    22  H    4.596676   2.525183   2.319480   2.031555   3.288342
    23  C    2.777814   3.650780   4.516824   2.414405   1.394870
    24  H    0.645459   2.624959   3.691790   2.150013   1.070000
    25  C    4.021624   4.109630   4.733110   2.754445   2.401014
    26  C    5.825821   4.707680   4.805843   3.617273   4.156690
    27  H    3.015237   4.525611   5.462982   3.390110   2.147205
    28  C    5.201295   5.510179   6.106601   4.155087   3.688839
    29  C    6.695657   5.969821   6.163211   4.771136   5.012543
    30  H    6.381873   4.815556   4.672780   3.955148   4.778470
    31  C    6.433720   6.304182   6.714639   4.985739   4.826407
    32  H    5.343589   6.133781   6.844001   4.795267   4.042301
    33  H    7.741071   6.851457   6.933816   5.718638   6.055135
    34  H    7.338625   7.360453   7.784428   6.032633   5.782065
    35  N    3.847317   2.334210   2.567433   1.344308   2.385509
    36  N    3.350465   2.495933   2.751471   3.714407   4.165154
                   21         22         23         24         25
    21  C    0.000000
    22  H    2.031556   0.000000
    23  C    2.414652   3.771521   0.000000
    24  H    3.824612   4.169960   2.143975   0.000000
    25  C    1.401559   3.288170   1.394872   3.376360   0.000000
    26  C    1.401837   2.552889   3.695309   5.226357   2.424546
    27  H    3.390289   4.841521   1.070000   2.479557   2.147206
    28  C    2.430249   4.458904   2.425163   4.563343   1.400964
    29  C    2.429057   3.947186   4.194474   6.062043   2.799625
    30  H    2.146660   2.359250   4.557853   5.826652   3.394221
    31  C    2.806076   4.718688   3.702745   5.788536   2.425566
    32  H    3.398700   5.396407   2.655355   4.741047   2.146727
    33  H    3.397670   4.641189   5.264471   7.111676   3.869625
    34  H    3.876076   5.773146   4.567778   6.697505   3.395033
    35  N    1.344310   1.000000   2.771521   3.350465   2.385267
    36  N    6.034878   4.935090   5.559793   3.719598   6.366936
                   26         27         28         29         30
    26  C    0.000000
    27  H    4.567332   0.000000
    28  C    2.802848   2.662618   0.000000
    29  C    1.401836   4.831641   2.426437   0.000000
    30  H    1.070000   5.501701   3.872847   2.146659   0.000000
    31  C    2.428182   4.057458   1.400963   1.401400   3.396772
    32  H    3.872847   2.443267   1.070000   3.395927   4.942847
    33  H    2.146873   5.886092   3.395454   1.070000   2.470834
    34  H    3.397247   4.744274   2.146513   2.146907   4.280887
    35  N    2.374452   3.841521   3.660306   3.652684   2.612764
    36  N    7.203411   6.160552   7.749245   8.450684   7.275870
                   31         32         33         34         35
    31  C    0.000000
    32  H    2.146726   0.000000
    33  H    2.146480   4.280275   0.000000
    34  H    1.070000   2.471925   2.471381   0.000000
    35  N    4.150362   4.527420   4.517246   5.220359   0.000000
    36  N    8.689046   8.203079   9.346200   9.723722   4.829346
                   36
    36  N    0.000000
 Stoichiometry    C19H15N2(1+)
 Framework group  CS[SG(C19H15N2)]
 Deg. of freedom    69
 Full point group                 CS      NOp   2
 Largest Abelian subgroup         CS      NOp   2
 Largest concise Abelian subgroup C1      NOp   1
                         Standard orientation:                         
 ---------------------------------------------------------------------
 Center     Atomic     Atomic              Coordinates (Angstroms)
 Number     Number      Type              X           Y           Z
 ---------------------------------------------------------------------
    1          6             0        6.020836   -1.104829    0.000000
    2          6             0        4.790449   -1.774788    0.000000
    3          6             0        3.596069   -1.042560    0.000000
    4          6             0        3.626625    0.358666    0.000000
    5          6             0        4.858767    1.027227    0.000000
    6          6             0        6.054878    0.296157    0.000000
    7          1             0        2.320844   -2.770071    0.000000
    8          1             0        6.934023   -1.662494    0.000000
    9          1             0        4.762980   -2.844436    0.000000
   10          6             0        2.366407   -1.701042    0.000000
   11          1             0        4.886302    2.096872    0.000000
   12          1             0        6.994433    0.808149    0.000000
   13          6             0        1.286500    0.458392    0.000000
   14          6             0        1.197233   -0.940321    0.000000
   15          1             0        2.527241    2.067049    0.000000
   16          1             0        0.240900   -1.420244    0.000000
   17          6             0        0.000000    1.304865    0.000000
   18          1             0        0.062406    2.373044    0.000000
   19          6             0       -1.211160    0.696869    0.000000
   20          6             0       -1.285377   -0.702723    0.000000
   21          6             0       -3.546977    0.870323    0.000000
   22          1             0       -2.256135    2.439063    0.000000
   23          6             0       -2.535180   -1.322121    0.000000
   24          1             0       -0.391435   -1.290744    0.000000
   25          6             0       -3.679798   -0.524928    0.000000
   26          6             0       -4.692884    1.677815    0.000000
   27          1             0       -2.614413   -2.389184    0.000000
   28          6             0       -4.951318   -1.113093    0.000000
   29          6             0       -5.965989    1.091003    0.000000
   30          1             0       -4.595675    2.743390    0.000000
   31          6             0       -6.095320   -0.304417    0.000000
   32          1             0       -5.048594   -2.178662    0.000000
   33          1             0       -6.839532    1.708920    0.000000
   34          1             0       -7.067233   -0.751949    0.000000
   35          7             0       -2.330190    1.441809    0.000000
   36          7             0        2.484664    1.067955    0.000000
 ---------------------------------------------------------------------
 Rotational constants (GHZ):      1.4459892      0.1201878      0.1109647
 Standard basis: VSTO-3G (5D, 7F)
 There are    78 symmetry adapted basis functions of A'  symmetry.
 There are    21 symmetry adapted basis functions of A"  symmetry.
 Integral buffers will be    262144 words long.
 Raffenetti 1 integral format.
 Two-electron integral symmetry is turned on.
    99 basis functions,   297 primitive gaussians,    99 cartesian basis functions
    50 alpha electrons       50 beta electrons
       nuclear repulsion energy       719.5215614161 Hartrees.
 NAtoms=   36 NActive=   36 NUniq=   36 SFac= 1.00D+00 NAtFMM=   60 Big=F
 Simple Huckel Guess.
 Initial guess orbital symmetries:
       Occupied  (A') (A') (A') (A') (A') (A') (A') (A') (A') (A')
                 (A') (A') (A') (A') (A') (A') (A') (A') (A') (A')
                 (A') (A') (A') (A') (A") (A') (A") (A') (A') (A')
                 (A') (A') (A") (A') (A") (A') (A') (A') (A") (A")
                 (A') (A") (A') (A') (A') (A") (A") (A") (A") (A')
       Virtual   (A") (A") (A") (A") (A") (A") (A") (A") (A") (A")
                 (A') (A') (A') (A') (A') (A') (A') (A') (A') (A')
                 (A') (A') (A') (A') (A') (A') (A') (A') (A') (A')
                 (A') (A') (A') (A') (A') (A') (A') (A') (A') (A')
                 (A') (A') (A') (A') (A') (A') (A') (A') (A')
 The electronic state of the initial guess is 1-A'.
 RHF-PM3 calculation of energy, first and second derivatives.
 MO and density RWFs will be updated without deorthogonalization.
 Numerical evaluation of force-constants.
 Step-Size= 0.018897 bohr.
 Closed-shell calculation:      50 occupied levels.
 NNHCO=    0.
 References:
  H: (PM3): J. J. P. STEWART, J. COMP. CHEM.     10, 209 (1989).
  C: (PM3): J. J. P. STEWART, J. COMP. CHEM.     10, 209 (1989).
  N: (PM3): J. J. P. STEWART, J. COMP. CHEM.     10, 209 (1989).
 Ext34=T Pulay=F Camp-King=F BShift= 0.00D+00
 It=  1 PL= 7.19D-01 DiagD=T ESCF=    281.270660 Diff= 2.38D+01 RMSDP= 1.43D-01.
 It=  2 PL= 4.61D-02 DiagD=T ESCF=    153.276323 Diff=-1.28D+01 RMSDP= 3.69D-03.
 It=  3 PL= 1.53D-02 DiagD=F ESCF=    143.688070 Diff=-9.59D-01 RMSDP= 2.12D-03.
 It=  4 PL= 3.95D-03 DiagD=F ESCF=    141.504723 Diff=-2.18D-01 RMSDP= 3.00D-04.
 It=  5 PL= 2.28D-03 DiagD=F ESCF=    142.160001 Diff= 6.55D-02 RMSDP= 1.56D-04.
 It=  6 PL= 1.36D-03 DiagD=F ESCF=    142.146399 Diff=-1.36D-03 RMSDP= 2.12D-04.
 It=  7 PL= 5.27D-04 DiagD=F ESCF=    142.131106 Diff=-1.53D-03 RMSDP= 2.33D-05.
 It=  8 PL= 3.50D-04 DiagD=F ESCF=    142.139333 Diff= 8.23D-04 RMSDP= 1.48D-05.
 It=  9 PL= 2.29D-04 DiagD=F ESCF=    142.139246 Diff=-8.78D-06 RMSDP= 3.12D-05.
 It= 10 PL= 3.53D-05 DiagD=F ESCF=    142.139013 Diff=-2.32D-05 RMSDP= 1.86D-06.
 It= 11 PL= 1.66D-05 DiagD=F ESCF=    142.139166 Diff= 1.53D-05 RMSDP= 9.77D-07.
 It= 12 PL= 1.10D-05 DiagD=F ESCF=    142.139166 Diff=-4.44D-08 RMSDP= 1.65D-06.
 It= 13 PL= 4.17D-06 DiagD=F ESCF=    142.139165 Diff=-7.32D-08 RMSDP= 2.06D-07.
 It= 14 PL= 2.72D-06 DiagD=F ESCF=    142.139166 Diff= 4.15D-08 RMSDP= 1.30D-07.
 It= 15 PL= 1.78D-06 DiagD=F ESCF=    142.139166 Diff=-6.58D-10 RMSDP= 2.71D-07.
 It= 16 PL= 4.09D-07 DiagD=F ESCF=    142.139166 Diff=-1.71D-09 RMSDP= 2.22D-08.
 SE2nd ... symmetry will be used.
 SE2nd: IAtom=  1 IXYZ=1 IS=1.
 SE2nd: IAtom=  1 IXYZ=1 IS=2.
 SE2nd: IAtom=  1 IXYZ=2 IS=1.
 SE2nd: IAtom=  1 IXYZ=2 IS=2.
 SE2nd: IAtom=  1 IXYZ=3 IS=1.
 Skip step-back as it is equivalent to step-up.
 SE2nd: IAtom=  2 IXYZ=1 IS=1.
 SE2nd: IAtom=  2 IXYZ=1 IS=2.
 SE2nd: IAtom=  2 IXYZ=2 IS=1.
 SE2nd: IAtom=  2 IXYZ=2 IS=2.
 SE2nd: IAtom=  2 IXYZ=3 IS=1.
 Skip step-back as it is equivalent to step-up.
 SE2nd: IAtom=  3 IXYZ=1 IS=1.
 SE2nd: IAtom=  3 IXYZ=1 IS=2.
 SE2nd: IAtom=  3 IXYZ=2 IS=1.
 SE2nd: IAtom=  3 IXYZ=2 IS=2.
 SE2nd: IAtom=  3 IXYZ=3 IS=1.
 Skip step-back as it is equivalent to step-up.
 SE2nd: IAtom=  4 IXYZ=1 IS=1.
 SE2nd: IAtom=  4 IXYZ=1 IS=2.
 SE2nd: IAtom=  4 IXYZ=2 IS=1.
 SE2nd: IAtom=  4 IXYZ=2 IS=2.
 SE2nd: IAtom=  4 IXYZ=3 IS=1.
 Skip step-back as it is equivalent to step-up.
 SE2nd: IAtom=  5 IXYZ=1 IS=1.
 SE2nd: IAtom=  5 IXYZ=1 IS=2.
 SE2nd: IAtom=  5 IXYZ=2 IS=1.
 SE2nd: IAtom=  5 IXYZ=2 IS=2.
 SE2nd: IAtom=  5 IXYZ=3 IS=1.
 Skip step-back as it is equivalent to step-up.
 SE2nd: IAtom=  6 IXYZ=1 IS=1.
 SE2nd: IAtom=  6 IXYZ=1 IS=2.
 SE2nd: IAtom=  6 IXYZ=2 IS=1.
 SE2nd: IAtom=  6 IXYZ=2 IS=2.
 SE2nd: IAtom=  6 IXYZ=3 IS=1.
 Skip step-back as it is equivalent to step-up.
 SE2nd: IAtom=  7 IXYZ=1 IS=1.
 SE2nd: IAtom=  7 IXYZ=1 IS=2.
 SE2nd: IAtom=  7 IXYZ=2 IS=1.
 SE2nd: IAtom=  7 IXYZ=2 IS=2.
 SE2nd: IAtom=  7 IXYZ=3 IS=1.
 Skip step-back as it is equivalent to step-up.
 SE2nd: IAtom=  8 IXYZ=1 IS=1.
 SE2nd: IAtom=  8 IXYZ=1 IS=2.
 SE2nd: IAtom=  8 IXYZ=2 IS=1.
 SE2nd: IAtom=  8 IXYZ=2 IS=2.
 SE2nd: IAtom=  8 IXYZ=3 IS=1.
 Skip step-back as it is equivalent to step-up.
 SE2nd: IAtom=  9 IXYZ=1 IS=1.
 SE2nd: IAtom=  9 IXYZ=1 IS=2.
 SE2nd: IAtom=  9 IXYZ=2 IS=1.
 SE2nd: IAtom=  9 IXYZ=2 IS=2.
 SE2nd: IAtom=  9 IXYZ=3 IS=1.
 Skip step-back as it is equivalent to step-up.
 SE2nd: IAtom= 10 IXYZ=1 IS=1.
 SE2nd: IAtom= 10 IXYZ=1 IS=2.
 SE2nd: IAtom= 10 IXYZ=2 IS=1.
 SE2nd: IAtom= 10 IXYZ=2 IS=2.
 SE2nd: IAtom= 10 IXYZ=3 IS=1.
 Skip step-back as it is equivalent to step-up.
 SE2nd: IAtom= 11 IXYZ=1 IS=1.
 SE2nd: IAtom= 11 IXYZ=1 IS=2.
 SE2nd: IAtom= 11 IXYZ=2 IS=1.
 SE2nd: IAtom= 11 IXYZ=2 IS=2.
 SE2nd: IAtom= 11 IXYZ=3 IS=1.
 Skip step-back as it is equivalent to step-up.
 SE2nd: IAtom= 12 IXYZ=1 IS=1.
 SE2nd: IAtom= 12 IXYZ=1 IS=2.
 SE2nd: IAtom= 12 IXYZ=2 IS=1.
 SE2nd: IAtom= 12 IXYZ=2 IS=2.
 SE2nd: IAtom= 12 IXYZ=3 IS=1.
 Skip step-back as it is equivalent to step-up.
 SE2nd: IAtom= 13 IXYZ=1 IS=1.
 SE2nd: IAtom= 13 IXYZ=1 IS=2.
 SE2nd: IAtom= 13 IXYZ=2 IS=1.
 SE2nd: IAtom= 13 IXYZ=2 IS=2.
 SE2nd: IAtom= 13 IXYZ=3 IS=1.
 Skip step-back as it is equivalent to step-up.
 SE2nd: IAtom= 14 IXYZ=1 IS=1.
 SE2nd: IAtom= 14 IXYZ=1 IS=2.
 SE2nd: IAtom= 14 IXYZ=2 IS=1.
 SE2nd: IAtom= 14 IXYZ=2 IS=2.
 SE2nd: IAtom= 14 IXYZ=3 IS=1.
 Skip step-back as it is equivalent to step-up.
 SE2nd: IAtom= 15 IXYZ=1 IS=1.
 SE2nd: IAtom= 15 IXYZ=1 IS=2.
 SE2nd: IAtom= 15 IXYZ=2 IS=1.
 SE2nd: IAtom= 15 IXYZ=2 IS=2.
 SE2nd: IAtom= 15 IXYZ=3 IS=1.
 Skip step-back as it is equivalent to step-up.
 SE2nd: IAtom= 16 IXYZ=1 IS=1.
 SE2nd: IAtom= 16 IXYZ=1 IS=2.
 SE2nd: IAtom= 16 IXYZ=2 IS=1.
 SE2nd: IAtom= 16 IXYZ=2 IS=2.
 SE2nd: IAtom= 16 IXYZ=3 IS=1.
 Skip step-back as it is equivalent to step-up.
 SE2nd: IAtom= 17 IXYZ=1 IS=1.
 SE2nd: IAtom= 17 IXYZ=1 IS=2.
 SE2nd: IAtom= 17 IXYZ=2 IS=1.
 SE2nd: IAtom= 17 IXYZ=2 IS=2.
 SE2nd: IAtom= 17 IXYZ=3 IS=1.
 Skip step-back as it is equivalent to step-up.
 SE2nd: IAtom= 18 IXYZ=1 IS=1.
 SE2nd: IAtom= 18 IXYZ=1 IS=2.
 SE2nd: IAtom= 18 IXYZ=2 IS=1.
 SE2nd: IAtom= 18 IXYZ=2 IS=2.
 SE2nd: IAtom= 18 IXYZ=3 IS=1.
 Skip step-back as it is equivalent to step-up.
 SE2nd: IAtom= 19 IXYZ=1 IS=1.
 SE2nd: IAtom= 19 IXYZ=1 IS=2.
 SE2nd: IAtom= 19 IXYZ=2 IS=1.
 SE2nd: IAtom= 19 IXYZ=2 IS=2.
 SE2nd: IAtom= 19 IXYZ=3 IS=1.
 Skip step-back as it is equivalent to step-up.
 SE2nd: IAtom= 20 IXYZ=1 IS=1.
 SE2nd: IAtom= 20 IXYZ=1 IS=2.
 SE2nd: IAtom= 20 IXYZ=2 IS=1.
 SE2nd: IAtom= 20 IXYZ=2 IS=2.
 SE2nd: IAtom= 20 IXYZ=3 IS=1.
 Skip step-back as it is equivalent to step-up.
 SE2nd: IAtom= 21 IXYZ=1 IS=1.
 SE2nd: IAtom= 21 IXYZ=1 IS=2.
 SE2nd: IAtom= 21 IXYZ=2 IS=1.
 SE2nd: IAtom= 21 IXYZ=2 IS=2.
 SE2nd: IAtom= 21 IXYZ=3 IS=1.
 Skip step-back as it is equivalent to step-up.
 SE2nd: IAtom= 22 IXYZ=1 IS=1.
 SE2nd: IAtom= 22 IXYZ=1 IS=2.
 SE2nd: IAtom= 22 IXYZ=2 IS=1.
 SE2nd: IAtom= 22 IXYZ=2 IS=2.
 SE2nd: IAtom= 22 IXYZ=3 IS=1.
 Skip step-back as it is equivalent to step-up.
 SE2nd: IAtom= 23 IXYZ=1 IS=1.
 SE2nd: IAtom= 23 IXYZ=1 IS=2.
 SE2nd: IAtom= 23 IXYZ=2 IS=1.
 SE2nd: IAtom= 23 IXYZ=2 IS=2.
 SE2nd: IAtom= 23 IXYZ=3 IS=1.
 Skip step-back as it is equivalent to step-up.
 SE2nd: IAtom= 24 IXYZ=1 IS=1.
 SE2nd: IAtom= 24 IXYZ=1 IS=2.
 SE2nd: IAtom= 24 IXYZ=2 IS=1.
 SE2nd: IAtom= 24 IXYZ=2 IS=2.
 SE2nd: IAtom= 24 IXYZ=3 IS=1.
 Skip step-back as it is equivalent to step-up.
 SE2nd: IAtom= 25 IXYZ=1 IS=1.
 SE2nd: IAtom= 25 IXYZ=1 IS=2.
 SE2nd: IAtom= 25 IXYZ=2 IS=1.
 SE2nd: IAtom= 25 IXYZ=2 IS=2.
 SE2nd: IAtom= 25 IXYZ=3 IS=1.
 Skip step-back as it is equivalent to step-up.
 SE2nd: IAtom= 26 IXYZ=1 IS=1.
 SE2nd: IAtom= 26 IXYZ=1 IS=2.
 SE2nd: IAtom= 26 IXYZ=2 IS=1.
 SE2nd: IAtom= 26 IXYZ=2 IS=2.
 SE2nd: IAtom= 26 IXYZ=3 IS=1.
 Skip step-back as it is equivalent to step-up.
 SE2nd: IAtom= 27 IXYZ=1 IS=1.
 SE2nd: IAtom= 27 IXYZ=1 IS=2.
 SE2nd: IAtom= 27 IXYZ=2 IS=1.
 SE2nd: IAtom= 27 IXYZ=2 IS=2.
 SE2nd: IAtom= 27 IXYZ=3 IS=1.
 Skip step-back as it is equivalent to step-up.
 SE2nd: IAtom= 28 IXYZ=1 IS=1.
 SE2nd: IAtom= 28 IXYZ=1 IS=2.
 SE2nd: IAtom= 28 IXYZ=2 IS=1.
 SE2nd: IAtom= 28 IXYZ=2 IS=2.
 SE2nd: IAtom= 28 IXYZ=3 IS=1.
 Skip step-back as it is equivalent to step-up.
 SE2nd: IAtom= 29 IXYZ=1 IS=1.
 SE2nd: IAtom= 29 IXYZ=1 IS=2.
 SE2nd: IAtom= 29 IXYZ=2 IS=1.
 SE2nd: IAtom= 29 IXYZ=2 IS=2.
 SE2nd: IAtom= 29 IXYZ=3 IS=1.
 Skip step-back as it is equivalent to step-up.
 SE2nd: IAtom= 30 IXYZ=1 IS=1.
 SE2nd: IAtom= 30 IXYZ=1 IS=2.
 SE2nd: IAtom= 30 IXYZ=2 IS=1.
 SE2nd: IAtom= 30 IXYZ=2 IS=2.
 SE2nd: IAtom= 30 IXYZ=3 IS=1.
 Skip step-back as it is equivalent to step-up.
 SE2nd: IAtom= 31 IXYZ=1 IS=1.
 SE2nd: IAtom= 31 IXYZ=1 IS=2.
 SE2nd: IAtom= 31 IXYZ=2 IS=1.
 SE2nd: IAtom= 31 IXYZ=2 IS=2.
 SE2nd: IAtom= 31 IXYZ=3 IS=1.
 Skip step-back as it is equivalent to step-up.
 SE2nd: IAtom= 32 IXYZ=1 IS=1.
 SE2nd: IAtom= 32 IXYZ=1 IS=2.
 SE2nd: IAtom= 32 IXYZ=2 IS=1.
 SE2nd: IAtom= 32 IXYZ=2 IS=2.
 SE2nd: IAtom= 32 IXYZ=3 IS=1.
 Skip step-back as it is equivalent to step-up.
 SE2nd: IAtom= 33 IXYZ=1 IS=1.
 SE2nd: IAtom= 33 IXYZ=1 IS=2.
 SE2nd: IAtom= 33 IXYZ=2 IS=1.
 SE2nd: IAtom= 33 IXYZ=2 IS=2.
 SE2nd: IAtom= 33 IXYZ=3 IS=1.
 Skip step-back as it is equivalent to step-up.
 SE2nd: IAtom= 34 IXYZ=1 IS=1.
 SE2nd: IAtom= 34 IXYZ=1 IS=2.
 SE2nd: IAtom= 34 IXYZ=2 IS=1.
 SE2nd: IAtom= 34 IXYZ=2 IS=2.
 SE2nd: IAtom= 34 IXYZ=3 IS=1.
 Skip step-back as it is equivalent to step-up.
 SE2nd: IAtom= 35 IXYZ=1 IS=1.
 SE2nd: IAtom= 35 IXYZ=1 IS=2.
 SE2nd: IAtom= 35 IXYZ=2 IS=1.
 SE2nd: IAtom= 35 IXYZ=2 IS=2.
 SE2nd: IAtom= 35 IXYZ=3 IS=1.
 Skip step-back as it is equivalent to step-up.
 SE2nd: IAtom= 36 IXYZ=1 IS=1.
 SE2nd: IAtom= 36 IXYZ=1 IS=2.
 SE2nd: IAtom= 36 IXYZ=2 IS=1.
 SE2nd: IAtom= 36 IXYZ=2 IS=2.
 SE2nd: IAtom= 36 IXYZ=3 IS=1.
 Skip step-back as it is equivalent to step-up.
 Maximum difference in off-diagonal FC elements:
 I= 71 J= 70 Difference=    1.8185067374D-04
 Max difference between analytic and numerical forces:
 I=  8 Difference=    9.0632484037D-05
 Energy=    0.522362044248 NIter=  17.
 Dipole moment=       1.240633       0.472489       0.000000

 **********************************************************************

            Population analysis using the SCF density.

 **********************************************************************

 Orbital symmetries:
       Occupied  (A') (A') (A') (A') (A') (A') (A') (A') (A') (A')
                 (A') (A') (A') (A') (A') (A') (A') (A') (A') (A')
                 (A') (A') (A') (A') (A') (A') (A') (A") (A') (A')
                 (A') (A") (A') (A') (A') (A') (A') (A") (A') (A')
                 (A") (A') (A") (A") (A') (A") (A") (A") (A") (A")
       Virtual   (A") (A") (A") (A") (A") (A') (A") (A") (A') (A")
                 (A') (A') (A') (A") (A') (A') (A') (A') (A") (A')
                 (A') (A') (A') (A') (A') (A') (A') (A') (A') (A')
                 (A') (A') (A') (A') (A') (A') (A') (A') (A') (A')
                 (A') (A') (A') (A') (A') (A') (A') (A') (A')
 The electronic state is 1-A'.
 Alpha  occ. eigenvalues --   -1.69908  -1.63665  -1.51749  -1.41864  -1.34761
 Alpha  occ. eigenvalues --   -1.31078  -1.27448  -1.19354  -1.16316  -1.13300
 Alpha  occ. eigenvalues --   -1.05504  -1.00564  -0.96488  -0.95635  -0.94271
 Alpha  occ. eigenvalues --   -0.92226  -0.87940  -0.83985  -0.82709  -0.81640
 Alpha  occ. eigenvalues --   -0.77455  -0.76499  -0.75786  -0.74467  -0.72181
 Alpha  occ. eigenvalues --   -0.71885  -0.70209  -0.69334  -0.69286  -0.68370
 Alpha  occ. eigenvalues --   -0.67717  -0.66915  -0.66525  -0.65338  -0.63789
 Alpha  occ. eigenvalues --   -0.61342  -0.60494  -0.60109  -0.59538  -0.58529
 Alpha  occ. eigenvalues --   -0.57726  -0.57467  -0.55761  -0.53644  -0.53511
 Alpha  occ. eigenvalues --   -0.50894  -0.48432  -0.46831  -0.44871  -0.40536
 Alpha virt. eigenvalues --   -0.17996  -0.15233  -0.13706  -0.11516  -0.10356
 Alpha virt. eigenvalues --   -0.09353  -0.08452  -0.06902  -0.06777  -0.04404
 Alpha virt. eigenvalues --   -0.03724  -0.03362  -0.03084  -0.02595  -0.01689
 Alpha virt. eigenvalues --   -0.01008  -0.00699  -0.00354  -0.00351   0.00109
 Alpha virt. eigenvalues --    0.00388   0.01066   0.01680   0.01846   0.02229
 Alpha virt. eigenvalues --    0.02591   0.02720   0.03182   0.03489   0.03901
 Alpha virt. eigenvalues --    0.04071   0.04312   0.04503   0.05227   0.05464
 Alpha virt. eigenvalues --    0.05987   0.06146   0.06428   0.06744   0.07170
 Alpha virt. eigenvalues --    0.07657   0.08201   0.08839   0.09475   0.09564
 Alpha virt. eigenvalues --    0.09978   0.10620   0.11772   0.12305
          Condensed to atoms (all electrons):
              1          2          3          4          5          6
     1  C    4.081767   0.000000   0.000000   0.000000   0.000000   0.000000
     2  C    0.000000   4.028689   0.000000   0.000000   0.000000   0.000000
     3  C    0.000000   0.000000   4.093543   0.000000   0.000000   0.000000
     4  C    0.000000   0.000000   0.000000   4.139345   0.000000   0.000000
     5  C    0.000000   0.000000   0.000000   0.000000   4.137956   0.000000
     6  C    0.000000   0.000000   0.000000   0.000000   0.000000   4.001759
     7  H    0.000000   0.000000   0.000000   0.000000   0.000000   0.000000
     8  H    0.000000   0.000000   0.000000   0.000000   0.000000   0.000000
     9  H    0.000000   0.000000   0.000000   0.000000   0.000000   0.000000
    10  C    0.000000   0.000000   0.000000   0.000000   0.000000   0.000000
    11  H    0.000000   0.000000   0.000000   0.000000   0.000000   0.000000
    12  H    0.000000   0.000000   0.000000   0.000000   0.000000   0.000000
    13  C    0.000000   0.000000   0.000000   0.000000   0.000000   0.000000
    14  C    0.000000   0.000000   0.000000   0.000000   0.000000   0.000000
    15  H    0.000000   0.000000   0.000000   0.000000   0.000000   0.000000
    16  H    0.000000   0.000000   0.000000   0.000000   0.000000   0.000000
    17  C    0.000000   0.000000   0.000000   0.000000   0.000000   0.000000
    18  H    0.000000   0.000000   0.000000   0.000000   0.000000   0.000000
    19  C    0.000000   0.000000   0.000000   0.000000   0.000000   0.000000
    20  C    0.000000   0.000000   0.000000   0.000000   0.000000   0.000000
    21  C    0.000000   0.000000   0.000000   0.000000   0.000000   0.000000
    22  H    0.000000   0.000000   0.000000   0.000000   0.000000   0.000000
    23  C    0.000000   0.000000   0.000000   0.000000   0.000000   0.000000
    24  H    0.000000   0.000000   0.000000   0.000000   0.000000   0.000000
    25  C    0.000000   0.000000   0.000000   0.000000   0.000000   0.000000
    26  C    0.000000   0.000000   0.000000   0.000000   0.000000   0.000000
    27  H    0.000000   0.000000   0.000000   0.000000   0.000000   0.000000
    28  C    0.000000   0.000000   0.000000   0.000000   0.000000   0.000000
    29  C    0.000000   0.000000   0.000000   0.000000   0.000000   0.000000
    30  H    0.000000   0.000000   0.000000   0.000000   0.000000   0.000000
    31  C    0.000000   0.000000   0.000000   0.000000   0.000000   0.000000
    32  H    0.000000   0.000000   0.000000   0.000000   0.000000   0.000000
    33  H    0.000000   0.000000   0.000000   0.000000   0.000000   0.000000
    34  H    0.000000   0.000000   0.000000   0.000000   0.000000   0.000000
    35  N    0.000000   0.000000   0.000000   0.000000   0.000000   0.000000
    36  N    0.000000   0.000000   0.000000   0.000000   0.000000   0.000000
              7          8          9         10         11         12
     1  C    0.000000   0.000000   0.000000   0.000000   0.000000   0.000000
     2  C    0.000000   0.000000   0.000000   0.000000   0.000000   0.000000
     3  C    0.000000   0.000000   0.000000   0.000000   0.000000   0.000000
     4  C    0.000000   0.000000   0.000000   0.000000   0.000000   0.000000
     5  C    0.000000   0.000000   0.000000   0.000000   0.000000   0.000000
     6  C    0.000000   0.000000   0.000000   0.000000   0.000000   0.000000
     7  H    0.873908   0.000000   0.000000   0.000000   0.000000   0.000000
     8  H    0.000000   0.872629   0.000000   0.000000   0.000000   0.000000
     9  H    0.000000   0.000000   0.876120   0.000000   0.000000   0.000000
    10  C    0.000000   0.000000   0.000000   3.937935   0.000000   0.000000
    11  H    0.000000   0.000000   0.000000   0.000000   0.875371   0.000000
    12  H    0.000000   0.000000   0.000000   0.000000   0.000000   0.876791
    13  C    0.000000   0.000000   0.000000   0.000000   0.000000   0.000000
    14  C    0.000000   0.000000   0.000000   0.000000   0.000000   0.000000
    15  H    0.000000   0.000000   0.000000   0.000000   0.000000   0.000000
    16  H    0.000000   0.000000   0.000000   0.000000   0.000000   0.000000
    17  C    0.000000   0.000000   0.000000   0.000000   0.000000   0.000000
    18  H    0.000000   0.000000   0.000000   0.000000   0.000000   0.000000
    19  C    0.000000   0.000000   0.000000   0.000000   0.000000   0.000000
    20  C    0.000000   0.000000   0.000000   0.000000   0.000000   0.000000
    21  C    0.000000   0.000000   0.000000   0.000000   0.000000   0.000000
    22  H    0.000000   0.000000   0.000000   0.000000   0.000000   0.000000
    23  C    0.000000   0.000000   0.000000   0.000000   0.000000   0.000000
    24  H    0.000000   0.000000   0.000000   0.000000   0.000000   0.000000
    25  C    0.000000   0.000000   0.000000   0.000000   0.000000   0.000000
    26  C    0.000000   0.000000   0.000000   0.000000   0.000000   0.000000
    27  H    0.000000   0.000000   0.000000   0.000000   0.000000   0.000000
    28  C    0.000000   0.000000   0.000000   0.000000   0.000000   0.000000
    29  C    0.000000   0.000000   0.000000   0.000000   0.000000   0.000000
    30  H    0.000000   0.000000   0.000000   0.000000   0.000000   0.000000
    31  C    0.000000   0.000000   0.000000   0.000000   0.000000   0.000000
    32  H    0.000000   0.000000   0.000000   0.000000   0.000000   0.000000
    33  H    0.000000   0.000000   0.000000   0.000000   0.000000   0.000000
    34  H    0.000000   0.000000   0.000000   0.000000   0.000000   0.000000
    35  N    0.000000   0.000000   0.000000   0.000000   0.000000   0.000000
    36  N    0.000000   0.000000   0.000000   0.000000   0.000000   0.000000
             13         14         15         16         17         18
     1  C    0.000000   0.000000   0.000000   0.000000   0.000000   0.000000
     2  C    0.000000   0.000000   0.000000   0.000000   0.000000   0.000000
     3  C    0.000000   0.000000   0.000000   0.000000   0.000000   0.000000
     4  C    0.000000   0.000000   0.000000   0.000000   0.000000   0.000000
     5  C    0.000000   0.000000   0.000000   0.000000   0.000000   0.000000
     6  C    0.000000   0.000000   0.000000   0.000000   0.000000   0.000000
     7  H    0.000000   0.000000   0.000000   0.000000   0.000000   0.000000
     8  H    0.000000   0.000000   0.000000   0.000000   0.000000   0.000000
     9  H    0.000000   0.000000   0.000000   0.000000   0.000000   0.000000
    10  C    0.000000   0.000000   0.000000   0.000000   0.000000   0.000000
    11  H    0.000000   0.000000   0.000000   0.000000   0.000000   0.000000
    12  H    0.000000   0.000000   0.000000   0.000000   0.000000   0.000000
    13  C    3.985697   0.000000   0.000000   0.000000   0.000000   0.000000
    14  C    0.000000   4.294257   0.000000   0.000000   0.000000   0.000000
    15  H    0.000000   0.000000   0.916498   0.000000   0.000000   0.000000
    16  H    0.000000   0.000000   0.000000   0.757944   0.000000   0.000000
    17  C    0.000000   0.000000   0.000000   0.000000   4.405569   0.000000
    18  H    0.000000   0.000000   0.000000   0.000000   0.000000   0.864134
    19  C    0.000000   0.000000   0.000000   0.000000   0.000000   0.000000
    20  C    0.000000   0.000000   0.000000   0.000000   0.000000   0.000000
    21  C    0.000000   0.000000   0.000000   0.000000   0.000000   0.000000
    22  H    0.000000   0.000000   0.000000   0.000000   0.000000   0.000000
    23  C    0.000000   0.000000   0.000000   0.000000   0.000000   0.000000
    24  H    0.000000   0.000000   0.000000   0.000000   0.000000   0.000000
    25  C    0.000000   0.000000   0.000000   0.000000   0.000000   0.000000
    26  C    0.000000   0.000000   0.000000   0.000000   0.000000   0.000000
    27  H    0.000000   0.000000   0.000000   0.000000   0.000000   0.000000
    28  C    0.000000   0.000000   0.000000   0.000000   0.000000   0.000000
    29  C    0.000000   0.000000   0.000000   0.000000   0.000000   0.000000
    30  H    0.000000   0.000000   0.000000   0.000000   0.000000   0.000000
    31  C    0.000000   0.000000   0.000000   0.000000   0.000000   0.000000
    32  H    0.000000   0.000000   0.000000   0.000000   0.000000   0.000000
    33  H    0.000000   0.000000   0.000000   0.000000   0.000000   0.000000
    34  H    0.000000   0.000000   0.000000   0.000000   0.000000   0.000000
    35  N    0.000000   0.000000   0.000000   0.000000   0.000000   0.000000
    36  N    0.000000   0.000000   0.000000   0.000000   0.000000   0.000000
             19         20         21         22         23         24
     1  C    0.000000   0.000000   0.000000   0.000000   0.000000   0.000000
     2  C    0.000000   0.000000   0.000000   0.000000   0.000000   0.000000
     3  C    0.000000   0.000000   0.000000   0.000000   0.000000   0.000000
     4  C    0.000000   0.000000   0.000000   0.000000   0.000000   0.000000
     5  C    0.000000   0.000000   0.000000   0.000000   0.000000   0.000000
     6  C    0.000000   0.000000   0.000000   0.000000   0.000000   0.000000
     7  H    0.000000   0.000000   0.000000   0.000000   0.000000   0.000000
     8  H    0.000000   0.000000   0.000000   0.000000   0.000000   0.000000
     9  H    0.000000   0.000000   0.000000   0.000000   0.000000   0.000000
    10  C    0.000000   0.000000   0.000000   0.000000   0.000000   0.000000
    11  H    0.000000   0.000000   0.000000   0.000000   0.000000   0.000000
    12  H    0.000000   0.000000   0.000000   0.000000   0.000000   0.000000
    13  C    0.000000   0.000000   0.000000   0.000000   0.000000   0.000000
    14  C    0.000000   0.000000   0.000000   0.000000   0.000000   0.000000
    15  H    0.000000   0.000000   0.000000   0.000000   0.000000   0.000000
    16  H    0.000000   0.000000   0.000000   0.000000   0.000000   0.000000
    17  C    0.000000   0.000000   0.000000   0.000000   0.000000   0.000000
    18  H    0.000000   0.000000   0.000000   0.000000   0.000000   0.000000
    19  C    3.966270   0.000000   0.000000   0.000000   0.000000   0.000000
    20  C    0.000000   4.332855   0.000000   0.000000   0.000000   0.000000
    21  C    0.000000   0.000000   4.097914   0.000000   0.000000   0.000000
    22  H    0.000000   0.000000   0.000000   0.919191   0.000000   0.000000
    23  C    0.000000   0.000000   0.000000   0.000000   3.938806   0.000000
    24  H    0.000000   0.000000   0.000000   0.000000   0.000000   0.777120
    25  C    0.000000   0.000000   0.000000   0.000000   0.000000   0.000000
    26  C    0.000000   0.000000   0.000000   0.000000   0.000000   0.000000
    27  H    0.000000   0.000000   0.000000   0.000000   0.000000   0.000000
    28  C    0.000000   0.000000   0.000000   0.000000   0.000000   0.000000
    29  C    0.000000   0.000000   0.000000   0.000000   0.000000   0.000000
    30  H    0.000000   0.000000   0.000000   0.000000   0.000000   0.000000
    31  C    0.000000   0.000000   0.000000   0.000000   0.000000   0.000000
    32  H    0.000000   0.000000   0.000000   0.000000   0.000000   0.000000
    33  H    0.000000   0.000000   0.000000   0.000000   0.000000   0.000000
    34  H    0.000000   0.000000   0.000000   0.000000   0.000000   0.000000
    35  N    0.000000   0.000000   0.000000   0.000000   0.000000   0.000000
    36  N    0.000000   0.000000   0.000000   0.000000   0.000000   0.000000
             25         26         27         28         29         30
     1  C    0.000000   0.000000   0.000000   0.000000   0.000000   0.000000
     2  C    0.000000   0.000000   0.000000   0.000000   0.000000   0.000000
     3  C    0.000000   0.000000   0.000000   0.000000   0.000000   0.000000
     4  C    0.000000   0.000000   0.000000   0.000000   0.000000   0.000000
     5  C    0.000000   0.000000   0.000000   0.000000   0.000000   0.000000
     6  C    0.000000   0.000000   0.000000   0.000000   0.000000   0.000000
     7  H    0.000000   0.000000   0.000000   0.000000   0.000000   0.000000
     8  H    0.000000   0.000000   0.000000   0.000000   0.000000   0.000000
     9  H    0.000000   0.000000   0.000000   0.000000   0.000000   0.000000
    10  C    0.000000   0.000000   0.000000   0.000000   0.000000   0.000000
    11  H    0.000000   0.000000   0.000000   0.000000   0.000000   0.000000
    12  H    0.000000   0.000000   0.000000   0.000000   0.000000   0.000000
    13  C    0.000000   0.000000   0.000000   0.000000   0.000000   0.000000
    14  C    0.000000   0.000000   0.000000   0.000000   0.000000   0.000000
    15  H    0.000000   0.000000   0.000000   0.000000   0.000000   0.000000
    16  H    0.000000   0.000000   0.000000   0.000000   0.000000   0.000000
    17  C    0.000000   0.000000   0.000000   0.000000   0.000000   0.000000
    18  H    0.000000   0.000000   0.000000   0.000000   0.000000   0.000000
    19  C    0.000000   0.000000   0.000000   0.000000   0.000000   0.000000
    20  C    0.000000   0.000000   0.000000   0.000000   0.000000   0.000000
    21  C    0.000000   0.000000   0.000000   0.000000   0.000000   0.000000
    22  H    0.000000   0.000000   0.000000   0.000000   0.000000   0.000000
    23  C    0.000000   0.000000   0.000000   0.000000   0.000000   0.000000
    24  H    0.000000   0.000000   0.000000   0.000000   0.000000   0.000000
    25  C    4.122234   0.000000   0.000000   0.000000   0.000000   0.000000
    26  C    0.000000   4.155952   0.000000   0.000000   0.000000   0.000000
    27  H    0.000000   0.000000   0.882571   0.000000   0.000000   0.000000
    28  C    0.000000   0.000000   0.000000   4.020787   0.000000   0.000000
    29  C    0.000000   0.000000   0.000000   0.000000   4.004576   0.000000
    30  H    0.000000   0.000000   0.000000   0.000000   0.000000   0.879469
    31  C    0.000000   0.000000   0.000000   0.000000   0.000000   0.000000
    32  H    0.000000   0.000000   0.000000   0.000000   0.000000   0.000000
    33  H    0.000000   0.000000   0.000000   0.000000   0.000000   0.000000
    34  H    0.000000   0.000000   0.000000   0.000000   0.000000   0.000000
    35  N    0.000000   0.000000   0.000000   0.000000   0.000000   0.000000
    36  N    0.000000   0.000000   0.000000   0.000000   0.000000   0.000000
             31         32         33         34         35         36
     1  C    0.000000   0.000000   0.000000   0.000000   0.000000   0.000000
     2  C    0.000000   0.000000   0.000000   0.000000   0.000000   0.000000
     3  C    0.000000   0.000000   0.000000   0.000000   0.000000   0.000000
     4  C    0.000000   0.000000   0.000000   0.000000   0.000000   0.000000
     5  C    0.000000   0.000000   0.000000   0.000000   0.000000   0.000000
     6  C    0.000000   0.000000   0.000000   0.000000   0.000000   0.000000
     7  H    0.000000   0.000000   0.000000   0.000000   0.000000   0.000000
     8  H    0.000000   0.000000   0.000000   0.000000   0.000000   0.000000
     9  H    0.000000   0.000000   0.000000   0.000000   0.000000   0.000000
    10  C    0.000000   0.000000   0.000000   0.000000   0.000000   0.000000
    11  H    0.000000   0.000000   0.000000   0.000000   0.000000   0.000000
    12  H    0.000000   0.000000   0.000000   0.000000   0.000000   0.000000
    13  C    0.000000   0.000000   0.000000   0.000000   0.000000   0.000000
    14  C    0.000000   0.000000   0.000000   0.000000   0.000000   0.000000
    15  H    0.000000   0.000000   0.000000   0.000000   0.000000   0.000000
    16  H    0.000000   0.000000   0.000000   0.000000   0.000000   0.000000
    17  C    0.000000   0.000000   0.000000   0.000000   0.000000   0.000000
    18  H    0.000000   0.000000   0.000000   0.000000   0.000000   0.000000
    19  C    0.000000   0.000000   0.000000   0.000000   0.000000   0.000000
    20  C    0.000000   0.000000   0.000000   0.000000   0.000000   0.000000
    21  C    0.000000   0.000000   0.000000   0.000000   0.000000   0.000000
    22  H    0.000000   0.000000   0.000000   0.000000   0.000000   0.000000
    23  C    0.000000   0.000000   0.000000   0.000000   0.000000   0.000000
    24  H    0.000000   0.000000   0.000000   0.000000   0.000000   0.000000
    25  C    0.000000   0.000000   0.000000   0.000000   0.000000   0.000000
    26  C    0.000000   0.000000   0.000000   0.000000   0.000000   0.000000
    27  H    0.000000   0.000000   0.000000   0.000000   0.000000   0.000000
    28  C    0.000000   0.000000   0.000000   0.000000   0.000000   0.000000
    29  C    0.000000   0.000000   0.000000   0.000000   0.000000   0.000000
    30  H    0.000000   0.000000   0.000000   0.000000   0.000000   0.000000
    31  C    4.107628   0.000000   0.000000   0.000000   0.000000   0.000000
    32  H    0.000000   0.882913   0.000000   0.000000   0.000000   0.000000
    33  H    0.000000   0.000000   0.882489   0.000000   0.000000   0.000000
    34  H    0.000000   0.000000   0.000000   0.876855   0.000000   0.000000
    35  N    0.000000   0.000000   0.000000   0.000000   4.613719   0.000000
    36  N    0.000000   0.000000   0.000000   0.000000   0.000000   4.518739
 Mulliken atomic charges:
              1
     1  C   -0.081767
     2  C   -0.028689
     3  C   -0.093543
     4  C   -0.139345
     5  C   -0.137956
     6  C   -0.001759
     7  H    0.126092
     8  H    0.127371
     9  H    0.123880
    10  C    0.062065
    11  H    0.124629
    12  H    0.123209
    13  C    0.014303
    14  C   -0.294257
    15  H    0.083502
    16  H    0.242056
    17  C   -0.405569
    18  H    0.135866
    19  C    0.033730
    20  C   -0.332855
    21  C   -0.097914
    22  H    0.080809
    23  C    0.061194
    24  H    0.222880
    25  C   -0.122234
    26  C   -0.155952
    27  H    0.117429
    28  C   -0.020787
    29  C   -0.004576
    30  H    0.120531
    31  C   -0.107628
    32  H    0.117087
    33  H    0.117511
    34  H    0.123145
    35  N    0.386281
    36  N    0.481261
 Sum of Mulliken charges=   1.00000
 Atomic charges with hydrogens summed into heavy atoms:
              1
     1  C    0.045604
     2  C    0.095190
     3  C   -0.093543
     4  C   -0.139345
     5  C   -0.013327
     6  C    0.121451
     7  H    0.000000
     8  H    0.000000
     9  H    0.000000
    10  C    0.188157
    11  H    0.000000
    12  H    0.000000
    13  C    0.014303
    14  C   -0.052201
    15  H    0.000000
    16  H    0.000000
    17  C   -0.269703
    18  H    0.000000
    19  C    0.033730
    20  C   -0.109975
    21  C   -0.097914
    22  H    0.000000
    23  C    0.178624
    24  H    0.000000
    25  C   -0.122234
    26  C   -0.035421
    27  H    0.000000
    28  C    0.096300
    29  C    0.112936
    30  H    0.000000
    31  C    0.015516
    32  H    0.000000
    33  H    0.000000
    34  H    0.000000
    35  N    0.467090
    36  N    0.564762
 Sum of Mulliken charges=   1.00000
 APT atomic charges:
              1
     1  C   -0.215923
     2  C    0.133079
     3  C   -0.531209
     4  C   -0.048063
     5  C   -0.203236
     6  C    0.089262
     7  H    0.119461
     8  H    0.161927
     9  H    0.128172
    10  C    0.792069
    11  H    0.138127
    12  H    0.151118
    13  C    1.710975
    14  C   -0.872456
    15  H    0.139967
    16  H    0.287223
    17  C   -2.241854
    18  H    0.152833
    19  C    1.887166
    20  C   -0.868831
    21  C    0.124147
    22  H    0.145583
    23  C    0.874990
    24  H    0.261744
    25  C   -0.691130
    26  C   -0.200520
    27  H    0.106331
    28  C    0.259590
    29  C    0.100268
    30  H    0.132439
    31  C   -0.329581
    32  H    0.118346
    33  H    0.141969
    34  H    0.155635
    35  N   -0.728687
    36  N   -0.380739
 Sum of APT charges=   1.00019
 APT Atomic charges with hydrogens summed into heavy atoms:
              1
     1  C   -0.053996
     2  C    0.261251
     3  C   -0.531209
     4  C   -0.048063
     5  C   -0.065109
     6  C    0.240380
     7  H    0.000000
     8  H    0.000000
     9  H    0.000000
    10  C    0.911530
    11  H    0.000000
    12  H    0.000000
    13  C    1.710975
    14  C   -0.585234
    15  H    0.000000
    16  H    0.000000
    17  C   -2.089021
    18  H    0.000000
    19  C    1.887166
    20  C   -0.607086
    21  C    0.124147
    22  H    0.000000
    23  C    0.981321
    24  H    0.000000
    25  C   -0.691130
    26  C   -0.068082
    27  H    0.000000
    28  C    0.377936
    29  C    0.242236
    30  H    0.000000
    31  C   -0.173946
    32  H    0.000000
    33  H    0.000000
    34  H    0.000000
    35  N   -0.583104
    36  N   -0.240772
 Sum of APT charges=   1.00019
 ***** Axes restored to original set *****
 -------------------------------------------------------------------
 Center     Atomic                   Forces (Hartrees/Bohr)
 Number     Number              X              Y              Z
 -------------------------------------------------------------------
    1          6           0.013621298    0.000000000    0.033672289
    2          6           0.004424185    0.000000000   -0.044392237
    3          6          -0.014570450    0.000000000   -0.009570010
    4          6          -0.043099075    0.000000000   -0.043172930
    5          6          -0.036557037    0.000000000   -0.020027361
    6          6           0.022095789    0.000000000    0.030217609
    7          1          -0.015877316    0.000000000    0.009730722
    8          1          -0.015350582    0.000000000   -0.008792226
    9          1          -0.015661942    0.000000000    0.009247121
   10          6           0.041411505    0.000000000    0.032625744
   11          1           0.015382541    0.000000000   -0.011798014
   12          1           0.000490408    0.000000000   -0.017710279
   13          6           0.093498548    0.000000000    0.063913376
   14          6          -0.069999299    0.000000000   -0.103957245
   15          1          -0.002812900    0.000000000    0.002487247
   16          1          -0.130031530    0.000000000   -0.105178609
   17          6          -0.079957295    0.000000000   -0.077287808
   18          1           0.010299359    0.000000000   -0.015503063
   19          6          -0.027962798    0.000000000   -0.021452946
   20          6           0.042706772    0.000000000    0.126353492
   21          6           0.019900376    0.000000000    0.062697705
   22          1          -0.002022931    0.000000000    0.001929371
   23          6          -0.017375362    0.000000000   -0.062491070
   24          1           0.085081749    0.000000000    0.149324624
   25          6           0.009294817    0.000000000    0.021860037
   26          6          -0.000175146    0.000000000    0.038886421
   27          1          -0.015190512    0.000000000    0.009780576
   28          6           0.039961317    0.000000000    0.011717348
   29          6          -0.019478794    0.000000000   -0.029837267
[...]
 .,0.00010042,-0.00001971,0.,-0.00010292,0.00014600,0.,0.00000730,-0.00
 002780,0.,0.00001649,-0.00002039,0.,-0.00001579,-0.00001937,0.,0.00000
 710,-0.00022844,0.,-0.00050812,0.00001910,0.,-0.00001394,0.00000648,0.
 ,-0.00002347,-0.00160388,0.,-0.00152873,0.00072004,0.,0.00004792,0.000
 00876,0.,-0.00000561,0.00001359,0.,0.00007203,0.00111293,0.,0.00275233
 ,0.00005514,0.,0.00000543,0.00386794,0.,-0.00471705,-0.00175010,0.,0.0
 0649575,0.00474083,0.,-0.04233118,-0.00007586,0.,0.00007713,-0.0064513
 4,0.,-0.00552486,0.00003659,0.,0.00005725,-0.00306316,0.,0.02657544,-0
 .13852727,0.,-0.14096074,0.00003630,0.,0.00001948,-0.08363595,0.,-0.00
 130810,0.74797924,0.,0.00000036,0.,0.,-0.00000189,0.,0.,-0.00000287,0.
 ,0.,0.00001931,0.,0.,0.00000193,0.,0.,-0.00000142,0.,0.,-0.00000014,0.
 ,0.,0.00000029,0.,0.,0.00000019,0.,0.,0.00000680,0.,0.,0.00000034,0.,0
 .,-0.00000016,0.,0.,-0.00014547,0.,0.,0.00000301,0.,0.,-0.00000062,0.,
 0.,-0.00000103,0.,0.,-0.00024123,0.,0.,0.00005876,0.,0.,0.00091076,0.,
 0.,0.00015324,0.,0.,0.01067858,0.,0.,0.00051373,0.,0.,-0.00050638,0.,0
 .,0.00003834,0.,0.,-0.00726129,0.,0.,-0.07437915,0.,0.,-0.00004662,0.,
 0.,0.01347226,0.,0.,0.15442401,0.00024484,0.,-0.00028267,0.00018910,0.
 ,0.00033742,0.00013894,0.,-0.00088421,-0.00049880,0.,-0.00028754,0.000
 06964,0.,0.00029569,-0.00037409,0.,-0.00002708,0.00005744,0.,-0.000037
 40,0.00004134,0.,0.00003213,0.00003982,0.,-0.00001682,0.00052399,0.,0.
 00119668,-0.00004632,0.,0.00003010,-0.00001387,0.,0.00004738,0.0040364
 9,0.,0.00378352,-0.00167468,0.,-0.00003289,-0.00003629,0.,0.00001488,-
 0.00007532,0.,-0.00025668,-0.00309689,0.,-0.00725341,-0.00019765,0.,-0
 .00002054,-0.01219060,0.,0.01079537,0.00615641,0.,-0.01793425,-0.14219
 882,0.,-0.03547607,-0.00020335,0.,0.00011389,0.01632622,0.,0.01420362,
 -0.00022075,0.,-0.00019140,-0.00064183,0.,-0.09142354,-0.01398029,0.,-
 0.43321651,-0.00004354,0.,0.00018264,0.09881806,0.,0.08781523,0.028180
 42,0.,0.78647987,-0.00003875,0.,0.00004420,-0.00003401,0.,-0.00004845,
 -0.00003079,0.,0.00015691,0.00008489,0.,0.00004202,-0.00000228,0.,-0.0
 0002954,0.00005135,0.,0.00000129,-0.00001112,0.,0.00000575,-0.00000910
 ,0.,-0.00000695,-0.00000749,0.,0.00000200,-0.00009349,0.,-0.00020438,0
 .00001199,0.,-0.00000754,0.00000361,0.,-0.00001186,-0.00056461,0.,-0.0
 0051257,0.00028770,0.,0.00004658,0.00000703,0.,-0.00000379,-0.00000850
 ,0.,0.00000032,0.00053284,0.,0.00086209,0.00002342,0.,-0.00001800,-0.0
 0053314,0.,-0.00071391,-0.00003450,0.,0.00029705,-0.02278932,0.,0.0136
 6886,-0.00086045,0.,-0.00137069,-0.00043324,0.,0.00008323,-0.00001809,
 0.,-0.00000511,-0.00111859,0.,-0.00145175,-0.17416613,0.,0.13294332,-0
 .00006036,0.,-0.00002727,0.00018065,0.,0.00011312,0.00832359,0.,-0.003
 61483,0.19455317,0.,-0.00000105,0.,0.,-0.00000124,0.,0.,-0.00000275,0.
 ,0.,0.00000291,0.,0.,-0.00000715,0.,0.,0.00000034,0.,0.,0.00000340,0.,
 0.,0.00000160,0.,0.,0.00000188,0.,0.,0.00000468,0.,0.,0.00000501,0.,0.
 ,0.00000184,0.,0.,0.00006554,0.,0.,-0.00002291,0.,0.,0.00001956,0.,0.,
 0.00001074,0.,0.,-0.00010635,0.,0.,0.00005047,0.,0.,-0.00002723,0.,0.,
 -0.00007193,0.,0.,0.00635719,0.,0.,-0.00021102,0.,0.,-0.00004896,0.,0.
 ,0.00003080,0.,0.,0.00340523,0.,0.,-0.04016444,0.,0.,0.00007089,0.,0.,
 -0.00060165,0.,0.,0.00743862,0.,0.,0.02190969,0.00002381,0.,-0.0000262
 0,0.00001906,0.,0.00002758,0.00002115,0.,-0.00008744,-0.00005694,0.,-0
 .00003922,0.00000457,0.,0.00002278,-0.00003109,0.,-0.00000216,0.000004
 41,0.,-0.00000145,0.00000400,0.,0.00000292,0.00000264,0.,-0.00000043,0
 .00004987,0.,0.00010800,-0.00000921,0.,0.00000408,-0.00000202,0.,0.000
 00587,0.00030307,0.,0.00028251,-0.00014291,0.,-0.00002619,-0.00001214,
 0.,0.00000124,0.00000713,0.,0.00000902,-0.00023065,0.,-0.00052414,-0.0
 0004954,0.,-0.00000276,0.00010151,0.,0.00055536,0.00008770,0.,-0.00030
 319,-0.00449468,0.,0.00770121,0.00032761,0.,-0.00072551,0.00007494,0.,
 0.00036086,0.00001671,0.,-0.00000395,-0.00107806,0.,-0.00081213,0.1312
 0113,0.,-0.16722966,-0.00002837,0.,-0.00003146,0.00007379,0.,0.0001984
 5,0.01582071,0.,-0.02051873,-0.13767687,0.,0.18454718,0.00026004,0.,-0
 .00029539,0.00020521,0.,0.00034035,0.00018316,0.,-0.00097353,-0.000582
 32,0.,-0.00031307,0.00005812,0.,0.00028983,-0.00038799,0.,-0.00002182,
 0.00006619,0.,-0.00003876,0.00005025,0.,0.00003880,0.00004634,0.,-0.00
 001722,0.00058531,0.,0.00130121,-0.00005476,0.,0.00003666,-0.00001703,
 0.,0.00005897,0.00425056,0.,0.00394887,-0.00183729,0.,-0.00009111,-0.0
 0003367,0.,0.00001387,-0.00004008,0.,-0.00019184,-0.00309259,0.,-0.007
 41780,-0.00020083,0.,-0.00001245,-0.01621430,0.,0.01211269,0.00688760,
 0.,-0.02356336,-0.09751561,0.,-0.00682558,-0.00005256,0.,-0.00008925,0
 .02321455,0.,0.01961042,-0.00011567,0.,-0.00012974,-0.03187112,0.,-0.1
 3533744,0.08860787,0.,0.09734557,0.00002026,0.,0.00017379,-0.43225018,
 0.,-0.01869492,-0.24226779,0.,0.06330440,-0.00076600,0.,-0.00154535,0.
 78551472,0.,0.00000022,0.,0.,0.00000133,0.,0.,0.00000218,0.,0.,-0.0000
 0542,0.,0.,0.00000080,0.,0.,0.00000038,0.,0.,-0.00000142,0.,0.,-0.0000
 0065,0.,0.,-0.00000069,0.,0.,-0.00000396,0.,0.,-0.00000106,0.,0.,-0.00
 000045,0.,0.,0.00002345,0.,0.,0.00000564,0.,0.,-0.00000303,0.,0.,-0.00
 000019,0.,0.,0.00004841,0.,0.,-0.00001204,0.,0.,0.00027398,0.,0.,-0.00
 058764,0.,0.,-0.00718363,0.,0.,-0.00022095,0.,0.,0.00451878,0.,0.,-0.0
 0033507,0.,0.,0.01255493,0.,0.,0.01376402,0.,0.,-0.00001461,0.,0.,-0.0
 7546394,0.,0.,-0.07750499,0.,0.,0.00553128,0.,0.,0.15164325,-0.0000734
 4,0.,0.00008603,-0.00005998,0.,-0.00010111,-0.00003991,0.,0.00027345,0
 .00013991,0.,0.00007711,-0.00001765,0.,-0.00007902,0.00010836,0.,0.000
 00670,-0.00001772,0.,0.00001049,-0.00001379,0.,-0.00001070,-0.00001242
 ,0.,0.00000453,-0.00015816,0.,-0.00036358,0.00001627,0.,-0.00001021,0.
 00000476,0.,-0.00001649,-0.00116048,0.,-0.00113476,0.00049564,0.,0.000
 01720,0.00001371,0.,-0.00000418,0.00001135,0.,0.00005403,0.00084820,0.
 ,0.00198590,0.00005739,0.,0.00000864,0.00504554,0.,-0.00304784,-0.0026
 4821,0.,0.00651025,0.02720377,0.,-0.00133054,0.00009177,0.,0.00006547,
 -0.00602050,0.,-0.00872186,0.00002605,0.,-0.00005562,-0.04087833,0.,0.
 00307771,-0.00073394,0.,-0.08135517,0.00011784,0.,-0.00010300,-0.14598
 034,0.,-0.14129635,0.19122977,0.,-0.24267493,-0.00115776,0.,-0.0019871
 6,0.03187585,0.,0.74919662,0.00002351,0.,-0.00002788,0.00002315,0.,0.0
 0003410,0.00001416,0.,-0.00010634,-0.00005378,0.,-0.00001794,-0.000000
 56,0.,0.00001999,-0.00003532,0.,-0.00000046,0.00001295,0.,-0.00000927,
 0.00000708,0.,0.00000526,0.00000833,0.,-0.00000337,0.00007287,0.,0.000
 14792,-0.00000351,0.,0.00000388,-0.00000189,0.,0.00000705,0.00044635,0
 .,0.00037780,-0.00023276,0.,-0.00002857,0.00000303,0.,0.00000204,0.000
 00831,0.,-0.00002029,-0.00041311,0.,-0.00064082,-0.00000787,0.,0.00000
 675,0.00034872,0.,0.00067914,-0.00003910,0.,-0.00024180,-0.00067864,0.
 ,-0.00112138,-0.00005832,0.,-0.00004150,0.00105439,0.,-0.00079973,0.00
 002229,0.,-0.00001758,0.00748950,0.,-0.00443922,0.00006748,0.,-0.00018
 101,-0.00067978,0.,0.00003176,-0.17315977,0.,0.13218462,-0.00207710,0.
 ,-0.00110090,-0.00003819,0.,0.00001750,-0.02012327,0.,0.01495504,0.189
 98178,0.,-0.00000069,0.,0.,-0.00000110,0.,0.,-0.00000159,0.,0.,0.00000
 086,0.,0.,-0.00000290,0.,0.,0.00000020,0.,0.,0.00000306,0.,0.,0.000001
 04,0.,0.,0.00000160,0.,0.,0.00000345,0.,0.,0.00000188,0.,0.,0.00000092
 ,0.,0.,0.00002959,0.,0.,-0.00001793,0.,0.,0.00000671,0.,0.,0.00001053,
 0.,0.,-0.00002595,0.,0.,0.00000782,0.,0.,-0.00006037,0.,0.,0.00008585,
 0.,0.,0.00382038,0.,0.,0.00014038,0.,0.,-0.00180100,0.,0.,0.00011844,0
 .,0.,0.00728042,0.,0.,-0.00067465,0.,0.,0.00014990,0.,0.,-0.04231407,0
 .,0.,0.00573981,0.,0.,-0.00046416,0.,0.,0.00795251,0.,0.,0.02297113,-0
 .00002323,0.,0.00002736,-0.00002425,0.,-0.00003144,-0.00001719,0.,0.00
 011007,0.00005649,0.,0.00001627,0.00000257,0.,-0.00001411,0.00003237,0
 .,-0.00000078,-0.00001265,0.,0.00000710,-0.00000809,0.,-0.00000601,-0.
 00000854,0.,0.00000271,-0.00007363,0.,-0.00014678,0.00000452,0.,-0.000
 00441,0.00000215,0.,-0.00000853,-0.00040747,0.,-0.00036137,0.00022363,
 0.,0.00003716,-0.00000170,0.,-0.00000086,-0.00001275,0.,-0.00000204,0.
 00033091,0.,0.00056830,0.00000601,0.,-0.00000265,-0.00012098,0.,-0.000
 59961,0.00005923,0.,0.00037966,-0.00183558,0.,-0.00180650,-0.00003699,
 0.,-0.00008611,-0.00081888,0.,-0.00174722,-0.00003583,0.,0.00001701,0.
 01461235,0.,-0.02189714,0.00042272,0.,0.00053020,-0.00120860,0.,-0.000
 69483,0.13355435,0.,-0.16947700,-0.00104398,0.,-0.00129571,0.00002628,
 0.,-0.00003915,-0.00472037,0.,0.00861268,-0.13895858,0.,0.18707461,-0.
 00004114,0.,0.00004752,-0.00003907,0.,-0.00005195,-0.00003359,0.,0.000
 18016,0.00009343,0.,0.00003342,0.00000186,0.,-0.00002455,0.00005431,0.
 ,-0.00000088,-0.00001540,0.,0.00000761,-0.00001237,0.,-0.00000953,-0.0
 0001088,0.,0.00000281,-0.00011113,0.,-0.00023623,0.00001081,0.,-0.0000
 0846,0.00000403,0.,-0.00001497,-0.00063819,0.,-0.00057822,0.00033943,0
 .,0.00005755,0.00000190,0.,-0.00000269,-0.00001316,0.,-0.00000475,0.00
 054378,0.,0.00092911,0.00001724,0.,-0.00000799,-0.00016333,0.,-0.00096
 244,-0.00012554,0.,0.00058239,-0.00025513,0.,0.00021347,0.00003542,0.,
 -0.00002864,-0.00050559,0.,-0.00040712,-0.00003140,0.,-0.00000451,0.00
 070650,0.,0.00012129,-0.00269536,0.,-0.00496695,-0.00001792,0.,0.00002
 451,-0.00086543,0.,0.00104381,-0.28550397,0.,-0.06956690,0.00038528,0.
 ,-0.00069310,-0.01767961,0.,0.00011852,-0.00014795,0.,-0.00004197,0.30
 713408,0.,-0.00000045,0.,0.,-0.00000090,0.,0.,-0.00000152,0.,0.,0.0000
 0462,0.,0.,-0.00000223,0.,0.,-0.00000016,0.,0.,0.00000136,0.,0.,0.0000
 0078,0.,0.,0.00000092,0.,0.,0.00000292,0.,0.,0.00000184,0.,0.,0.000000
 75,0.,0.,-0.00000616,0.,0.,-0.00000754,0.,0.,0.00000553,0.,0.,0.000003
 75,0.,0.,-0.00006323,0.,0.,0.00002286,0.,0.,-0.00023497,0.,0.,0.000082
 14,0.,0.,0.00585335,0.,0.,0.00007494,0.,0.,-0.00054431,0.,0.,0.0000657
 7,0.,0.,-0.00038772,0.,0.,0.00752923,0.,0.,0.00004303,0.,0.,0.00394906
 ,0.,0.,-0.04334378,0.,0.,-0.00226946,0.,0.,0.00774521,0.,0.,-0.0004916
 5,0.,0.,0.02334619,-0.00000662,0.,0.00000764,-0.00000654,0.,-0.0000081
 4,-0.00000596,0.,0.00003045,0.00001675,0.,0.00000451,0.00000067,0.,-0.
 00000321,0.00000870,0.,-0.00000048,-0.00000278,0.,0.00000108,-0.000002
 37,0.,-0.00000185,-0.00000208,0.,0.00000045,-0.00001891,0.,-0.00003946
 ,0.00000138,0.,-0.00000133,0.00000064,0.,-0.00000273,-0.00010382,0.,-0
 .00010046,0.00005625,0.,0.00000989,-0.00000030,0.,0.00000007,-0.000002
 60,0.,-0.00000305,0.00005205,0.,0.00015653,0.00000143,0.,0.00000212,0.
 00008599,0.,-0.00031075,-0.00003959,0.,0.00019841,0.00012787,0.,-0.002
 71923,-0.00001996,0.,0.00000593,-0.00013575,0.,-0.00015594,-0.00000816
 ,0.,0.,0.00008023,0.,0.00022100,-0.02423165,0.,-0.00939608,-0.00000558
 ,0.,-0.00000466,0.00109960,0.,-0.00235980,-0.06923960,0.,-0.05815704,-
 0.00054631,0.,-0.00189216,0.01926212,0.,0.00583432,0.00024848,0.,0.000
 20007,0.07263611,0.,0.06902257,-0.00000924,0.,0.00001072,-0.00000858,0
 .,-0.00001207,-0.00000709,0.,0.00004004,0.00002040,0.,0.00000658,0.000
 00030,0.,-0.00000601,0.00001269,0.,-0.00000017,-0.00000339,0.,0.000001
 87,-0.00000283,0.,-0.00000222,-0.00000254,0.,0.00000072,-0.00002470,0.
 ,-0.00005410,0.00000187,0.,-0.00000178,0.00000083,0.,-0.00000331,-0.00
 015120,0.,-0.00013291,0.00007808,0.,0.00001017,-0.00000059,0.,-0.00000
 071,-0.00000082,0.,0.00000358,0.00013775,0.,0.00022188,0.00000200,0.,-
 0.00000296,-0.00014338,0.,-0.00021445,-0.00011473,0.,0.00007620,0.0001
 0140,0.,0.00001448,-0.00000125,0.,-0.00000723,-0.00009170,0.,-0.000474
 27,-0.00000042,0.,-0.00001411,-0.00248878,0.,0.00018173,-0.00225505,0.
 ,0.00116169,0.00001809,0.,-0.00001310,-0.00907287,0.,-0.02461256,0.005
 66085,0.,0.01943007,0.00019215,0.,0.00026693,-0.05804694,0.,-0.0688414
 3,-0.00179009,0.,-0.00051837,-0.00075124,0.,0.00115501,0.06866949,0.,-
 0.00000066,0.,0.,-0.00000024,0.,0.,-0.00000012,0.,0.,-0.00000092,0.,0.
 ,-0.00000264,0.,0.,0.00000029,0.,0.,0.00000139,0.,0.,0.00000073,0.,0.,
 0.00000104,0.,0.,0.00000058,0.,0.,0.00000161,0.,0.,0.00000078,0.,0.,0.
 00003021,0.,0.,-0.00000931,0.,0.,0.00000499,0.,0.,0.00000539,0.,0.,0.0
 0000121,0.,0.,0.00000418,0.,0.,-0.00004204,0.,0.,-0.00020287,0.,0.,-0.
 00011974,0.,0.,-0.00001106,0.,0.,-0.00025970,0.,0.,0.00004024,0.,0.,0.
 00579566,0.,0.,0.00382202,0.,0.,0.00008333,0.,0.,0.00728675,0.,0.,0.00
 710868,0.,0.,-0.00033723,0.,0.,-0.04233189,0.,0.,-0.00228708,0.,0.,-0.
 00130072,0.,0.,0.02313246,-0.00004184,0.,0.00004877,-0.00004081,0.,-0.
 00005491,-0.00003212,0.,0.00018750,0.00009597,0.,0.00003129,0.00000246
 ,0.,-0.00002597,0.00005693,0.,-0.00000096,-0.00001784,0.,0.00000936,-0
 .00001328,0.,-0.00001015,-0.00001263,0.,0.00000361,-0.00011885,0.,-0.0
 0024939,0.00000918,0.,-0.00000806,0.00000385,0.,-0.00001504,-0.0006878
 0,0.,-0.00061193,0.00036566,0.,0.00005845,-0.00000069,0.,-0.00000245,-
 0.00001243,0.,0.00000199,0.00059261,0.,0.00100270,0.00001499,0.,-0.000
 00767,-0.00046801,0.,-0.00101435,-0.00006284,0.,0.00038147,-0.00024807
 ,0.,0.00015516,0.00004287,0.,-0.00003219,-0.00032666,0.,-0.00018126,-0
 .00002803,0.,0.00000211,0.00044194,0.,-0.00005540,0.00131438,0.,-0.000
 44873,-0.00002824,0.,0.00002957,-0.00532038,0.,-0.00299783,0.00039943,
 0.,-0.01816151,-0.00003504,0.,-0.00014953,-0.06921879,0.,-0.28636726,-
 0.00068475,0.,0.00036078,0.00133918,0.,-0.00073678,0.07223621,0.,0.308
 34972,0.00131623,0.,-0.00143969,0.00099321,0.,0.00166264,0.00113163,0.
 ,-0.00492543,-0.00366074,0.,-0.00203223,0.00029485,0.,0.00159439,-0.00
 198499,0.,-0.00011675,0.00034655,0.,-0.00020006,0.00024209,0.,0.000185
 66,0.00023616,0.,-0.00009049,0.00318615,0.,0.00667090,-0.00022377,0.,0
 .00016803,-0.00007798,0.,0.00027362,0.02298998,0.,0.01885497,-0.010136
 09,0.,-0.00076437,-0.00005038,0.,0.00003545,-0.00016668,0.,-0.00097203
 ,-0.03704353,0.,-0.07120236,0.00071723,0.,-0.00199668,-0.34555265,0.,-
 0.06497114,-0.05978994,0.,0.04834716,-0.10577780,0.,-0.02915644,-0.233
 83379,0.,0.16696838,-0.02756524,0.,-0.02097267,-0.00129050,0.,0.000515
 76,0.03705314,0.,0.02985517,-0.02654327,0.,-0.04991040,0.00002891,0.,0
 .00003792,-0.01307302,0.,-0.00886192,-0.00721780,0.,0.01171388,-0.0029
 5542,0.,-0.00241390,0.01265827,0.,-0.00440678,-0.00008560,0.,0.0006413
 6,0.00040281,0.,-0.00044020,0.00009032,0.,0.00056076,0.79207273,0.,-0.
 00000103,0.,0.,0.00001410,0.,0.,0.00002539,0.,0.,-0.00012778,0.,0.,-0.
 00000526,0.,0.,0.00000900,0.,0.,-0.00003115,0.,0.,-0.00000476,0.,0.,-0
 .00000459,0.,0.,-0.00002063,0.,0.,-0.00001175,0.,0.,-0.00000169,0.,0.,
 0.00038724,0.,0.,0.00023402,0.00000001,0.,-0.00010299,0.,0.,-0.0000262
 5,0.,0.,0.00731661,0.,0.,0.00121652,0.,0.,-0.03794659,0.,0.,0.00918728
 ,0.,0.,-0.03466152,0.,0.,-0.00962488,0.,0.,-0.00316550,0.,0.,0.0026942
 3,0.,0.,0.00679431,0.,0.,0.00439140,0.,0.,-0.00047003,0.,0.,0.00415194
 ,0.,0.,0.00285800,0.,0.,-0.00056105,0.,0.,-0.00039546,0.,0.,-0.0001771
 4,0.,0.,-0.00007624,0.,0.,-0.00040902,0.,0.00000001,0.04847020,0.00022
 788,0.,-0.00020595,0.00013769,0.,0.00021257,0.00039545,0.,-0.00084610,
 -0.00089309,0.,-0.00067400,-0.00001755,0.,0.00028729,-0.00033859,0.,-0
 .00002294,0.00006262,0.,-0.00004756,0.00004511,0.,0.00003392,0.0000449
 2,0.,-0.00001956,0.00065779,0.,0.00123796,-0.00003967,0.,0.00003393,-0
 .00001727,0.,0.00004965,0.00523065,0.,-0.00127145,-0.00198288,0.,-0.00
 015832,-0.00005190,0.,-0.00000667,-0.00007330,0.,-0.00033288,-0.050682
 47,0.,-0.03648406,-0.00380868,0.,-0.00884270,-0.03195793,0.,-0.1318003
 2,0.00873168,0.,0.05473267,-0.05112130,0.,-0.31788888,0.16665679,0.,-0
 .21018081,-0.02965868,0.,-0.03590830,0.00089971,0.,-0.00258922,0.05196
 534,0.,-0.03827915,-0.04788133,0.,-0.03825802,-0.00018387,0.,0.0000879
 2,-0.01430408,0.,-0.01665893,-0.00561650,0.,0.02461223,-0.00109526,0.,
 0.00070395,0.02157235,0.,-0.00773311,-0.00009906,0.,0.00010716,-0.0000
 0236,0.,0.00015581,0.00003100,0.,0.00021656,-0.01684546,0.,0.76544832,
 -0.01063703,0.,0.01056785,-0.00706035,0.,-0.01145828,-0.05613134,0.,0.
 00797116,-0.24826919,0.,-0.11834698,0.00161908,0.,-0.03458431,0.016451
 56,0.,0.00555632,0.00013330,0.,-0.00013446,-0.00003485,0.,-0.00002806,
 -0.00013732,0.,-0.00012347,-0.01483364,0.,-0.02364147,0.00139210,0.,0.
 00095631,0.00037156,0.,-0.00001710,-0.13331520,0.,0.06820809,0.0118326
 4,0.,0.04252633,-0.34326289,0.,0.11504194,-0.00289960,0.,0.00014267,0.
 01046100,0.,-0.02825888,-0.00485574,0.,-0.00643597,-0.00613770,0.,-0.0
 0851953,-0.00091553,0.,0.00237482,-0.00008930,0.00000001,0.00079324,-0
 .00000895,0.,-0.00003106,-0.00123854,0.,-0.00143246,0.00010057,0.,0.00
 005216,0.00126520,0.,0.00045922,-0.00031964,0.,-0.00030711,0.00007725,
 0.,-0.00006444,-0.00034172,0.,-0.00049351,-0.00020504,0.,0.00050209,-0
 .00006264,0.,0.00003630,0.00054071,0.,-0.00013928,0.00004461,0.,-0.000
 04549,-0.00007253,0.,-0.00001470,-0.00001725,0.,-0.00007726,0.00327515
 ,-0.00000001,0.00001394,0.78328127,0.,-0.00039551,0.,0.,0.00415181,0.,
 0.,0.00679216,0.,0.,-0.03465827,0.,0.,0.00439219,0.,0.,0.00285847,0.,0
 .,-0.00046999,0.,0.,-0.00040904,0.,0.,-0.00017717,0.,0.,-0.00316376,0.
 ,0.,-0.00056125,0.,0.,-0.00007626,0.,0.,-0.03793113,0.,0.,0.00918462,0
 .,0.,-0.00961325,0.,0.,0.00269221,0.,0.,0.00731522,0.,0.,0.00121548,0.
 ,0.,0.00038808,0.,0.,0.00023390,0.,0.,-0.00012786,0.,0.,-0.00010295,0.
 ,0.,-0.00002070,0.,0.,-0.00002620,0.,0.,0.00002539,0.,0.,-0.00000528,0
 .,0.,-0.00003112,0.,0.,0.00001409,0.,0.,0.00000899,0.,0.,-0.00001174,0
 .,0.,-0.00000104,0.,0.,-0.00000458,0.,0.,-0.00000169,0.,0.,-0.00000476
 ,0.,0.,0.00007996,0.,0.,0.04844592,-0.01539228,0.,0.01555799,-0.006020
 34,0.,-0.02265214,-0.01411322,0.,0.05487506,-0.09639315,0.,-0.17536872
 ,-0.03661789,0.,-0.06640503,0.02287235,0.,0.00093091,0.00008744,0.,-0.
 00001677,0.00050187,0.,0.00034187,0.00061717,0.,0.00015872,-0.01495902
 ,0.,-0.04858876,-0.00036289,0.,-0.00364449,-0.00045500,0.,0.00018726,0
 .03525324,0.,-0.34415467,0.08209369,0.,-0.01690192,0.11536055,0.,-0.10
 077608,-0.00024563,0.,-0.00098151,-0.04879059,0.,-0.08401897,-0.004625
 34,0.,-0.00326383,0.00508442,0.,0.02789254,0.00359313,0.,-0.00940089,-
 0.00035150,0.,-0.00424938,0.00005499,0.,-0.00004540,0.00459071,0.,0.00
 566730,-0.00084487,0.,-0.00060048,-0.00487349,0.,-0.00098388,0.0013068
 3,0.,0.00090411,-0.00032741,0.,0.00022199,0.00103756,0.,0.00155080,0.0
 0072529,0.,-0.00180788,0.00024434,0.,-0.00012737,-0.00181211,0.,0.0005
 7293,-0.00018106,0.,0.00017214,0.00027647,0.,0.00004427,0.00006337,0.,
 0.00029349,-0.00635597,0.,0.00029108,-0.02104494,0.,0.77432035\\-0.000
 00321,0.,0.00000475,-0.00000024,0.,-0.00000738,0.00000528,0.,0.0000064
 7,-0.00001885,0.,-0.00001077,-0.00000262,0.,0.00000179,0.00000684,0.,0
 .00000259,-0.00000039,0.,-0.00000116,0.00000002,0.,-0.00000011,0.00000
 036,0.,0.00000125,-0.00002447,0.,-0.00002846,-0.00000055,0.,-0.0000017
 5,-0.00000226,0.,-0.00000030,0.00008861,0.,0.00000531,-0.00005509,0.,0
 .00000858,-0.00000489,0.,-0.00000124,0.00001959,0.,0.00001139,-0.00002
 492,0.,-0.00002327,-0.00000233,0.,-0.00000407,-0.00006944,0.,0.0000303
 0,0.00002038,0.,-0.00007809,0.00001280,0.,0.00002054,0.00000107,0.,-0.
 00000069,0.00000870,0.,0.00002056,0.00001695,0.,0.00003121,0.00000049,
 0.,0.00000546,-0.00000140,0.,0.00000968,0.00000113,0.,0.00000364,0.000
 01189,0.,0.00000191,-0.00000154,0.,-0.00001441,0.00000196,0.,0.0000020
 8,-0.00001290,0.,-0.00000078,0.00000027,0.,0.00000025,-0.00000064,0.,0
 .00000139,-0.00000017,0.,-0.00000006,0.00000233,0.,-0.00000748,0.00002
 723,0.,0.00001087\\\@


 ACTORS ARE SO FORTUNATE.  THEY CAN CHOOSE WHETHER
 THEY WILL APPEAR IN A TRAGEDY OR IN COMEDY,
 WHETHER THEY WILL SUFFER OF MAKE MERRY,
 LAUGH OR SHED TEARS.  BUT IN REAL LIFE IT IS DIFFERENT.
 MOST MEN AND WOMEN ARE FORCED TO PERFORM
 PARTS FOR WHICH THEY HAVE NO QUALIFICATIONS.
 THE WORLD IS A STAGE, BUT THE PLAY IS BADLY CAST.

                                   -- OSCAR WILDE
 Job cpu time:  0 days  0 hours  1 minutes 48.1 seconds.
 File lengths (MBytes):  RWF=     12 Int=      0 D2E=      0 Chk=     11 Scr=      1
 Normal termination of Gaussian 03 at Tue Feb 14 09:40:24 2006.
