 Entering Gaussian System, Link 0=/opt/g03/g03
 Initial command:
 /opt/g03/l1.exe /state/partition1/rkanters.g03.6036/Gau-23051.inp -scrdir=/state/partition1/rkanters.g03.6036/
 Entering Link 1 = /opt/g03/l1.exe PID=     23052.
  
 Copyright (c) 1988,1990,1992,1993,1995,1998,2003, Gaussian, Inc.
                  All Rights Reserved.
  
 This is the Gaussian(R) 03 program.  It is based on the
 the Gaussian(R) 98 system (copyright 1998, Gaussian, Inc.),
 the Gaussian(R) 94 system (copyright 1995, Gaussian, Inc.),
 the Gaussian 92(TM) system (copyright 1992, Gaussian, Inc.),
 the Gaussian 90(TM) system (copyright 1990, Gaussian, Inc.),
 the Gaussian 88(TM) system (copyright 1988, Gaussian, Inc.),
 the Gaussian 86(TM) system (copyright 1986, Carnegie Mellon
 University), and the Gaussian 82(TM) system (copyright 1983,
 Carnegie Mellon University). Gaussian is a federally registered
 trademark of Gaussian, Inc.
  
 This software contains proprietary and confidential information,
 including trade secrets, belonging to Gaussian, Inc.
  
 This software is provided under written license and may be
 used, copied, transmitted, or stored only in accord with that
 written license.
  
 The following legend is applicable only to US Government
 contracts under DFARS:
  
                    RESTRICTED RIGHTS LEGEND
  
 Use, duplication or disclosure by the US Government is subject
 to restrictions as set forth in subparagraph (c)(1)(ii) of the
 Rights in Technical Data and Computer Software clause at DFARS
 252.227-7013.
  
 Gaussian, Inc.
 Carnegie Office Park, Building 6, Pittsburgh, PA 15106 USA
  
 The following legend is applicable only to US Government
 contracts under FAR:
  
                    RESTRICTED RIGHTS LEGEND
  
 Use, reproduction and disclosure by the US Government is subject
 to restrictions as set forth in subparagraph (c) of the
 Commercial Computer Software - Restricted Rights clause at FAR
 52.227-19.
  
 Gaussian, Inc.
 Carnegie Office Park, Building 6, Pittsburgh, PA 15106 USA
  
  
 ---------------------------------------------------------------
 Warning -- This program may not be used in any manner that
 competes with the business of Gaussian, Inc. or will provide
 assistance to any competitor of Gaussian, Inc.  The licensee
 of this program is prohibited from giving any competitor of
 Gaussian, Inc. access to this program.  By using this program,
 the user acknowledges that Gaussian, Inc. is engaged in the
 business of creating and licensing software in the field of
 computational chemistry and represents and warrants to the
 licensee that it is not a competitor of Gaussian, Inc. and that
 it will not use this program in any manner prohibited above.
 ---------------------------------------------------------------
  

 Cite this work as:
 Gaussian 03, Revision B.04,
 M. J. Frisch, G. W. Trucks, H. B. Schlegel, G. E. Scuseria, 
 M. A. Robb, J. R. Cheeseman, J. A. Montgomery, Jr., T. Vreven, 
 K. N. Kudin, J. C. Burant, J. M. Millam, S. S. Iyengar, J. Tomasi, 
 V. Barone, B. Mennucci, M. Cossi, G. Scalmani, N. Rega, 
 G. A. Petersson, H. Nakatsuji, M. Hada, M. Ehara, K. Toyota, 
 R. Fukuda, J. Hasegawa, M. Ishida, T. Nakajima, Y. Honda, O. Kitao, 
 H. Nakai, M. Klene, X. Li, J. E. Knox, H. P. Hratchian, J. B. Cross, 
 C. Adamo, J. Jaramillo, R. Gomperts, R. E. Stratmann, O. Yazyev, 
 A. J. Austin, R. Cammi, C. Pomelli, J. W. Ochterski, P. Y. Ayala, 
 K. Morokuma, G. A. Voth, P. Salvador, J. J. Dannenberg, 
 V. G. Zakrzewski, S. Dapprich, A. D. Daniels, M. C. Strain, 
 O. Farkas, D. K. Malick, A. D. Rabuck, K. Raghavachari, 
 J. B. Foresman, J. V. Ortiz, Q. Cui, A. G. Baboul, S. Clifford, 
 J. Cioslowski, B. B. Stefanov, G. Liu, A. Liashenko, P. Piskorz, 
 I. Komaromi, R. L. Martin, D. J. Fox, T. Keith, M. A. Al-Laham, 
 C. Y. Peng, A. Nanayakkara, M. Challacombe, P. M. W. Gill, 
 B. Johnson, W. Chen, M. W. Wong, C. Gonzalez, and J. A. Pople, 
 Gaussian, Inc., Pittsburgh PA, 2003.
 
 *********************************************
 Gaussian 03:  x86-Linux-G03RevB.04 2-Jun-2003
                  12-Jul-2007 
 *********************************************
 %chk=/home/rkanters/C6H6/hexadiyne/24Hexadiyne_5.chk
 %mem=12mw
 --------------------------------------------------------------------
 # UPBEPBE/aug-cc-pVDZ Opt=(calcall,noraman,maxcycle=100) symm=follow
 --------------------------------------------------------------------
 1/6=100,10=4,14=-1,18=20,26=3,38=1/1,3;
 2/9=110,17=6,18=5,40=1/2;
 3/5=16,7=10,11=2,16=1,25=1,30=1,74=1009/1,2,3;
 4/7=2/1;
 5/5=2,38=5/2;
 8/6=4,10=90,11=11/1;
 11/6=1,8=1,9=11,15=111,16=1/1,2,10;
 10/6=1/2;
 6/7=2,8=2,9=2,10=2,18=1,28=1/1;
 7/10=1,25=1/1,2,3,16;
 1/6=100,10=4,14=-1,18=20/3(3);
 2/9=110,15=5/2;
 7/8=1,9=1,25=1,44=-1/16;
 99//99;
 2/9=110,15=5/2;
 3/5=16,7=10,11=2,16=1,25=1,30=1,74=1009/1,2,3;
 4/5=5,7=2,16=3/1;
 5/5=2,38=5/2;
 8/6=4,10=90,11=11/1;
 11/6=1,8=1,9=11,15=111,16=1/1,2,10;
 10/6=1/2;
 7/10=1,25=1/1,2,3,16;
 1/6=100,10=4,14=-1,18=20/3(-8);
 2/9=110,15=5/2;
 6/7=2,8=2,9=2,10=2,18=1,19=2,28=1/1;
 7/8=1,9=1,25=1,44=-1/16;
 99//99;
 ----------------------------------------------------------------------
 24hexadiyne init geom from 24hexadiyne_4.OUT.154 to break linearity 1s
 t freq
 ----------------------------------------------------------------------
 Symbolic Z-matrix:
 Charge =  0 Multiplicity = 1
 C                     0.003     0.        3.37243 
 C                    -0.03      0.        1.91665 
 C                     0.061     0.        0.6831 
 C                    -0.061     0.       -0.6831 
 C                     0.03      0.       -1.91665 
 C                    -0.003     0.       -3.37243 
 H                    -0.05403   1.03353   3.76866 
 H                     0.92208  -0.46998   3.76866 
 H                    -0.86805  -0.56355   3.76866 
 H                     0.86805  -0.56355  -3.76866 
 H                     0.05403   1.03353  -3.76866 
 H                    -0.92208  -0.46998  -3.76866 
 

 GradGradGradGradGradGradGradGradGradGradGradGradGradGradGradGradGradGrad
 Berny optimization.
 Initialization pass.
                           ----------------------------
                           !    Initial Parameters    !
                           ! (Angstroms and Degrees)  !
 --------------------------                            --------------------------
 ! Name  Definition              Value          Derivative Info.                !
 --------------------------------------------------------------------------------
 ! R1    R(1,2)                  1.4561         calculate D2E/DX2 analytically  !
 ! R2    R(1,7)                  1.1083         calculate D2E/DX2 analytically  !
 ! R3    R(1,8)                  1.1057         calculate D2E/DX2 analytically  !
 ! R4    R(1,9)                  1.1105         calculate D2E/DX2 analytically  !
 ! R5    R(2,3)                  1.2369         calculate D2E/DX2 analytically  !
 ! R6    R(3,4)                  1.3716         calculate D2E/DX2 analytically  !
 ! R7    R(4,5)                  1.2369         calculate D2E/DX2 analytically  !
 ! R8    R(5,6)                  1.4561         calculate D2E/DX2 analytically  !
 ! R9    R(6,10)                 1.1105         calculate D2E/DX2 analytically  !
 ! R10   R(6,11)                 1.1083         calculate D2E/DX2 analytically  !
 ! R11   R(6,12)                 1.1057         calculate D2E/DX2 analytically  !
 ! A1    A(2,1,7)              110.8695         calculate D2E/DX2 analytically  !
 ! A2    A(2,1,8)              112.1541         calculate D2E/DX2 analytically  !
 ! A3    A(2,1,9)              109.8113         calculate D2E/DX2 analytically  !
 ! A4    A(7,1,8)              108.1202         calculate D2E/DX2 analytically  !
 ! A5    A(7,1,9)              107.7757         calculate D2E/DX2 analytically  !
 ! A6    A(8,1,9)              107.9632         calculate D2E/DX2 analytically  !
 ! A7    A(1,2,3)              174.4823         calculate D2E/DX2 analytically  !
 ! A8    A(2,3,4)              170.678          calculate D2E/DX2 analytically  !
 ! A9    A(3,4,5)              170.678          calculate D2E/DX2 analytically  !
 ! A10   A(4,5,6)              174.4823         calculate D2E/DX2 analytically  !
 ! A11   A(5,6,10)             109.8113         calculate D2E/DX2 analytically  !
 ! A12   A(5,6,11)             110.8695         calculate D2E/DX2 analytically  !
 ! A13   A(5,6,12)             112.1541         calculate D2E/DX2 analytically  !
 ! A14   A(10,6,11)            107.7757         calculate D2E/DX2 analytically  !
 ! A15   A(10,6,12)            107.9632         calculate D2E/DX2 analytically  !
 ! A16   A(11,6,12)            108.1202         calculate D2E/DX2 analytically  !
 ! D1    D(7,1,2,3)             93.6534         calculate D2E/DX2 analytically  !
 ! D2    D(8,1,2,3)            -27.3181         calculate D2E/DX2 analytically  !
 ! D3    D(9,1,2,3)           -147.3587         calculate D2E/DX2 analytically  !
 ! D4    D(1,2,3,4)            180.0            calculate D2E/DX2 analytically  !
 ! D5    D(2,3,4,5)            180.0            calculate D2E/DX2 analytically  !
 ! D6    D(3,4,5,6)            180.0            calculate D2E/DX2 analytically  !
 ! D7    D(4,5,6,10)          -147.3587         calculate D2E/DX2 analytically  !
 ! D8    D(4,5,6,11)            93.6534         calculate D2E/DX2 analytically  !
 ! D9    D(4,5,6,12)           -27.3181         calculate D2E/DX2 analytically  !
 --------------------------------------------------------------------------------
 Trust Radius=3.00D-01 FncErr=1.00D-07 GrdErr=1.00D-06
 Number of steps in this run= 100 maximum allowed number of steps= 100.
 GradGradGradGradGradGradGradGradGradGradGradGradGradGradGradGradGradGrad

                          Input orientation:                          
 ---------------------------------------------------------------------
 Center     Atomic     Atomic              Coordinates (Angstroms)
 Number     Number      Type              X           Y           Z
 ---------------------------------------------------------------------
    1          6             0        0.003000    0.000000    3.372428
    2          6             0       -0.030000    0.000000    1.916654
    3          6             0        0.061000    0.000000    0.683103
    4          6             0       -0.061000    0.000000   -0.683103
    5          6             0        0.030000    0.000000   -1.916654
    6          6             0       -0.003000    0.000000   -3.372428
    7          1             0       -0.054026    1.033529    3.768660
    8          1             0        0.922075   -0.469977    3.768660
    9          1             0       -0.868049   -0.563552    3.768660
   10          1             0        0.868049   -0.563552   -3.768660
   11          1             0        0.054026    1.033529   -3.768660
   12          1             0       -0.922075   -0.469977   -3.768660
 ---------------------------------------------------------------------
                    Distance matrix (angstroms):
                    1          2          3          4          5
     1  C    0.000000
     2  C    1.456148   0.000000
     3  C    2.689950   1.236903   0.000000
     4  C    4.056036   2.599942   1.371642   0.000000
     5  C    5.289151   3.833778   2.599942   1.236903   0.000000
     6  C    6.744859   5.289151   4.056036   2.689950   1.456148
     7  H    1.108347   2.121011   3.256083   4.570167   5.779104
     8  H    1.105702   2.134772   3.237745   4.583177   5.774034
     9  H    1.110548   2.109465   3.271297   4.559289   5.783328
    10  H    7.215334   5.783328   4.559289   3.271297   2.109465
    11  H    7.215672   5.779104   4.570167   3.256083   2.121011
    12  H    7.216078   5.774034   4.583177   3.237745   2.134772
                    6          7          8          9         10
     6  C    0.000000
     7  H    7.215672   0.000000
     8  H    7.216078   1.792569   0.000000
     9  H    7.215334   1.792568   1.792568   0.000000
    10  H    1.110548   7.759645   7.538094   7.734677   0.000000
    11  H    1.108347   7.538094   7.734677   7.759645   1.792568
    12  H    1.105702   7.734677   7.759644   7.538094   1.792568
                   11         12
    11  H    0.000000
    12  H    1.792569   0.000000
 Stoichiometry    C6H6
 Framework group  C2[X(C6H6)]
 Deg. of freedom    16
 Full point group                 C2      NOp   2
 Largest Abelian subgroup         C2      NOp   2
 Largest concise Abelian subgroup C2      NOp   2
                         Standard orientation:                         
 ---------------------------------------------------------------------
 Center     Atomic     Atomic              Coordinates (Angstroms)
 Number     Number      Type              X           Y           Z
 ---------------------------------------------------------------------
    1          6             0        0.073429    3.371630    0.000000
    2          6             0        0.073429    1.915482    0.000000
    3          6             0       -0.045503    0.684310    0.000000
    4          6             0        0.045503   -0.684310    0.000000
    5          6             0       -0.073429   -1.915482    0.000000
    6          6             0       -0.073429   -3.371630    0.000000
    7          1             0        0.139420    3.766468    1.033529
    8          1             0       -0.836431    3.788589   -0.469977
    9          1             0        0.953233    3.748020   -0.563552
   10          1             0       -0.953233   -3.748020   -0.563552
   11          1             0       -0.139420   -3.766468    1.033529
   12          1             0        0.836431   -3.788589   -0.469977
 ---------------------------------------------------------------------
 Rotational constants (GHZ):     76.7123989      1.0952091      1.0949456
 Standard basis: Aug-CC-pVDZ (5D, 7F)
 There are    96 symmetry adapted basis functions of A   symmetry.
 There are    96 symmetry adapted basis functions of B   symmetry.
 Integral buffers will be    262144 words long.
 Raffenetti 2 integral format.
 Two-electron integral symmetry is turned on.
   192 basis functions,   324 primitive gaussians,   204 cartesian basis functions
    21 alpha electrons       21 beta electrons
       nuclear repulsion energy       168.5849388118 Hartrees.
 NAtoms=   12 NActive=   12 NUniq=    6 SFac= 4.00D+00 NAtFMM=   60 Big=F
 One-electron integrals computed using PRISM.
 NBasis=   192 RedAO= T  NBF=    96    96
 NBsUse=   192 1.00D-06 NBFU=    96    96
 Harris functional with IExCor= 1009 diagonalized for initial guess.
 ExpMin= 2.97D-02 ExpMax= 6.67D+03 ExpMxC= 2.28D+02 IAcc=3 IRadAn=         5 AccDes= 0.00D+00
 HarFok:  IExCor=1009 AccDes= 0.00D+00 IRadAn=         5 IDoV=1
 ScaDFX=  1.000000  1.000000  1.000000  1.000000
 Initial guess orbital symmetries:
 Alpha Orbitals:
       Occupied  (A) (B) (B) (A) (B) (A) (A) (B) (A) (B) (A) (B)
                 (A) (A) (B) (B) (A) (A) (B) (A) (B)
       Virtual   (B) (A) (A) (B) (A) (B) (B) (A) (A) (B) (B) (A)
                 (B) (A) (B) (A) (B) (A) (A) (B) (A) (B) (B) (B)
                 (A) (A) (B) (A) (B) (A) (A) (B) (A) (B) (B) (A)
                 (B) (A) (B) (A) (B) (A) (B) (A) (A) (B) (A) (B)
                 (B) (A) (B) (A) (B) (A) (B) (B) (A) (A) (B) (A)
                 (A) (B) (A) (B) (A) (B) (B) (A) (A) (B) (B) (A)
                 (A) (B) (B) (A) (A) (B) (A) (A) (B) (A) (B) (B)
                 (B) (A) (B) (A) (B) (A) (B) (A) (A) (B) (A) (A)
                 (B) (B) (A) (B) (B) (A) (B) (A) (B) (A) (B) (A)
                 (B) (B) (A) (B) (A) (A) (B) (B) (A) (A) (B) (A)
                 (A) (B) (A) (B) (A) (B) (B) (A) (B) (A) (A) (B)
                 (B) (A) (B) (A) (A) (B) (A) (B) (B) (A) (B) (A)
                 (A) (B) (B) (A) (A) (B) (A) (B) (B) (A) (B) (A)
                 (B) (A) (A) (B) (B) (B) (A) (A) (B) (A) (B) (A)
                 (B) (A) (B)
 Beta  Orbitals:
       Occupied  (A) (B) (B) (A) (B) (A) (A) (B) (A) (B) (A) (B)
                 (A) (A) (B) (B) (A) (A) (B) (A) (B)
       Virtual   (B) (A) (A) (B) (A) (B) (B) (A) (A) (B) (B) (A)
                 (B) (A) (B) (A) (B) (A) (A) (B) (A) (B) (B) (B)
                 (A) (A) (B) (A) (B) (A) (A) (B) (A) (B) (B) (A)
                 (B) (A) (B) (A) (B) (A) (B) (A) (A) (B) (A) (B)
                 (B) (A) (B) (A) (B) (A) (B) (B) (A) (A) (B) (A)
                 (A) (B) (A) (B) (A) (B) (B) (A) (A) (B) (B) (A)
                 (A) (B) (B) (A) (A) (B) (A) (A) (B) (A) (B) (B)
                 (B) (A) (B) (A) (B) (A) (B) (A) (A) (B) (A) (A)
                 (B) (B) (A) (B) (B) (A) (B) (A) (B) (A) (B) (A)
                 (B) (B) (A) (B) (A) (A) (B) (B) (A) (A) (B) (A)
                 (A) (B) (A) (B) (A) (B) (B) (A) (B) (A) (A) (B)
                 (B) (A) (B) (A) (A) (B) (A) (B) (B) (A) (B) (A)
                 (A) (B) (B) (A) (A) (B) (A) (B) (B) (A) (B) (A)
                 (B) (A) (A) (B) (B) (B) (A) (A) (B) (A) (B) (A)
                 (B) (A) (B)
 The electronic state of the initial guess is 1-A.
 <S**2> of initial guess= 0.0000
 Requested convergence on RMS density matrix=1.00D-08 within 128 cycles.
 Requested convergence on MAX density matrix=1.00D-06.
 Requested convergence on             energy=1.00D-06.
 No special actions if energy rises.
 SCF Done:  E(UPBE-PBE) =  -231.844527300     A.U. after   16 cycles
             Convg  =    0.8086D-08             -V/T =  2.0069
             S**2   =   0.0000
 Annihilation of the first spin contaminant:
 S**2 before annihilation     0.0000,   after     0.0000
 Range of M.O.s used for correlation:     1   192
 NBasis=   192 NAE=    21 NBE=    21 NFC=     0 NFV=     0
 NROrb=    192 NOA=    21 NOB=    21 NVA=   171 NVB=   171

 **** Warning!!: The largest alpha MO coefficient is  0.13671706D+03


 **** Warning!!: The largest beta MO coefficient is  0.13671706D+03

 Symmetrizing basis deriv contribution to polar:
 IMax=3 JMax=2 DiffMx= 0.00D+00
 G2DrvN: will do   13 centers at a time, making    1 passes doing MaxLOS=2.
 Calling FoFCou, ICntrl=  3507 FMM=F I1Cent=   0.
 FoFDir/FoFCou used for L=0 through L=2.
          Differentiating once with respect to electric field.
                with respect to dipole field.
          Differentiating once with respect to nuclear coordinates.
 FoFCou: FMM=F IPFlag=           0 FMFlag=           0 FMFlg1=           0
 NFxFlg=           0 DoJE=F BraDBF=F KetDBF=F FulRan=T.
 Integrals replicated using symmetry in FoFCou.
          There are  21 degrees of freedom in the 1st order CPHF.
    21 vectors were produced by pass  0.
 AX will form  21 AO Fock derivatives at one time.
    21 vectors were produced by pass  1.
    21 vectors were produced by pass  2.
    21 vectors were produced by pass  3.
    21 vectors were produced by pass  4.
    16 vectors were produced by pass  5.
     5 vectors were produced by pass  6.
     2 vectors were produced by pass  7.
     2 vectors were produced by pass  8.
     1 vectors were produced by pass  9.
 Inv2:  IOpt= 1 Iter= 1 AM= 1.36D-15 Conv= 1.00D-12.
 Inverted reduced A of dimension  131 with in-core refinement.
 Isotropic polarizability for W=    0.000000       90.46 Bohr**3.
 End of Minotr Frequency-dependent properties file   721 does not exist.

 **********************************************************************

            Population analysis using the SCF density.

 **********************************************************************

 Orbital symmetries:
 Alpha Orbitals:
       Occupied  (B) (A) (A) (B) (A) (B) (A) (B) (A) (B) (A) (B)
                 (A) (A) (B) (B) (A) (B) (A) (A) (B)
       Virtual   (B) (A) (A) (B) (B) (A) (A) (B) (A) (B) (B) (A)
                 (B) (B) (A) (A) (A) (B) (A) (B) (A) (B) (A) (B)
                 (A) (B) (A) (B) (A) (B) (B) (A) (B) (B) (A) (A)
                 (A) (B) (B) (A) (B) (A) (A) (B) (A) (B) (A) (B)
                 (B) (A) (B) (A) (B) (A) (B) (A) (B) (A) (B) (A)
                 (A) (B) (A) (B) (B) (A) (A) (B) (B) (B) (A) (A)
                 (B) (A) (A) (B) (A) (B) (A) (A) (B) (A) (B) (B)
                 (A) (B) (B) (A) (B) (B) (A) (A) (A) (B) (A) (A)
                 (B) (B) (B) (A) (A) (B) (B) (A) (A) (B) (B) (A)
                 (B) (B) (A) (B) (A) (B) (A) (B) (A) (A) (B) (A)
                 (A) (B) (A) (A) (B) (B) (B) (A) (A) (B) (A) (B)
                 (B) (A) (B) (A) (B) (A) (B) (A) (B) (A) (B) (A)
                 (A) (B) (B) (A) (A) (B) (A) (B) (B) (A) (B) (A)
                 (B) (A) (B) (A) (B) (A) (B) (A) (B) (A) (B) (B)
                 (A) (A) (B)
 Beta  Orbitals:
       Occupied  (B) (A) (A) (B) (A) (B) (A) (B) (A) (B) (A) (B)
                 (A) (A) (B) (B) (A) (B) (A) (A) (B)
       Virtual   (B) (A) (A) (B) (B) (A) (A) (B) (A) (B) (B) (A)
                 (B) (B) (A) (A) (A) (B) (A) (B) (A) (B) (A) (B)
                 (A) (B) (A) (B) (A) (B) (B) (A) (B) (B) (A) (A)
                 (A) (B) (B) (A) (B) (A) (A) (B) (A) (B) (A) (B)
                 (B) (A) (B) (A) (B) (A) (B) (A) (B) (A) (B) (A)
                 (A) (B) (A) (B) (B) (A) (A) (B) (B) (B) (A) (A)
                 (B) (A) (A) (B) (A) (B) (A) (A) (B) (A) (B) (B)
                 (A) (B) (B) (A) (B) (B) (A) (A) (A) (B) (A) (A)
                 (B) (B) (B) (A) (A) (B) (B) (A) (A) (B) (B) (A)
                 (B) (B) (A) (B) (A) (B) (A) (B) (A) (A) (B) (A)
                 (A) (B) (A) (A) (B) (B) (B) (A) (A) (B) (A) (B)
                 (B) (A) (B) (A) (B) (A) (B) (A) (B) (A) (B) (A)
                 (A) (B) (B) (A) (A) (B) (A) (B) (B) (A) (B) (A)
                 (B) (A) (B) (A) (B) (A) (B) (A) (B) (A) (B) (B)
                 (A) (A) (B)
 The electronic state is 1-A.
 Alpha  occ. eigenvalues --   -9.92582  -9.92581  -9.91157  -9.91154  -9.90887
 Alpha  occ. eigenvalues --   -9.90851  -0.72646  -0.70895  -0.66933  -0.61965
 Alpha  occ. eigenvalues --   -0.52638  -0.42245  -0.41069  -0.38924  -0.38909
 Alpha  occ. eigenvalues --   -0.38713  -0.38652  -0.28892  -0.28864  -0.20452
 Alpha  occ. eigenvalues --   -0.20399
 Alpha virt. eigenvalues --   -0.04621  -0.04303  -0.01983  -0.01436   0.02091
 Alpha virt. eigenvalues --    0.02107   0.02116   0.02488   0.02502   0.04510
 Alpha virt. eigenvalues --    0.07084   0.07419   0.07538   0.08038   0.08042
 Alpha virt. eigenvalues --    0.08188   0.08703   0.08880   0.09443   0.10287
 Alpha virt. eigenvalues --    0.10458   0.12165   0.12242   0.13538   0.13549
 Alpha virt. eigenvalues --    0.13837   0.15245   0.15658   0.15841   0.16080
 Alpha virt. eigenvalues --    0.17331   0.17618   0.19059   0.19476   0.19495
 Alpha virt. eigenvalues --    0.19822   0.22344   0.22636   0.24182   0.26162
 Alpha virt. eigenvalues --    0.29243   0.29264   0.30778   0.30869   0.31020
 Alpha virt. eigenvalues --    0.33053   0.33726   0.33972   0.34612   0.34665
 Alpha virt. eigenvalues --    0.36064   0.38105   0.38116   0.38141   0.39226
 Alpha virt. eigenvalues --    0.39429   0.39953   0.41522   0.43186   0.43239
 Alpha virt. eigenvalues --    0.45870   0.46055   0.47206   0.47956   0.49117
 Alpha virt. eigenvalues --    0.50848   0.51090   0.51334   0.51694   0.53158
 Alpha virt. eigenvalues --    0.53491   0.53666   0.55312   0.55529   0.57626
 Alpha virt. eigenvalues --    0.59055   0.60801   0.61851   0.62494   0.63035
 Alpha virt. eigenvalues --    0.63131   0.66535   0.66967   0.67837   0.69076
 Alpha virt. eigenvalues --    0.69085   0.73071   0.74502   0.74659   0.80578
 Alpha virt. eigenvalues --    0.80589   0.82963   0.85415   0.86327   0.87735
 Alpha virt. eigenvalues --    0.89429   0.89523   0.90067   0.91702   0.91920
 Alpha virt. eigenvalues --    0.97373   0.99489   1.07806   1.08539   1.11876
 Alpha virt. eigenvalues --    1.11894   1.13063   1.17750   1.18758   1.24651
 Alpha virt. eigenvalues --    1.27733   1.28230   1.28599   1.33980   1.34168
 Alpha virt. eigenvalues --    1.35209   1.36550   1.38943   1.40270   1.40447
 Alpha virt. eigenvalues --    1.45778   1.45790   1.51429   1.54266   1.54266
 Alpha virt. eigenvalues --    1.54550   1.55208   1.55631   1.55838   1.55869
 Alpha virt. eigenvalues --    1.64620   1.65534   1.67855   1.69772   1.73431
 Alpha virt. eigenvalues --    1.73555   1.74656   1.74721   1.83687   1.83810
 Alpha virt. eigenvalues --    1.88912   1.90216   1.90347   1.92935   1.94246
 Alpha virt. eigenvalues --    1.95201   1.98082   2.03160   2.07520   2.09420
 Alpha virt. eigenvalues --    2.20245   2.20624   2.25877   2.30844   2.34294
 Alpha virt. eigenvalues --    2.36378   2.38153   2.44560   2.49443   2.49693
 Alpha virt. eigenvalues --    2.50444   2.54706   2.54722   2.75312   2.77275
 Alpha virt. eigenvalues --    2.80172   2.99435   3.03506   3.08240   3.34245
 Alpha virt. eigenvalues --    3.92377
  Beta  occ. eigenvalues --   -9.92582  -9.92581  -9.91157  -9.91154  -9.90887
  Beta  occ. eigenvalues --   -9.90851  -0.72646  -0.70895  -0.66933  -0.61965
  Beta  occ. eigenvalues --   -0.52638  -0.42245  -0.41069  -0.38924  -0.38909
  Beta  occ. eigenvalues --   -0.38713  -0.38652  -0.28892  -0.28864  -0.20452
  Beta  occ. eigenvalues --   -0.20399
  Beta virt. eigenvalues --   -0.04621  -0.04303  -0.01983  -0.01436   0.02091
  Beta virt. eigenvalues --    0.02107   0.02116   0.02488   0.02502   0.04510
  Beta virt. eigenvalues --    0.07084   0.07419   0.07538   0.08038   0.08042
  Beta virt. eigenvalues --    0.08188   0.08703   0.08880   0.09443   0.10287
  Beta virt. eigenvalues --    0.10458   0.12165   0.12242   0.13538   0.13549
  Beta virt. eigenvalues --    0.13837   0.15245   0.15658   0.15841   0.16080
  Beta virt. eigenvalues --    0.17331   0.17618   0.19059   0.19476   0.19495
  Beta virt. eigenvalues --    0.19822   0.22344   0.22636   0.24182   0.26162
  Beta virt. eigenvalues --    0.29243   0.29264   0.30778   0.30869   0.31020
  Beta virt. eigenvalues --    0.33053   0.33726   0.33972   0.34612   0.34665
  Beta virt. eigenvalues --    0.36064   0.38105   0.38116   0.38141   0.39226
  Beta virt. eigenvalues --    0.39429   0.39953   0.41522   0.43186   0.43239
  Beta virt. eigenvalues --    0.45870   0.46055   0.47206   0.47956   0.49117
  Beta virt. eigenvalues --    0.50848   0.51090   0.51334   0.51694   0.53158
  Beta virt. eigenvalues --    0.53491   0.53666   0.55312   0.55529   0.57626
  Beta virt. eigenvalues --    0.59055   0.60801   0.61851   0.62494   0.63035
  Beta virt. eigenvalues --    0.63131   0.66535   0.66967   0.67837   0.69076
  Beta virt. eigenvalues --    0.69085   0.73071   0.74502   0.74659   0.80578
  Beta virt. eigenvalues --    0.80589   0.82963   0.85415   0.86327   0.87735
  Beta virt. eigenvalues --    0.89429   0.89523   0.90067   0.91702   0.91920
  Beta virt. eigenvalues --    0.97373   0.99489   1.07806   1.08539   1.11876
  Beta virt. eigenvalues --    1.11894   1.13063   1.17750   1.18758   1.24651
  Beta virt. eigenvalues --    1.27733   1.28230   1.28599   1.33980   1.34168
  Beta virt. eigenvalues --    1.35209   1.36550   1.38943   1.40270   1.40447
  Beta virt. eigenvalues --    1.45778   1.45790   1.51429   1.54266   1.54266
  Beta virt. eigenvalues --    1.54550   1.55208   1.55631   1.55838   1.55869
  Beta virt. eigenvalues --    1.64620   1.65534   1.67855   1.69772   1.73431
  Beta virt. eigenvalues --    1.73555   1.74656   1.74721   1.83687   1.83810
  Beta virt. eigenvalues --    1.88912   1.90216   1.90347   1.92935   1.94246
  Beta virt. eigenvalues --    1.95201   1.98082   2.03160   2.07520   2.09420
  Beta virt. eigenvalues --    2.20245   2.20624   2.25877   2.30844   2.34294
  Beta virt. eigenvalues --    2.36378   2.38153   2.44560   2.49443   2.49693
  Beta virt. eigenvalues --    2.50444   2.54706   2.54722   2.75312   2.77275
  Beta virt. eigenvalues --    2.80172   2.99435   3.03506   3.08240   3.34245
  Beta virt. eigenvalues --    3.92377
          Condensed to atoms (all electrons):
              1          2          3          4          5          6
     1  C    4.837979   0.385125  -0.410017  -0.084958   0.015952  -0.005504
     2  C    0.385125  16.994642  -6.323676  -2.177892  -1.088630   0.015952
     3  C   -0.410017  -6.323676  15.805155  -2.381045  -2.177892  -0.084958
     4  C   -0.084958  -2.177892  -2.381045  15.805155  -6.323676  -0.410017
     5  C    0.015952  -1.088630  -2.177892  -6.323676  16.994642   0.385125
     6  C   -0.005504   0.015952  -0.084958  -0.410017   0.385125   4.837979
     7  H    0.241112   0.206192  -0.169972   0.027183  -0.004216  -0.000517
     8  H    0.260327   0.206867  -0.209768   0.029477  -0.002489  -0.000674
     9  H    0.281166   0.157390  -0.151274   0.021904  -0.004201  -0.000110
    10  H   -0.000110  -0.004201   0.021904  -0.151274   0.157390   0.281166
    11  H   -0.000517  -0.004216   0.027183  -0.169972   0.206192   0.241112
    12  H   -0.000674  -0.002489   0.029477  -0.209768   0.206867   0.260327
              7          8          9         10         11         12
     1  C    0.241112   0.260327   0.281166  -0.000110  -0.000517  -0.000674
     2  C    0.206192   0.206867   0.157390  -0.004201  -0.004216  -0.002489
     3  C   -0.169972  -0.209768  -0.151274   0.021904   0.027183   0.029477
     4  C    0.027183   0.029477   0.021904  -0.151274  -0.169972  -0.209768
     5  C   -0.004216  -0.002489  -0.004201   0.157390   0.206192   0.206867
     6  C   -0.000517  -0.000674  -0.000110   0.281166   0.241112   0.260327
     7  H    0.916338  -0.125067  -0.049164   0.000035  -0.000168   0.000025
     8  H   -0.125067   0.992890  -0.090164  -0.000170   0.000025   0.000054
     9  H   -0.049164  -0.090164   0.871376   0.000063   0.000035  -0.000170
    10  H    0.000035  -0.000170   0.000063   0.871376  -0.049164  -0.090164
    11  H   -0.000168   0.000025   0.000035  -0.049164   0.916338  -0.125067
    12  H    0.000025   0.000054  -0.000170  -0.090164  -0.125067   0.992890
 Mulliken atomic charges:
              1
     1  C    0.480118
     2  C   -2.365065
     3  C    2.024884
     4  C    2.024884
     5  C   -2.365065
     6  C    0.480118
     7  H   -0.041780
     8  H   -0.061307
     9  H   -0.036850
    10  H   -0.036850
    11  H   -0.041780
    12  H   -0.061307
 Sum of Mulliken charges=   0.00000
 Atomic charges with hydrogens summed into heavy atoms:
              1
     1  C    0.340181
     2  C   -2.365065
     3  C    2.024884
     4  C    2.024884
     5  C   -2.365065
     6  C    0.340181
     7  H    0.000000
     8  H    0.000000
     9  H    0.000000
    10  H    0.000000
    11  H    0.000000
    12  H    0.000000
 Sum of Mulliken charges=   0.00000
          Atomic-Atomic Spin Densities.
              1          2          3          4          5          6
     1  C    0.000000   0.000000   0.000000   0.000000   0.000000   0.000000
     2  C    0.000000   0.000000   0.000000   0.000000   0.000000   0.000000
     3  C    0.000000   0.000000   0.000000   0.000000   0.000000   0.000000
     4  C    0.000000   0.000000   0.000000   0.000000   0.000000   0.000000
     5  C    0.000000   0.000000   0.000000   0.000000   0.000000   0.000000
     6  C    0.000000   0.000000   0.000000   0.000000   0.000000   0.000000
     7  H    0.000000   0.000000   0.000000   0.000000   0.000000   0.000000
     8  H    0.000000   0.000000   0.000000   0.000000   0.000000   0.000000
     9  H    0.000000   0.000000   0.000000   0.000000   0.000000   0.000000
    10  H    0.000000   0.000000   0.000000   0.000000   0.000000   0.000000
    11  H    0.000000   0.000000   0.000000   0.000000   0.000000   0.000000
    12  H    0.000000   0.000000   0.000000   0.000000   0.000000   0.000000
              7          8          9         10         11         12
     1  C    0.000000   0.000000   0.000000   0.000000   0.000000   0.000000
     2  C    0.000000   0.000000   0.000000   0.000000   0.000000   0.000000
     3  C    0.000000   0.000000   0.000000   0.000000   0.000000   0.000000
     4  C    0.000000   0.000000   0.000000   0.000000   0.000000   0.000000
     5  C    0.000000   0.000000   0.000000   0.000000   0.000000   0.000000
     6  C    0.000000   0.000000   0.000000   0.000000   0.000000   0.000000
     7  H    0.000000   0.000000   0.000000   0.000000   0.000000   0.000000
     8  H    0.000000   0.000000   0.000000   0.000000   0.000000   0.000000
     9  H    0.000000   0.000000   0.000000   0.000000   0.000000   0.000000
    10  H    0.000000   0.000000   0.000000   0.000000   0.000000   0.000000
    11  H    0.000000   0.000000   0.000000   0.000000   0.000000   0.000000
    12  H    0.000000   0.000000   0.000000   0.000000   0.000000   0.000000
 Mulliken atomic spin densities:
              1
     1  C    0.000000
     2  C    0.000000
     3  C    0.000000
     4  C    0.000000
     5  C    0.000000
     6  C    0.000000
     7  H    0.000000
     8  H    0.000000
     9  H    0.000000
    10  H    0.000000
    11  H    0.000000
    12  H    0.000000
 Sum of Mulliken spin densities=   0.00000
 APT atomic charges:
              1
     1  C    0.107908
     2  C   -0.027203
     3  C   -0.037162
     4  C   -0.037162
     5  C   -0.027203
     6  C    0.107908
     7  H   -0.015049
     8  H   -0.016209
     9  H   -0.012285
    10  H   -0.012285
    11  H   -0.015049
    12  H   -0.016209
 Sum of APT charges=   0.00000
 APT Atomic charges with hydrogens summed into heavy atoms:
              1
     1  C    0.064365
     2  C   -0.027203
     3  C   -0.037162
     4  C   -0.037162
     5  C   -0.027203
     6  C    0.064365
     7  H    0.000000
     8  H    0.000000
     9  H    0.000000
    10  H    0.000000
    11  H    0.000000
    12  H    0.000000
 Sum of APT charges=   0.00000
 Electronic spatial extent (au):  <R**2>=  1061.8495
 Charge=     0.0000 electrons
 Dipole moment (field-independent basis, Debye):
    X=     0.0000    Y=     0.0000    Z=    -0.0032  Tot=     0.0032
 Quadrupole moment (field-independent basis, Debye-Ang):
   XX=   -36.9978   YY=   -19.6065   ZZ=   -36.9987
   XY=     0.3952   XZ=     0.0000   YZ=     0.0000
 Traceless Quadrupole moment (field-independent basis, Debye-Ang):
   XX=    -5.7968   YY=    11.5945   ZZ=    -5.7977
   XY=     0.3952   XZ=     0.0000   YZ=     0.0000
 Octapole moment (field-independent basis, Debye-Ang**2):
  XXX=     0.0000  YYY=     0.0000  ZZZ=     1.4471  XYY=     0.0000
  XXY=     0.0000  XXZ=    -1.4523  XZZ=     0.0000  YZZ=     0.0000
  YYZ=    -0.0571  XYZ=     0.0691
 Hexadecapole moment (field-independent basis, Debye-Ang**3):
 XXXX=   -58.0364 YYYY= -1184.5163 ZZZZ=   -56.9422 XXXY=   -15.4107
 XXXZ=     0.0000 YYYX=   -12.9426 YYYZ=     0.0000 ZZZX=     0.0000
 ZZZY=     0.0000 XXYY=  -229.4889 XXZZ=   -19.1163 YYZZ=  -229.5584
 XXYZ=     0.0000 YYXZ=     0.0000 ZZXY=    -3.9846
 N-N= 1.685849388118D+02 E-N=-8.743307998804D+02  KE= 2.302528638427D+02
 Symmetry A    KE= 1.167879881798D+02
 Symmetry B    KE= 1.134648756629D+02
  Exact polarizability:  52.083   4.521 167.512   0.000   0.000  51.799
 Approx polarizability:  84.383  20.920 379.741   0.000   0.000  82.448
                          Isotropic Fermi Contact Couplings
        Atom                 a.u.       MegaHertz       Gauss      10(-4) cm-1
     1  C(13)              0.00000       0.00000       0.00000       0.00000
     2  C(13)              0.00000       0.00000       0.00000       0.00000
     3  C(13)              0.00000       0.00000       0.00000       0.00000
     4  C(13)              0.00000       0.00000       0.00000       0.00000
     5  C(13)              0.00000       0.00000       0.00000       0.00000
     6  C(13)              0.00000       0.00000       0.00000       0.00000
     7  H(1)               0.00000       0.00000       0.00000       0.00000
     8  H(1)               0.00000       0.00000       0.00000       0.00000
     9  H(1)               0.00000       0.00000       0.00000       0.00000
    10  H(1)               0.00000       0.00000       0.00000       0.00000
    11  H(1)               0.00000       0.00000       0.00000       0.00000
    12  H(1)               0.00000       0.00000       0.00000       0.00000
 --------------------------------------------------------
       Center         ----  Spin Dipole Couplings  ----
                      3XX-RR        3YY-RR        3ZZ-RR
 --------------------------------------------------------
     1   Atom        0.000000      0.000000      0.000000
     2   Atom        0.000000      0.000000      0.000000
     3   Atom        0.000000      0.000000      0.000000
     4   Atom        0.000000      0.000000      0.000000
     5   Atom        0.000000      0.000000      0.000000
     6   Atom        0.000000      0.000000      0.000000
     7   Atom        0.000000      0.000000      0.000000
     8   Atom        0.000000      0.000000      0.000000
     9   Atom        0.000000      0.000000      0.000000
    10   Atom        0.000000      0.000000      0.000000
    11   Atom        0.000000      0.000000      0.000000
    12   Atom        0.000000      0.000000      0.000000
 --------------------------------------------------------
                        XY            XZ            YZ
 --------------------------------------------------------
     1   Atom        0.000000      0.000000      0.000000
     2   Atom        0.000000      0.000000      0.000000
     3   Atom        0.000000      0.000000      0.000000
     4   Atom        0.000000      0.000000      0.000000
     5   Atom        0.000000      0.000000      0.000000
     6   Atom        0.000000      0.000000      0.000000
     7   Atom        0.000000      0.000000      0.000000
     8   Atom        0.000000      0.000000      0.000000
     9   Atom        0.000000      0.000000      0.000000
    10   Atom        0.000000      0.000000      0.000000
    11   Atom        0.000000      0.000000      0.000000
    12   Atom        0.000000      0.000000      0.000000
 --------------------------------------------------------


 ---------------------------------------------------------------------------------
              Anisotropic Spin Dipole Couplings in Principal Axis System
 ---------------------------------------------------------------------------------

       Atom             a.u.   MegaHertz   Gauss  10(-4) cm-1        Axes

              Baa     0.0000     0.000     0.000     0.000  1.0000  0.0000  0.0000
     1 C(13)  Bbb     0.0000     0.000     0.000     0.000  0.0000  1.0000  0.0000
              Bcc     0.0000     0.000     0.000     0.000  0.0000  0.0000  1.0000
 
              Baa     0.0000     0.000     0.000     0.000  1.0000  0.0000  0.0000
     2 C(13)  Bbb     0.0000     0.000     0.000     0.000  0.0000  1.0000  0.0000
              Bcc     0.0000     0.000     0.000     0.000  0.0000  0.0000  1.0000
 
              Baa     0.0000     0.000     0.000     0.000  1.0000  0.0000  0.0000
     3 C(13)  Bbb     0.0000     0.000     0.000     0.000  0.0000  1.0000  0.0000
              Bcc     0.0000     0.000     0.000     0.000  0.0000  0.0000  1.0000
 
              Baa     0.0000     0.000     0.000     0.000  1.0000  0.0000  0.0000
     4 C(13)  Bbb     0.0000     0.000     0.000     0.000  0.0000  1.0000  0.0000
              Bcc     0.0000     0.000     0.000     0.000  0.0000  0.0000  1.0000
 
              Baa     0.0000     0.000     0.000     0.000  1.0000  0.0000  0.0000
     5 C(13)  Bbb     0.0000     0.000     0.000     0.000  0.0000  1.0000  0.0000
              Bcc     0.0000     0.000     0.000     0.000  0.0000  0.0000  1.0000
 
              Baa     0.0000     0.000     0.000     0.000  1.0000  0.0000  0.0000
     6 C(13)  Bbb     0.0000     0.000     0.000     0.000  0.0000  1.0000  0.0000
              Bcc     0.0000     0.000     0.000     0.000  0.0000  0.0000  1.0000
 
              Baa     0.0000     0.000     0.000     0.000  1.0000  0.0000  0.0000
     7 H(1)   Bbb     0.0000     0.000     0.000     0.000  0.0000  1.0000  0.0000
              Bcc     0.0000     0.000     0.000     0.000  0.0000  0.0000  1.0000
 
              Baa     0.0000     0.000     0.000     0.000  1.0000  0.0000  0.0000
     8 H(1)   Bbb     0.0000     0.000     0.000     0.000  0.0000  1.0000  0.0000
              Bcc     0.0000     0.000     0.000     0.000  0.0000  0.0000  1.0000
 
              Baa     0.0000     0.000     0.000     0.000  1.0000  0.0000  0.0000
     9 H(1)   Bbb     0.0000     0.000     0.000     0.000  0.0000  1.0000  0.0000
              Bcc     0.0000     0.000     0.000     0.000  0.0000  0.0000  1.0000
 
              Baa     0.0000     0.000     0.000     0.000  1.0000  0.0000  0.0000
    10 H(1)   Bbb     0.0000     0.000     0.000     0.000  0.0000  1.0000  0.0000
              Bcc     0.0000     0.000     0.000     0.000  0.0000  0.0000  1.0000
 
              Baa     0.0000     0.000     0.000     0.000  1.0000  0.0000  0.0000
    11 H(1)   Bbb     0.0000     0.000     0.000     0.000  0.0000  1.0000  0.0000
              Bcc     0.0000     0.000     0.000     0.000  0.0000  0.0000  1.0000
 
              Baa     0.0000     0.000     0.000     0.000  1.0000  0.0000  0.0000
    12 H(1)   Bbb     0.0000     0.000     0.000     0.000  0.0000  1.0000  0.0000
              Bcc     0.0000     0.000     0.000     0.000  0.0000  0.0000  1.0000
 

 ---------------------------------------------------------------------------------

 Calling FoFCou, ICntrl= 10527 FMM=F ISym2X=1 I1Cent= 0 ISCF1= 0.
 ***** Axes restored to original set *****
 -------------------------------------------------------------------
 Center     Atomic                   Forces (Hartrees/Bohr)
 Number     Number              X              Y              Z
 -------------------------------------------------------------------
    1          6          -0.005146347    0.000104011   -0.000942296
    2          6           0.007361341    0.000267992   -0.004117363
    3          6          -0.012202787   -0.000171039    0.000972509
    4          6           0.012202787   -0.000171039   -0.000972509
    5          6          -0.007361341    0.000267992    0.004117363
    6          6           0.005146347    0.000104011    0.000942296
    7          1           0.000028253   -0.000558316    0.000267108
    8          1           0.001071809   -0.000615201   -0.000641781
    9          1           0.001608401    0.000972552    0.001103084
   10          1          -0.001608401    0.000972552   -0.001103084
   11          1          -0.000028253   -0.000558316   -0.000267108
   12          1          -0.001071809   -0.000615201    0.000641781
 -------------------------------------------------------------------
 Cartesian Forces:  Max     0.012202787 RMS     0.003767943

 GradGradGradGradGradGradGradGradGradGradGradGradGradGradGradGradGradGrad
 Berny optimization.
 Internal  Forces:  Max     0.009012796 RMS     0.002718246
 Search for a local minimum.
 Step number   1 out of a maximum of 100
 All quantities printed in internal units (Hartrees-Bohrs-Radians)
 Second derivative matrix not updated -- analytic derivatives used.
     Eigenvalues ---   -0.00019  -0.00001   0.00000   0.00043   0.00043
     Eigenvalues ---    0.04708   0.05351   0.06989   0.06992   0.07095
     Eigenvalues ---    0.07100   0.09693   0.09911   0.11194   0.11242
     Eigenvalues ---    0.13607   0.13681   0.14136   0.14331   0.31431
     Eigenvalues ---    0.31436   0.31836   0.31841   0.32362   0.32377
     Eigenvalues ---    0.36456   0.36645   0.47482   0.92853   0.96739
     Eigenvalues --- 1000.000001000.000001000.000001000.000001000.00000
     Eigenvalues --- 1000.00000
 RFO step:  Lambda=-3.00413152D-03.
 Linear search not attempted -- first point.
 Iteration  1 RMS(Cart)=  0.02465701 RMS(Int)=  0.00858891
 Iteration  2 RMS(Cart)=  0.00384894 RMS(Int)=  0.00059280
 Iteration  3 RMS(Cart)=  0.00075488 RMS(Int)=  0.00005990
 Iteration  4 RMS(Cart)=  0.00000105 RMS(Int)=  0.00005984
 Iteration  5 RMS(Cart)=  0.00000000 RMS(Int)=  0.00005984
 Variable       Old X    -DE/DX   Delta X   Delta X   Delta X     New X
                                 (Linear)    (Quad)   (Total)
    R1        2.75172  -0.00027   0.00000  -0.00251  -0.00251   2.74921
    R2        2.09447  -0.00043   0.00000  -0.00127  -0.00127   2.09321
    R3        2.08947   0.00092   0.00000   0.00393   0.00393   2.09341
    R4        2.09863  -0.00136   0.00000  -0.00518  -0.00518   2.09345
    R5        2.33741  -0.00468   0.00000  -0.00914  -0.00914   2.32827
    R6        2.59203  -0.00399   0.00000  -0.01333  -0.01333   2.57870
    R7        2.33741  -0.00468   0.00000  -0.00914  -0.00914   2.32827
    R8        2.75172  -0.00027   0.00000  -0.00251  -0.00251   2.74921
    R9        2.09863  -0.00136   0.00000  -0.00518  -0.00518   2.09345
   R10        2.09447  -0.00043   0.00000  -0.00127  -0.00127   2.09321
   R11        2.08947   0.00092   0.00000   0.00393   0.00393   2.09341
    A1        1.93504   0.00057   0.00000   0.00415   0.00405   1.93909
    A2        1.95746  -0.00234   0.00000  -0.01788  -0.01788   1.93958
    A3        1.91657   0.00291   0.00000   0.02350   0.02346   1.94003
    A4        1.88705   0.00011   0.00000  -0.00497  -0.00502   1.88204
    A5        1.88104  -0.00085   0.00000  -0.00124  -0.00137   1.87968
    A6        1.88431  -0.00043   0.00000  -0.00358  -0.00353   1.88079
    A7        3.04529   0.00171   0.00000   0.06943   0.06943   3.11472
    A8        2.97889   0.00901   0.00000   0.13046   0.13046   3.10935
    A9        2.97889   0.00901   0.00000   0.13046   0.13046   3.10935
   A10        3.04529   0.00171   0.00000   0.06943   0.06943   3.11472
   A11        1.91657   0.00291   0.00000   0.02350   0.02346   1.94003
   A12        1.93504   0.00057   0.00000   0.00415   0.00405   1.93909
   A13        1.95746  -0.00234   0.00000  -0.01788  -0.01788   1.93958
   A14        1.88104  -0.00085   0.00000  -0.00124  -0.00137   1.87968
   A15        1.88431  -0.00043   0.00000  -0.00358  -0.00353   1.88079
   A16        1.88705   0.00011   0.00000  -0.00497  -0.00502   1.88204
    D1        1.63456  -0.00074   0.00000  -0.00676  -0.00682   1.62774
    D2       -0.47679   0.00033   0.00000   0.00901   0.00892  -0.46787
    D3       -2.57190   0.00041   0.00000   0.00923   0.00937  -2.56252
    D4        3.14159  -0.00003   0.00000   0.00925   0.00925  -3.13235
    D5        3.14159  -0.00004   0.00000   0.00110   0.00110  -3.14049
    D6        3.14159  -0.00003   0.00000   0.00925   0.00925  -3.13235
    D7       -2.57190   0.00041   0.00000   0.00923   0.00937  -2.56252
    D8        1.63456  -0.00074   0.00000  -0.00676  -0.00682   1.62774
    D9       -0.47679   0.00033   0.00000   0.00901   0.00892  -0.46787
         Item               Value     Threshold  Converged?
 Maximum Force            0.009013     0.000450     NO 
 RMS     Force            0.002718     0.000300     NO 
 Maximum Displacement     0.097881     0.001800     NO 
 RMS     Displacement     0.027122     0.001200     NO 
 Predicted change in Energy=-1.572028D-03
 GradGradGradGradGradGradGradGradGradGradGradGradGradGradGradGradGradGrad

                          Input orientation:                          
 ---------------------------------------------------------------------
 Center     Atomic     Atomic              Coordinates (Angstroms)
 Number     Number      Type              X           Y           Z
 ---------------------------------------------------------------------
    1          6             0       -0.002083    0.000012    3.368856
    2          6             0       -0.013897   -0.000345    1.914084
    3          6             0        0.009204   -0.000323    0.682232
    4          6             0       -0.009204   -0.000323   -0.682232
    5          6             0        0.013897   -0.000345   -1.914084
    6          6             0        0.002083    0.000012   -3.368856
    7          1             0       -0.067762    1.031210    3.767939
    8          1             0        0.927906   -0.456836    3.760767
    9          1             0       -0.857942   -0.573717    3.775767
   10          1             0        0.857942   -0.573717   -3.775767
   11          1             0        0.067762    1.031210   -3.767939
   12          1             0       -0.927906   -0.456836   -3.760767
 ---------------------------------------------------------------------
                    Distance matrix (angstroms):
                    1          2          3          4          5
     1  C    0.000000
     2  C    1.454820   0.000000
     3  C    2.686647   1.232068   0.000000
     4  C    4.051095   2.596321   1.364589   0.000000
     5  C    5.282964   3.828269   2.596321   1.232068   0.000000
     6  C    6.737713   5.282964   4.051095   2.686647   1.454820
     7  H    1.107678   2.122212   3.254469   4.568535   5.775479
     8  H    1.107784   2.122643   3.244964   4.563641   5.766084
     9  H    1.107807   2.122977   3.263538   4.574156   5.784745
    10  H    7.219034   5.784745   4.574156   3.263538   2.122977
    11  H    7.211247   5.775479   4.568535   3.254469   2.122212
    12  H    7.203984   5.766084   4.563641   3.244964   2.122643
                    6          7          8          9         10
     6  C    0.000000
     7  H    7.211247   0.000000
     8  H    7.203984   1.790444   0.000000
     9  H    7.219034   1.788921   1.789732   0.000000
    10  H    1.107807   7.767897   7.537765   7.744026   0.000000
    11  H    1.107678   7.537096   7.722405   7.767897   1.788921
    12  H    1.107784   7.722405   7.747097   7.537765   1.789732
                   11         12
    11  H    0.000000
    12  H    1.790444   0.000000
 Stoichiometry    C6H6
 Framework group  C2[X(C6H6)]
 Deg. of freedom    16
 Prev. full point group           C2      NOp   2
 Prev. largest Abelian subgroup   C2      NOp   2
       concise Abelian subgroup   C2      NOp   2
                   Standard orientation:
 ---------------------------------------------------------------------
 Center     Atomic                         Coordinates (Angstroms)
 Number     Number                        X           Y           Z
 ---------------------------------------------------------------------
    1          6                      0.006338    3.368851    0.000168
    2          6                      0.016315    1.914065   -0.000189
    3          6                     -0.008342    0.682243   -0.000167
    4          6                      0.008342   -0.682243   -0.000167
    5          6                     -0.016315   -1.914065   -0.000189
    6          6                     -0.006338   -3.368851    0.000168
    7          1                      0.072521    3.767850    1.031366
    8          1                     -0.923155    3.761936   -0.456680
    9          1                      0.862711    3.774681   -0.573561
   10          1                     -0.862711   -3.774681   -0.573561
   11          1                     -0.072521   -3.767850    1.031366
   12          1                      0.923155   -3.761936   -0.456680
 ---------------------------------------------------------------------
 Rotational constants (GHZ):     78.2108941      1.0972906      1.0972748
 Standard basis: Aug-CC-pVDZ (5D, 7F)
 There are    96 symmetry adapted basis functions of A   symmetry.
 There are    96 symmetry adapted basis functions of B   symmetry.
 Integral buffers will be    262144 words long.
 Raffenetti 2 integral format.
 Two-electron integral symmetry is turned on.
   192 basis functions,   324 primitive gaussians,   204 cartesian basis functions
    21 alpha electrons       21 beta electrons
       nuclear repulsion energy       168.8819175349 Hartrees.
 NAtoms=   12 NActive=   12 NUniq=    6 SFac= 4.00D+00 NAtFMM=   60 Big=F
 One-electron integrals computed using PRISM.
 NBasis=   192 RedAO= T  NBF=    96    96
 NBsUse=   192 1.00D-06 NBFU=    96    96
 Initial guess read from the read-write file:
 Initial guess orbital symmetries:
 Alpha Orbitals:
       Occupied  (B) (A) (A) (B) (A) (B) (A) (B) (A) (B) (A) (B)
                 (A) (A) (B) (B) (A) (B) (A) (A) (B)
       Virtual   (B) (A) (A) (B) (B) (A) (A) (B) (A) (B) (B) (A)
                 (B) (B) (A) (A) (A) (B) (A) (B) (A) (B) (A) (B)
                 (A) (B) (A) (B) (A) (B) (B) (A) (B) (B) (A) (A)
                 (A) (B) (B) (A) (B) (A) (A) (B) (A) (B) (A) (B)
                 (B) (A) (B) (A) (B) (A) (B) (A) (B) (A) (B) (A)
                 (A) (B) (A) (B) (B) (A) (A) (B) (B) (B) (A) (A)
                 (B) (A) (A) (B) (A) (B) (A) (A) (B) (A) (B) (B)
                 (A) (B) (B) (A) (B) (B) (A) (A) (A) (B) (A) (A)
                 (B) (B) (B) (A) (A) (B) (B) (A) (A) (B) (B) (A)
                 (B) (B) (A) (B) (A) (B) (A) (B) (A) (A) (B) (A)
                 (A) (B) (A) (A) (B) (B) (B) (A) (A) (B) (A) (B)
                 (B) (A) (B) (A) (B) (A) (B) (A) (B) (A) (B) (A)
                 (A) (B) (B) (A) (A) (B) (A) (B) (B) (A) (B) (A)
                 (B) (A) (B) (A) (B) (A) (B) (A) (B) (A) (B) (B)
                 (A) (A) (B)
 Beta  Orbitals:
       Occupied  (B) (A) (A) (B) (A) (B) (A) (B) (A) (B) (A) (B)
                 (A) (A) (B) (B) (A) (B) (A) (A) (B)
       Virtual   (B) (A) (A) (B) (B) (A) (A) (B) (A) (B) (B) (A)
                 (B) (B) (A) (A) (A) (B) (A) (B) (A) (B) (A) (B)
                 (A) (B) (A) (B) (A) (B) (B) (A) (B) (B) (A) (A)
                 (A) (B) (B) (A) (B) (A) (A) (B) (A) (B) (A) (B)
                 (B) (A) (B) (A) (B) (A) (B) (A) (B) (A) (B) (A)
                 (A) (B) (A) (B) (B) (A) (A) (B) (B) (B) (A) (A)
                 (B) (A) (A) (B) (A) (B) (A) (A) (B) (A) (B) (B)
                 (A) (B) (B) (A) (B) (B) (A) (A) (A) (B) (A) (A)
                 (B) (B) (B) (A) (A) (B) (B) (A) (A) (B) (B) (A)
                 (B) (B) (A) (B) (A) (B) (A) (B) (A) (A) (B) (A)
                 (A) (B) (A) (A) (B) (B) (B) (A) (A) (B) (A) (B)
                 (B) (A) (B) (A) (B) (A) (B) (A) (B) (A) (B) (A)
                 (A) (B) (B) (A) (A) (B) (A) (B) (B) (A) (B) (A)
                 (B) (A) (B) (A) (B) (A) (B) (A) (B) (A) (B) (B)
                 (A) (A) (B)
 <S**2> of initial guess= 0.0000
 Harris functional with IExCor= 1009 diagonalized for initial guess.
 ExpMin= 2.97D-02 ExpMax= 6.67D+03 ExpMxC= 2.28D+02 IAcc=3 IRadAn=         5 AccDes= 0.00D+00
 HarFok:  IExCor=1009 AccDes= 0.00D+00 IRadAn=         5 IDoV=1
 ScaDFX=  1.000000  1.000000  1.000000  1.000000
 Requested convergence on RMS density matrix=1.00D-08 within 128 cycles.
 Requested convergence on MAX density matrix=1.00D-06.
 Requested convergence on             energy=1.00D-06.
 No special actions if energy rises.
 Restarting incremental Fock formation.
 SCF Done:  E(UPBE-PBE) =  -231.845793158     A.U. after   25 cycles
             Convg  =    0.5929D-08             -V/T =  2.0067
             S**2   =   0.0000
 Annihilation of the first spin contaminant:
 S**2 before annihilation     0.0000,   after     0.0000
 Range of M.O.s used for correlation:     1   192
 NBasis=   192 NAE=    21 NBE=    21 NFC=     0 NFV=     0
 NROrb=    192 NOA=    21 NOB=    21 NVA=   171 NVB=   171

 **** Warning!!: The largest alpha MO coefficient is  0.12830578D+03


 **** Warning!!: The largest beta MO coefficient is  0.12830578D+03

 Symmetrizing basis deriv contribution to polar:
 IMax=3 JMax=2 DiffMx= 0.00D+00
 G2DrvN: will do   13 centers at a time, making    1 passes doing MaxLOS=2.
 Calling FoFCou, ICntrl=  3507 FMM=F I1Cent=   0.
 FoFDir/FoFCou used for L=0 through L=2.
          Differentiating once with respect to electric field.
                with respect to dipole field.
          Differentiating once with respect to nuclear coordinates.
 FoFCou: FMM=F IPFlag=           0 FMFlag=           0 FMFlg1=           0
 NFxFlg=           0 DoJE=F BraDBF=F KetDBF=F FulRan=T.
 Integrals replicated using symmetry in FoFCou.
          There are  21 degrees of freedom in the 1st order CPHF.
    21 vectors were produced by pass  0.
 AX will form  21 AO Fock derivatives at one time.
    21 vectors were produced by pass  1.
    21 vectors were produced by pass  2.
    21 vectors were produced by pass  3.
    21 vectors were produced by pass  4.
    14 vectors were produced by pass  5.
     8 vectors were produced by pass  6.
     2 vectors were produced by pass  7.
     2 vectors were produced by pass  8.
     1 vectors were produced by pass  9.
 Inv2:  IOpt= 1 Iter= 1 AM= 1.27D-15 Conv= 1.00D-12.
 Inverted reduced A of dimension  132 with in-core refinement.
 Isotropic polarizability for W=    0.000000       90.01 Bohr**3.
 End of Minotr Frequency-dependent properties file   721 does not exist.
 Calling FoFCou, ICntrl= 10527 FMM=F ISym2X=1 I1Cent= 0 ISCF1= 0.
 ***** Axes restored to original set *****
 -------------------------------------------------------------------
 Center     Atomic                   Forces (Hartrees/Bohr)
 Number     Number              X              Y              Z
 -------------------------------------------------------------------
    1          6           0.000078440   -0.000032112    0.000182429
    2          6          -0.001521360    0.000071508    0.002082245
    3          6           0.003454853   -0.000059528   -0.000606772
    4          6          -0.003454853   -0.000059528    0.000606772
    5          6           0.001521360    0.000071508   -0.002082245
    6          6          -0.000078440   -0.000032112   -0.000182429
    7          1           0.000030586    0.000022984    0.000068856
    8          1           0.000002215    0.000010796   -0.000000663
    9          1           0.000022523   -0.000013649    0.000058616
   10          1          -0.000022523   -0.000013649   -0.000058616
   11          1          -0.000030586    0.000022984   -0.000068856
   12          1          -0.000002215    0.000010796    0.000000663
 -------------------------------------------------------------------
 Cartesian Forces:  Max     0.003454853 RMS     0.001027782

 GradGradGradGradGradGradGradGradGradGradGradGradGradGradGradGradGradGrad
 Berny optimization.
 Internal  Forces:  Max     0.002630994 RMS     0.000906103
 Search for a local minimum.
 Step number   2 out of a maximum of 100
 All quantities printed in internal units (Hartrees-Bohrs-Radians)
 Second derivative matrix not updated -- analytic derivatives used.
 Trust test= 8.05D-01 RLast= 2.16D-01 DXMaxT set to 4.24D-01
     Eigenvalues ---    0.00000   0.00001   0.00005   0.00005   0.00030
     Eigenvalues ---    0.03635   0.04184   0.07021   0.07030   0.07083
     Eigenvalues ---    0.07089   0.08488   0.09673   0.11174   0.11221
     Eigenvalues ---    0.13619   0.13678   0.14060   0.14260   0.31906
     Eigenvalues ---    0.31907   0.31918   0.31922   0.32040   0.32065
     Eigenvalues ---    0.36664   0.36857   0.49410   0.95425   0.99604
     Eigenvalues --- 1000.000001000.000001000.000001000.000001000.00000
     Eigenvalues --- 1000.00000
 RFO step:  Lambda=-2.43138414D-05.
 Quintic linear search produced a step of -0.20144.
 Iteration  1 RMS(Cart)=  0.04940946 RMS(Int)=  0.01674915
 Iteration  2 RMS(Cart)=  0.00223303 RMS(Int)=  0.00001750
 Iteration  3 RMS(Cart)=  0.00000757 RMS(Int)=  0.00001192
 Iteration  4 RMS(Cart)=  0.00000000 RMS(Int)=  0.00001192
 Variable       Old X    -DE/DX   Delta X   Delta X   Delta X     New X
                                 (Linear)    (Quad)   (Total)
    R1        2.74921   0.00031   0.00051   0.00021   0.00072   2.74993
    R2        2.09321   0.00004   0.00025  -0.00015   0.00011   2.09332
    R3        2.09341   0.00000  -0.00079   0.00094   0.00015   2.09355
    R4        2.09345   0.00001   0.00104  -0.00105  -0.00001   2.09344
    R5        2.32827   0.00242   0.00184   0.00095   0.00279   2.33106
    R6        2.57870   0.00181   0.00268   0.00104   0.00372   2.58242
    R7        2.32827   0.00242   0.00184   0.00095   0.00279   2.33106
    R8        2.74921   0.00031   0.00051   0.00021   0.00072   2.74993
    R9        2.09345   0.00001   0.00104  -0.00105  -0.00001   2.09344
   R10        2.09321   0.00004   0.00025  -0.00015   0.00011   2.09332
   R11        2.09341   0.00000  -0.00079   0.00094   0.00015   2.09355
    A1        1.93909   0.00008  -0.00082   0.00161   0.00081   1.93990
    A2        1.93958  -0.00005   0.00360  -0.00453  -0.00093   1.93865
    A3        1.94003   0.00009  -0.00473   0.00545   0.00074   1.94076
    A4        1.88204  -0.00005   0.00101  -0.00136  -0.00034   1.88170
    A5        1.87968  -0.00003   0.00028  -0.00035  -0.00005   1.87963
    A6        1.88079  -0.00004   0.00071  -0.00096  -0.00027   1.88052
    A7        3.11472  -0.00050  -0.01399  -0.00294  -0.01692   3.09780
    A8        3.10935  -0.00263  -0.02628  -0.00233  -0.02860   3.08075
    A9        3.10935  -0.00263  -0.02628  -0.00233  -0.02860   3.08075
   A10        3.11472  -0.00050  -0.01399  -0.00294  -0.01692   3.09780
   A11        1.94003   0.00009  -0.00473   0.00545   0.00074   1.94076
   A12        1.93909   0.00008  -0.00082   0.00161   0.00081   1.93990
   A13        1.93958  -0.00005   0.00360  -0.00453  -0.00093   1.93865
   A14        1.87968  -0.00003   0.00028  -0.00035  -0.00005   1.87963
   A15        1.88079  -0.00004   0.00071  -0.00096  -0.00027   1.88052
   A16        1.88204  -0.00005   0.00101  -0.00136  -0.00034   1.88170
    D1        1.62774  -0.00004   0.00137   0.13611   0.13749   1.76523
    D2       -0.46787   0.00001  -0.00180   0.13978   0.13800  -0.32987
    D3       -2.56252   0.00004  -0.00189   0.14038   0.13847  -2.42405
    D4       -3.13235   0.00000  -0.00186  -0.00201  -0.00388  -3.13622
    D5       -3.14049   0.00000  -0.00022  -0.14515  -0.14537   2.99733
    D6       -3.13235   0.00000  -0.00186  -0.00201  -0.00388  -3.13622
    D7       -2.56252   0.00004  -0.00189   0.14038   0.13847  -2.42405
    D8        1.62774  -0.00004   0.00137   0.13611   0.13749   1.76523
    D9       -0.46787   0.00001  -0.00180   0.13978   0.13800  -0.32987
         Item               Value     Threshold  Converged?
 Maximum Force            0.002631     0.000450     NO 
 RMS     Force            0.000906     0.000300     NO 
 Maximum Displacement     0.118739     0.001800     NO 
 RMS     Displacement     0.049468     0.001200     NO 
 Predicted change in Energy=-1.194842D-04
 GradGradGradGradGradGradGradGradGradGradGradGradGradGradGradGradGradGrad

                          Input orientation:                          
 ---------------------------------------------------------------------
 Center     Atomic     Atomic              Coordinates (Angstroms)
 Number     Number      Type              X           Y           Z
 ---------------------------------------------------------------------
    1          6             0       -0.003620    0.001374    3.370997
    2          6             0       -0.020310   -0.000756    1.915895
    3          6             0        0.019441   -0.006162    0.683002
    4          6             0       -0.019441   -0.006162   -0.683002
    5          6             0        0.020310   -0.000756   -1.915895
    6          6             0        0.003620    0.001374   -3.370997
    7          1             0       -0.130596    1.026678    3.770627
    8          1             0        0.954391   -0.397386    3.759018
    9          1             0       -0.820706   -0.623747    3.781876
   10          1             0        0.820706   -0.623747   -3.781876
   11          1             0        0.130596    1.026678   -3.770627
   12          1             0       -0.954391   -0.397386   -3.759018
 ---------------------------------------------------------------------
                    Distance matrix (angstroms):
                    1          2          3          4          5
     1  C    0.000000
     2  C    1.455199   0.000000
     3  C    2.688104   1.233545   0.000000
     4  C    4.054037   2.598903   1.366558   0.000000
     5  C    5.286946   3.832005   2.598903   1.233545   0.000000
     6  C    6.741997   5.286946   4.054037   2.688104   1.455199
     7  H    1.107735   2.123161   3.259248   4.573175   5.780565
     8  H    1.107861   2.122372   3.238682   4.564313   5.764934
     9  H    1.107803   2.123826   3.269599   4.578054   5.793101
    10  H    7.227300   5.793101   4.578054   3.269599   2.123826
    11  H    7.216097   5.780565   4.573175   3.259248   2.123161
    12  H    7.204172   5.764934   4.564313   3.238682   2.122372
                    6          7          8          9         10
     6  C    0.000000
     7  H    7.216097   0.000000
     8  H    7.204172   1.790332   0.000000
     9  H    7.227300   1.788933   1.789618   0.000000
    10  H    1.107803   7.789042   7.545475   7.739804   0.000000
    11  H    1.107735   7.545777   7.707280   7.789042   1.788933
    12  H    1.107861   7.707280   7.756567   7.545475   1.789618
                   11         12
    11  H    0.000000
    12  H    1.790332   0.000000
 Stoichiometry    C6H6
 Framework group  C2[X(C6H6)]
 Deg. of freedom    16
 Prev. full point group           C2      NOp   2
 Prev. largest Abelian subgroup   C2      NOp   2
       concise Abelian subgroup   C2      NOp   2
                   Standard orientation:
 ---------------------------------------------------------------------
 Center     Atomic                         Coordinates (Angstroms)
 Number     Number                        X           Y           Z
 ---------------------------------------------------------------------
    1          6                      0.009546    3.370985    0.002693
    2          6                      0.023678    1.915856    0.000564
    3          6                     -0.018240    0.683035   -0.004842
    4          6                      0.018240   -0.683035   -0.004842
    5          6                     -0.023678   -1.915856    0.000564
    6          6                     -0.009546   -3.370985    0.002693
    7          1                      0.137225    3.770392    1.027998
    8          1                     -0.947781    3.760690   -0.396067
    9          1                      0.827354    3.780427   -0.622428
   10          1                     -0.827354   -3.780427   -0.622428
   11          1                     -0.137225   -3.770392    1.027998
   12          1                      0.947781   -3.760690   -0.396067
 ---------------------------------------------------------------------
 Rotational constants (GHZ):     78.0708085      1.0957523      1.0957107
 Standard basis: Aug-CC-pVDZ (5D, 7F)
 There are    96 symmetry adapted basis functions of A   symmetry.
 There are    96 symmetry adapted basis functions of B   symmetry.
 Integral buffers will be    262144 words long.
 Raffenetti 2 integral format.
 Two-electron integral symmetry is turned on.
   192 basis functions,   324 primitive gaussians,   204 cartesian basis functions
    21 alpha electrons       21 beta electrons
       nuclear repulsion energy       168.7642445749 Hartrees.
 NAtoms=   12 NActive=   12 NUniq=    6 SFac= 4.00D+00 NAtFMM=   60 Big=F
 One-electron integrals computed using PRISM.
 NBasis=   192 RedAO= T  NBF=    96    96
 NBsUse=   192 1.00D-06 NBFU=    96    96
 Initial guess read from the read-write file:
 Initial guess orbital symmetries:
 Alpha Orbitals:
       Occupied  (B) (A) (A) (B) (A) (B) (A) (B) (A) (B) (A) (B)
                 (A) (A) (B) (B) (A) (A) (B) (A) (B)
       Virtual   (B) (A) (A) (B) (B) (A) (A) (B) (A) (B) (B) (B)
                 (A) (A) (A) (B) (B) (A) (A) (B) (A) (B) (A) (B)
                 (A) (B) (A) (B) (A) (B) (B) (A) (B) (A) (A) (B)
                 (A) (B) (B) (A) (B) (A) (A) (B) (B) (A) (A) (B)
                 (B) (A) (B) (A) (B) (A) (B) (A) (B) (A) (A) (B)
                 (A) (B) (A) (B) (B) (A) (B) (A) (B) (A) (B) (A)
                 (A) (B) (A) (B) (A) (B) (A) (A) (B) (B) (A) (B)
                 (A) (B) (B) (B) (A) (B) (A) (A) (B) (A) (A) (A)
                 (B) (B) (A) (B) (B) (A) (B) (A) (A) (B) (A) (B)
                 (B) (B) (A) (A) (B) (A) (B) (B) (A) (A) (B) (A)
                 (B) (A) (A) (A) (B) (B) (B) (A) (A) (B) (A) (B)
                 (A) (B) (B) (A) (A) (B) (B) (A) (B) (A) (B) (A)
                 (B) (A) (B) (A) (A) (B) (A) (B) (B) (A) (B) (A)
                 (B) (A) (B) (A) (B) (A) (B) (A) (B) (A) (B) (B)
                 (A) (A) (B)
 Beta  Orbitals:
       Occupied  (B) (A) (A) (B) (A) (B) (A) (B) (A) (B) (A) (B)
                 (A) (A) (B) (B) (A) (A) (B) (A) (B)
       Virtual   (B) (A) (A) (B) (B) (A) (A) (B) (A) (B) (B) (B)
                 (A) (A) (A) (B) (B) (A) (A) (B) (A) (B) (A) (B)
                 (A) (B) (A) (B) (A) (B) (B) (A) (B) (A) (A) (B)
                 (A) (B) (B) (A) (B) (A) (A) (B) (B) (A) (A) (B)
                 (B) (A) (B) (A) (B) (A) (B) (A) (B) (A) (A) (B)
                 (A) (B) (A) (B) (B) (A) (B) (A) (B) (A) (B) (A)
                 (A) (B) (A) (B) (A) (B) (A) (A) (B) (B) (A) (B)
                 (A) (B) (B) (B) (A) (B) (A) (A) (B) (A) (A) (A)
                 (B) (B) (A) (B) (B) (A) (B) (A) (A) (B) (A) (B)
                 (B) (B) (A) (A) (B) (A) (B) (B) (A) (A) (B) (A)
                 (B) (A) (A) (A) (B) (B) (B) (A) (A) (B) (A) (B)
                 (A) (B) (B) (A) (A) (B) (B) (A) (B) (A) (B) (A)
                 (B) (A) (B) (A) (A) (B) (A) (B) (B) (A) (B) (A)
                 (B) (A) (B) (A) (B) (A) (B) (A) (B) (A) (B) (B)
                 (A) (A) (B)
 <S**2> of initial guess= 0.0000
 Harris functional with IExCor= 1009 diagonalized for initial guess.
 ExpMin= 2.97D-02 ExpMax= 6.67D+03 ExpMxC= 2.28D+02 IAcc=3 IRadAn=         5 AccDes= 0.00D+00
 HarFok:  IExCor=1009 AccDes= 0.00D+00 IRadAn=         5 IDoV=1
 ScaDFX=  1.000000  1.000000  1.000000  1.000000
 Requested convergence on RMS density matrix=1.00D-08 within 128 cycles.
 Requested convergence on MAX density matrix=1.00D-06.
 Requested convergence on             energy=1.00D-06.
 No special actions if energy rises.
 SCF Done:  E(UPBE-PBE) =  -231.845882926     A.U. after   12 cycles
             Convg  =    0.4530D-08             -V/T =  2.0068
             S**2   =   0.0000
 Annihilation of the first spin contaminant:
 S**2 before annihilation     0.0000,   after     0.0000
 Range of M.O.s used for correlation:     1   192
 NBasis=   192 NAE=    21 NBE=    21 NFC=     0 NFV=     0
 NROrb=    192 NOA=    21 NOB=    21 NVA=   171 NVB=   171

 **** Warning!!: The largest alpha MO coefficient is  0.12956918D+03


 **** Warning!!: The largest beta MO coefficient is  0.12956918D+03

 Symmetrizing basis deriv contribution to polar:
 IMax=3 JMax=2 DiffMx= 0.00D+00
 G2DrvN: will do   13 centers at a time, making    1 passes doing MaxLOS=2.
 Calling FoFCou, ICntrl=  3507 FMM=F I1Cent=   0.
 FoFDir/FoFCou used for L=0 through L=2.
          Differentiating once with respect to electric field.
                with respect to dipole field.
          Differentiating once with respect to nuclear coordinates.
 FoFCou: FMM=F IPFlag=           0 FMFlag=           0 FMFlg1=           0
 NFxFlg=           0 DoJE=F BraDBF=F KetDBF=F FulRan=T.
 Integrals replicated using symmetry in FoFCou.
          There are  21 degrees of freedom in the 1st order CPHF.
    21 vectors were produced by pass  0.
 AX will form  21 AO Fock derivatives at one time.
    21 vectors were produced by pass  1.
    21 vectors were produced by pass  2.
    21 vectors were produced by pass  3.
    21 vectors were produced by pass  4.
    15 vectors were produced by pass  5.
     7 vectors were produced by pass  6.
     3 vectors were produced by pass  7.
     3 vectors were produced by pass  8.
     2 vectors were produced by pass  9.
     1 vectors were produced by pass 10.
 Inv2:  IOpt= 1 Iter= 1 AM= 1.42D-15 Conv= 1.00D-12.
 Inverted reduced A of dimension  136 with in-core refinement.
 Isotropic polarizability for W=    0.000000       90.19 Bohr**3.
 End of Minotr Frequency-dependent properties file   721 does not exist.
 Calling FoFCou, ICntrl= 10527 FMM=F ISym2X=1 I1Cent= 0 ISCF1= 0.
 ***** Axes restored to original set *****
 -------------------------------------------------------------------
 Center     Atomic                   Forces (Hartrees/Bohr)
 Number     Number              X              Y              Z
 -------------------------------------------------------------------
    1          6           0.000019839   -0.000062608   -0.000064330
    2          6           0.000183560    0.000100486   -0.000381072
    3          6          -0.000474357   -0.000034455    0.000109483
    4          6           0.000474357   -0.000034455   -0.000109483
    5          6          -0.000183560    0.000100486    0.000381072
    6          6          -0.000019839   -0.000062608    0.000064330
    7          1          -0.000010156   -0.000005564   -0.000008529
    8          1          -0.000000512   -0.000000838    0.000010887
    9          1          -0.000003730    0.000002979   -0.000012117
   10          1           0.000003730    0.000002979    0.000012117
   11          1           0.000010156   -0.000005564    0.000008529
   12          1           0.000000512   -0.000000838   -0.000010887
 -------------------------------------------------------------------
 Cartesian Forces:  Max     0.000474357 RMS     0.000155661

 GradGradGradGradGradGradGradGradGradGradGradGradGradGradGradGradGradGrad
 Berny optimization.
 Internal  Forces:  Max     0.000460785 RMS     0.000151997
 Search for a local minimum.
 Step number   3 out of a maximum of 100
 All quantities printed in internal units (Hartrees-Bohrs-Radians)
 Second derivative matrix not updated -- analytic derivatives used.
 Trust test= 7.51D-01 RLast= 3.71D-01 DXMaxT set to 6.00D-01
     Eigenvalues ---   -0.00002   0.00001   0.00004   0.00008   0.00010
     Eigenvalues ---    0.05002   0.06354   0.07030   0.07041   0.07092
     Eigenvalues ---    0.07097   0.09225   0.11168   0.11211   0.12329
     Eigenvalues ---    0.13644   0.13689   0.14045   0.14654   0.31906
     Eigenvalues ---    0.31909   0.31920   0.31924   0.32039   0.32065
     Eigenvalues ---    0.36597   0.36785   0.48807   0.94530   0.98715
     Eigenvalues --- 1000.000001000.000001000.000001000.000001000.00000
     Eigenvalues --- 1000.00000
 RFO step:  Lambda=-2.79820721D-05.
 Quintic linear search produced a step of -0.10319.
 Maximum step size (   0.600) exceeded in Quadratic search.
    -- Step size scaled by   0.291
 Iteration  1 RMS(Cart)=  0.23107059 RMS(Int)=  0.04448261
 Iteration  2 RMS(Cart)=  0.11189192 RMS(Int)=  0.00705812
 Iteration  3 RMS(Cart)=  0.00794497 RMS(Int)=  0.00002173
 Iteration  4 RMS(Cart)=  0.00003704 RMS(Int)=  0.00000002
 Iteration  5 RMS(Cart)=  0.00000000 RMS(Int)=  0.00000002
 Variable       Old X    -DE/DX   Delta X   Delta X   Delta X     New X
                                 (Linear)    (Quad)   (Total)
    R1        2.74993  -0.00007  -0.00007  -0.00006  -0.00013   2.74980
    R2        2.09332  -0.00001  -0.00001   0.00020   0.00019   2.09350
    R3        2.09355   0.00000  -0.00002   0.00006   0.00005   2.09360
    R4        2.09344   0.00000   0.00000  -0.00010  -0.00009   2.09335
    R5        2.33106  -0.00046  -0.00029   0.00000  -0.00029   2.33077
    R6        2.58242  -0.00035  -0.00038   0.00000  -0.00038   2.58204
    R7        2.33106  -0.00046  -0.00029   0.00000  -0.00029   2.33077
    R8        2.74993  -0.00007  -0.00007  -0.00006  -0.00013   2.74980
    R9        2.09344   0.00000   0.00000  -0.00010  -0.00009   2.09335
   R10        2.09332  -0.00001  -0.00001   0.00020   0.00019   2.09350
   R11        2.09355   0.00000  -0.00002   0.00006   0.00005   2.09360
    A1        1.93990  -0.00001  -0.00008   0.00048   0.00040   1.94030
    A2        1.93865   0.00003   0.00010   0.00011   0.00021   1.93886
    A3        1.94076  -0.00002  -0.00008  -0.00008  -0.00015   1.94061
    A4        1.88170   0.00001   0.00003  -0.00061  -0.00058   1.88112
    A5        1.87963   0.00000   0.00000  -0.00002  -0.00002   1.87961
    A6        1.88052   0.00000   0.00003   0.00008   0.00011   1.88063
    A7        3.09780   0.00003   0.00175  -0.00071   0.00104   3.09883
    A8        3.08075   0.00036   0.00295   0.00014   0.00309   3.08384
    A9        3.08075   0.00036   0.00295   0.00014   0.00309   3.08384
   A10        3.09780   0.00003   0.00175  -0.00071   0.00104   3.09883
   A11        1.94076  -0.00002  -0.00008  -0.00008  -0.00015   1.94061
   A12        1.93990  -0.00001  -0.00008   0.00048   0.00040   1.94030
   A13        1.93865   0.00003   0.00010   0.00011   0.00021   1.93886
   A14        1.87963   0.00000   0.00000  -0.00002  -0.00002   1.87961
   A15        1.88052   0.00000   0.00003   0.00008   0.00011   1.88063
   A16        1.88170   0.00001   0.00003  -0.00061  -0.00058   1.88112
    D1        1.76523   0.00002  -0.01419   0.22327   0.20909   1.97432
    D2       -0.32987   0.00000  -0.01424   0.22365   0.20941  -0.12046
    D3       -2.42405  -0.00001  -0.01429   0.22352   0.20923  -2.21482
    D4       -3.13622   0.00000   0.00040   0.08811   0.08851  -3.04772
    D5        2.99733   0.00001   0.01500   0.21168   0.22669  -3.05917
    D6       -3.13622   0.00000   0.00040   0.08811   0.08851  -3.04772
    D7       -2.42405  -0.00001  -0.01429   0.22352   0.20923  -2.21482
    D8        1.76523   0.00002  -0.01419   0.22327   0.20909   1.97432
    D9       -0.32987   0.00000  -0.01424   0.22365   0.20941  -0.12046
         Item               Value     Threshold  Converged?
 Maximum Force            0.000461     0.000450     NO 
 RMS     Force            0.000152     0.000300     YES
 Maximum Displacement     0.782801     0.001800     NO 
 RMS     Displacement     0.325319     0.001200     NO 
 Predicted change in Energy=-1.081975D-05
 GradGradGradGradGradGradGradGradGradGradGradGradGradGradGradGradGradGrad

                          Input orientation:                          
 ---------------------------------------------------------------------
 Center     Atomic     Atomic              Coordinates (Angstroms)
 Number     Number      Type              X           Y           Z
 ---------------------------------------------------------------------
    1          6             0       -0.003770    0.000480    3.370756
    2          6             0       -0.020171   -0.004435    1.915727
    3          6             0        0.018178   -0.001502    0.682935
    4          6             0       -0.018178   -0.001502   -0.682935
    5          6             0        0.020171   -0.004435   -1.915727
    6          6             0        0.003770    0.000480   -3.370756
    7          1             0       -0.529084    0.888680    3.773799
    8          1             0        1.034235    0.016854    3.757653
    9          1             0       -0.502538   -0.900076    3.779837
   10          1             0        0.502538   -0.900076   -3.779837
   11          1             0        0.529084    0.888680   -3.773799
   12          1             0       -1.034235    0.016854   -3.757653
 ---------------------------------------------------------------------
                    Distance matrix (angstroms):
                    1          2          3          4          5
     1  C    0.000000
     2  C    1.455130   0.000000
     3  C    2.687911   1.233391   0.000000
     4  C    4.053717   2.598664   1.366354   0.000000
     5  C    5.286539   3.831665   2.598664   1.233391   0.000000
     6  C    6.741516   5.286539   4.053717   2.687911   1.455130
     7  H    1.107835   2.123460   3.262723   4.573394   5.785330
     8  H    1.107887   2.122480   3.238302   4.563632   5.763334
     9  H    1.107753   2.123619   3.266401   4.578031   5.789200
    10  H    7.224840   5.789200   4.578031   3.266401   2.123619
    11  H    7.219245   5.785330   4.573394   3.262723   2.123460
    12  H    7.202523   5.763334   4.563632   3.238302   2.122480
[...]
 -------------------------------------------------------------------
 Center     Atomic                   Forces (Hartrees/Bohr)
 Number     Number              X              Y              Z
 -------------------------------------------------------------------
    1          6          -0.000000373    0.000000285   -0.000007528
    2          6          -0.000000645   -0.000000554    0.000013297
    3          6          -0.000000214    0.000000688   -0.000005889
    4          6           0.000000229   -0.000000688   -0.000005889
    5          6           0.000000610    0.000000554    0.000013298
    6          6           0.000000392   -0.000000285   -0.000007527
    7          1          -0.000001009   -0.000000083   -0.000000279
    8          1          -0.000000756   -0.000000310    0.000000395
    9          1          -0.000001006    0.000000284   -0.000000002
   10          1           0.000001006   -0.000000284    0.000000001
   11          1           0.000001010    0.000000083   -0.000000276
   12          1           0.000000755    0.000000310    0.000000397
 -------------------------------------------------------------------
 Cartesian Forces:  Max     0.000013298 RMS     0.000003892

 GradGradGradGradGradGradGradGradGradGradGradGradGradGradGradGradGradGrad
 Berny optimization.
 Internal  Forces:  Max     0.000000576 RMS     0.000000260
 Search for a local minimum.
 Step number   1 out of a maximum of   2
 All quantities printed in internal units (Hartrees-Bohrs-Radians)
 Second derivative matrix not updated -- analytic derivatives used.
     Eigenvalues ---    0.00001   0.00002   0.00006   0.00009   0.00021
     Eigenvalues ---    0.04909   0.06470   0.07029   0.07038   0.07085
     Eigenvalues ---    0.07111   0.09197   0.11171   0.11215   0.12525
     Eigenvalues ---    0.13662   0.13749   0.13924   0.14722   0.31895
     Eigenvalues ---    0.31900   0.31905   0.31908   0.32024   0.32051
     Eigenvalues ---    0.36612   0.36802   0.48908   0.94674   0.98854
     Eigenvalues --- 1000.000001000.000001000.000001000.000001000.00000
     Eigenvalues --- 1000.00000
 Angle between quadratic step and forces=  60.78 degrees.
 Linear search not attempted -- first point.
 Iteration  1 RMS(Cart)=  0.00694984 RMS(Int)=  0.00002926
 Iteration  2 RMS(Cart)=  0.00003029 RMS(Int)=  0.00000000
 Iteration  3 RMS(Cart)=  0.00000000 RMS(Int)=  0.00000000
 Variable       Old X    -DE/DX   Delta X   Delta X   Delta X     New X
                                 (Linear)    (Quad)   (Total)
    R1        2.74977   0.00000   0.00000   0.00000   0.00000   2.74977
    R2        2.09336   0.00000   0.00000   0.00000   0.00000   2.09336
    R3        2.09356   0.00000   0.00000   0.00000   0.00000   2.09356
    R4        2.09337   0.00000   0.00000   0.00000   0.00000   2.09337
    R5        2.33062   0.00000   0.00000   0.00000   0.00000   2.33062
    R6        2.58181   0.00000   0.00000   0.00000   0.00000   2.58181
    R7        2.33062   0.00000   0.00000   0.00000   0.00000   2.33062
    R8        2.74977   0.00000   0.00000   0.00000   0.00000   2.74977
    R9        2.09337   0.00000   0.00000   0.00000   0.00000   2.09337
   R10        2.09336   0.00000   0.00000   0.00000   0.00000   2.09336
   R11        2.09356   0.00000   0.00000   0.00000   0.00000   2.09356
    A1        1.94030   0.00000   0.00000   0.00003   0.00003   1.94034
    A2        1.93862   0.00000   0.00000  -0.00001  -0.00001   1.93861
    A3        1.94044   0.00000   0.00000  -0.00003  -0.00003   1.94041
    A4        1.88121   0.00000   0.00000  -0.00002  -0.00002   1.88119
    A5        1.87949   0.00000   0.00000   0.00000   0.00000   1.87948
    A6        1.88111   0.00000   0.00000   0.00002   0.00002   1.88113
    A7        3.09778   0.00000   0.00000  -0.00002  -0.00002   3.09776
    A8        3.08350   0.00000   0.00000   0.00000   0.00000   3.08350
    A9        3.08350   0.00000   0.00000   0.00000   0.00000   3.08350
   A10        3.09778   0.00000   0.00000  -0.00002  -0.00002   3.09776
   A11        1.94044   0.00000   0.00000  -0.00003  -0.00003   1.94041
   A12        1.94030   0.00000   0.00000   0.00003   0.00003   1.94034
   A13        1.93862   0.00000   0.00000  -0.00001  -0.00001   1.93861
   A14        1.87949   0.00000   0.00000   0.00000   0.00000   1.87948
   A15        1.88111   0.00000   0.00000   0.00002   0.00002   1.88113
   A16        1.88121   0.00000   0.00000  -0.00002  -0.00002   1.88119
    D1        2.06267   0.00000   0.00000   0.01428   0.01428   2.07695
    D2       -0.03206   0.00000   0.00000   0.01429   0.01429  -0.01777
    D3       -2.12675   0.00000   0.00000   0.01428   0.01428  -2.11247
    D4       -3.13692   0.00000   0.00000  -0.00656  -0.00656   3.13971
    D5        3.12254   0.00000   0.00000   0.00196   0.00196   3.12449
    D6       -3.13692   0.00000   0.00000  -0.00656  -0.00656   3.13971
    D7       -2.12675   0.00000   0.00000   0.01428   0.01428  -2.11247
    D8        2.06267   0.00000   0.00000   0.01428   0.01428   2.07695
    D9       -0.03206   0.00000   0.00000   0.01429   0.01429  -0.01777
         Item               Value     Threshold  Converged?
 Maximum Force            0.000001     0.000450     YES
 RMS     Force            0.000000     0.000300     YES
 Maximum Displacement     0.016602     0.001800     NO 
 RMS     Displacement     0.006950     0.001200     NO 
 Predicted change in Energy=-1.381456D-08
 Optimization completed on the basis of negligible forces.
    -- Stationary point found.
                           ----------------------------
                           !   Optimized Parameters   !
                           ! (Angstroms and Degrees)  !
 --------------------------                            --------------------------
 ! Name  Definition              Value          Derivative Info.                !
 --------------------------------------------------------------------------------
 ! R1    R(1,2)                  1.4551         -DE/DX =    0.0                 !
 ! R2    R(1,7)                  1.1078         -DE/DX =    0.0                 !
 ! R3    R(1,8)                  1.1079         -DE/DX =    0.0                 !
 ! R4    R(1,9)                  1.1078         -DE/DX =    0.0                 !
 ! R5    R(2,3)                  1.2333         -DE/DX =    0.0                 !
 ! R6    R(3,4)                  1.3662         -DE/DX =    0.0                 !
 ! R7    R(4,5)                  1.2333         -DE/DX =    0.0                 !
 ! R8    R(5,6)                  1.4551         -DE/DX =    0.0                 !
 ! R9    R(6,10)                 1.1078         -DE/DX =    0.0                 !
 ! R10   R(6,11)                 1.1078         -DE/DX =    0.0                 !
 ! R11   R(6,12)                 1.1079         -DE/DX =    0.0                 !
 ! A1    A(2,1,7)              111.1711         -DE/DX =    0.0                 !
 ! A2    A(2,1,8)              111.0747         -DE/DX =    0.0                 !
 ! A3    A(2,1,9)              111.1788         -DE/DX =    0.0                 !
 ! A4    A(7,1,8)              107.7854         -DE/DX =    0.0                 !
 ! A5    A(7,1,9)              107.6866         -DE/DX =    0.0                 !
 ! A6    A(8,1,9)              107.7796         -DE/DX =    0.0                 !
 ! A7    A(1,2,3)              177.4897         -DE/DX =    0.0                 !
 ! A8    A(2,3,4)              176.6717         -DE/DX =    0.0                 !
 ! A9    A(3,4,5)              176.6717         -DE/DX =    0.0                 !
 ! A10   A(4,5,6)              177.4897         -DE/DX =    0.0                 !
 ! A11   A(5,6,10)             111.1788         -DE/DX =    0.0                 !
 ! A12   A(5,6,11)             111.1711         -DE/DX =    0.0                 !
 ! A13   A(5,6,12)             111.0747         -DE/DX =    0.0                 !
 ! A14   A(10,6,11)            107.6866         -DE/DX =    0.0                 !
 ! A15   A(10,6,12)            107.7796         -DE/DX =    0.0                 !
 ! A16   A(11,6,12)            107.7854         -DE/DX =    0.0                 !
 ! D1    D(7,1,2,3)            118.1824         -DE/DX =    0.0                 !
 ! D2    D(8,1,2,3)             -1.8367         -DE/DX =    0.0                 !
 ! D3    D(9,1,2,3)           -121.8536         -DE/DX =    0.0                 !
 ! D4    D(1,2,3,4)            180.2678         -DE/DX =    0.0                 !
 ! D5    D(2,3,4,5)            178.9081         -DE/DX =    0.0                 !
 ! D6    D(3,4,5,6)            180.2678         -DE/DX =    0.0                 !
 ! D7    D(4,5,6,10)          -121.8536         -DE/DX =    0.0                 !
 ! D8    D(4,5,6,11)           118.1824         -DE/DX =    0.0                 !
 ! D9    D(4,5,6,12)            -1.8367         -DE/DX =    0.0                 !
 --------------------------------------------------------------------------------
 GradGradGradGradGradGradGradGradGradGradGradGradGradGradGradGradGradGrad

 1\1\GINC-COMPUTE-0-8\Freq\UPBEPBE\Aug-CC-pVDZ\C6H6\RKANTERS\12-Jul-200
 7\0\\# UPBEPBE/AUG-CC-PVDZ FREQ GUESS=READ GEOM=ALLCHECK SCF=QC\\24hex
 adiyne init geom from 24hexadiyne_4.OUT.154 to break linearity 1st fre
 q\\0,1\C,0.0039218389,3.3705803495,0.0004634656\C,0.0213388845,1.91556
 80397,-0.0000095158\C,-0.017925492,0.6828810497,-0.0007433355\C,0.0179
 273826,-0.6828810497,-0.0006962519\C,-0.0213387859,-1.9155680397,-0.00
 0065562\C,-0.0039230427,-3.3705803495,0.0004531634\H,0.4813344486,3.77
 60984219,0.9141142477\H,-1.0337782137,3.7565700062,-0.0389154139\H,0.5
 496297152,3.7776379089,-0.8734084178\H,-0.5473338245,-3.7776379089,-0.
 8748489999\H,-0.4837336966,-3.7760984219,0.9128468766\H,1.0338768587,-
 3.7565700062,-0.0362000758\\Version=x86-Linux-G03RevB.04\State=1-A\HF=
 -231.8458918\S2=0.\S2-1=0.\S2A=0.\RMSD=0.000e+00\RMSF=3.892e-06\Dipole
 =-0.0000008,0.,0.0005982\DipoleDeriv=0.1180966,0.0307651,0.000655,0.00
 02157,0.0885903,-0.0000312,-0.000217,0.0002487,0.1149884,-0.1469421,-0
 .0363524,-0.0004226,0.0054484,0.2024213,0.0002743,-0.0001973,0.0000378
 ,-0.1441359,-0.0478999,0.0009621,0.0001067,-0.0004687,-0.0026572,-0.00
 01149,0.0006484,-0.0007129,-0.0487829,-0.0478979,0.0009602,-0.0001044,
 -0.000469,-0.002657,0.0001137,-0.0006461,0.0007153,-0.0487849,-0.14694
 37,-0.0363522,0.0004152,0.0054491,0.202421,-0.00026,0.0001899,-0.00013
 32,-0.1441343,0.1180977,0.0307657,-0.0006468,0.0002156,0.0885905,0.000
 0318,0.0002251,-0.0001679,0.1149872,0.0661398,-0.0397105,-0.05961,-0.0
 157421,-0.0931844,-0.0295243,-0.0587821,-0.0814373,-0.0148094,-0.04614
 95,0.0903115,-0.0054562,0.028357,-0.1022318,0.0008904,-0.005358,0.0032
 095,0.0980997,0.0567545,-0.045975,0.064784,-0.0178104,-0.0929383,0.028
 5977,0.0642879,0.0780631,-0.0053593,0.0570931,-0.0457698,-0.06462,-0.0
 177352,-0.0929383,-0.0286444,-0.0641239,-0.0781835,-0.0056979,0.065828
 3,-0.0399242,0.0598218,-0.0158195,-0.0931844,0.0294828,0.0589939,0.081
 3327,-0.0144978,-0.0461769,0.0903196,0.0050772,0.0283592,-0.1022318,-0
 .0008159,0.0049791,-0.0029723,0.0981271\Polar=51.4504657,1.0092244,167
 .6446982,-0.0000166,0.0013259,51.4630638\PG=C02 [X(C6H6)]\NImag=0\\0.4
 9929115,-0.00042437,0.49457778,0.00010051,0.00004443,0.49727220,-0.054
 60834,0.00432708,0.00002639,0.08523520,0.00560533,-0.28502073,-0.00006
 373,0.02009546,1.30132702,-0.00007074,-0.00005884,-0.04923438,-0.00011
 686,0.00060959,0.05977210,0.00563967,-0.00121831,0.00003306,-0.0508411
 4,-0.02601001,0.00006927,0.10358951,-0.00273181,-0.01454588,-0.0000361
 0,-0.02407240,-0.90895197,-0.00049546,0.01625447,1.37344454,0.00022863
 ,0.00000062,-0.00337036,-0.00009325,-0.00051615,-0.00542083,0.00012465
 ,0.00047858,0.01302240,0.00181574,0.00010548,-0.00003149,0.02263890,-0
 .00106757,-0.00007426,-0.08334233,0.01173665,0.00004501,0.10358954,-0.
 00049559,0.00999726,0.00000584,-0.00061980,-0.07387771,-0.00000509,0.0
 1173670,-0.38581678,-0.00000394,0.01625567,1.37344454,-0.00022429,-0.0
 0001445,0.00809903,0.00020257,-0.00001065,-0.01144538,-0.00025790,0.00
 003476,-0.00228744,0.00011323,-0.00043589,0.01302237,0.00261708,0.0002
 7979,0.00007923,-0.00918066,0.00035877,0.00003036,0.02263900,-0.000619
 82,-0.00011305,-0.05084089,-0.02407361,-0.00002604,0.08523441,0.000333
 67,-0.00353241,-0.00000432,0.00035877,0.03008576,0.00000200,-0.0010675
 9,-0.07387771,0.00000785,-0.02601128,-0.90895197,0.00044783,0.02009699
 ,1.30132702,0.00002190,0.00001186,0.00013055,-0.00006306,-0.00000106,0
 .00326871,0.00016378,0.00000347,-0.01144548,-0.00018857,0.00043223,-0.
 00542108,0.00018373,-0.00055680,0.05977289,-0.00165155,-0.00008930,-0.
 00011283,0.00261733,0.00033365,-0.00001537,0.00181511,-0.00049558,0.00
 020778,0.00564029,-0.00273190,-0.00020496,-0.05460842,0.00560515,0.000
 05662,0.49929166,-0.00008930,0.00044325,-0.00000010,0.00027982,-0.0035
 3241,-0.00001112,0.00010544,0.00999726,0.00001473,-0.00121831,-0.01454
 588,-0.00000382,0.00432691,-0.28502073,0.00007021,-0.00042425,0.494577
 78,0.00011097,-0.00000014,-0.00094134,-0.00007270,0.00000520,0.0001303
 0,0.00001498,-0.00000714,0.00809966,-0.00000940,0.00002893,-0.00337098
 ,-0.00004050,0.00007845,-0.04923431,-0.00009521,-0.00004555,0.49727168
 ,-0.08607402,-0.03775579,-0.09301396,-0.00036531,-0.00197546,0.0034587
 7,0.00046185,0.00142682,-0.00085035,0.00020383,-0.00054043,0.00008806,
 -0.00015757,0.00025332,-0.00001317,0.00013559,-0.00001877,-0.00008227,
 0.09143040,-0.03897954,-0.06836845,-0.07475909,-0.01322104,-0.02042175
 ,-0.02582793,-0.00009656,0.00093738,0.00096147,0.00084608,-0.00137055,
 0.00061444,0.00006414,0.00048022,0.00032971,-0.00023226,-0.00005224,-0
 .00027824,0.04265407,0.08221148,-0.09298474,-0.07253484,-0.21488913,0.
 00297137,-0.00415380,0.00282949,-0.00043118,0.00287699,0.00055509,-0.0
 0021368,-0.00099262,-0.00050678,0.00012644,0.00045193,0.00010835,-0.00
 009386,-0.00003170,0.00003236,0.10062178,0.08183979,0.23132667,-0.2663
 8507,0.07811320,-0.00871891,0.00480640,0.00495317,0.00031751,-0.000928
 35,-0.00327955,-0.00014742,0.00020742,0.00128828,0.00006830,-0.0001197
 0,-0.00055228,-0.00002411,-0.00000645,0.00005514,0.00000197,-0.0114252
 4,0.00357872,0.00080459,0.28686939,0.08145931,-0.06482103,0.00306465,0
 .02816434,-0.02054906,0.00104930,-0.00016674,0.00202027,0.00000636,-0.
 00125024,-0.00135796,-0.00005901,-0.00026314,0.00041914,0.00001704,0.0
 0043518,-0.00004167,-0.00003941,-0.00993860,0.00327891,0.00049028,-0.0
 8840170,0.07806049,-0.00869468,0.00290612,-0.03744793,0.00029026,0.000
 17947,-0.00266215,-0.00008739,-0.00011448,0.00179130,0.00001221,0.0000
 4552,-0.00059428,-0.00002566,-0.00001701,0.00016491,0.00003272,0.00000
 296,0.00011574,-0.02296900,0.00864561,-0.00094425,0.00942556,-0.003312
 22,0.03897623,-0.10093628,-0.04335388,0.10159762,0.00014366,-0.0022815
 4,-0.00363325,0.00037130,0.00164581,0.00077087,0.00018353,-0.00061242,
 0.00002226,-0.00016855,0.00028713,0.00000053,0.00016245,-0.00002027,0.
 00004027,0.00583221,0.00529584,-0.01083797,-0.01304468,-0.00990231,0.0
 2202736,0.10750955,-0.04471471,-0.06858306,0.07174597,-0.01514130,-0.0
 2043199,0.02473730,-0.00006447,0.00088720,-0.00095689,0.00093127,-0.00
 136579,-0.00056143,0.00002806,0.00047349,-0.00034745,-0.00016592,-0.00
 005283,0.00031530,0.00589802,0.00358858,-0.00792529,0.00422817,0.00329
 391,-0.00833546,0.04894747,0.08247315,0.10156438,0.06964772,-0.1997761
 8,-0.00319357,0.00396132,0.00236957,0.00042108,-0.00275179,0.00065316,
 0.00025759,0.00093630,-0.00049586,-0.00015184,-0.00042476,0.00011908,0
 .00011344,0.00003126,0.00000948,0.01271059,0.00838762,-0.01850648,-0.0
 0172495,-0.00124273,0.00066759,-0.10995576,-0.07856296,0.21495379,0.00
 016286,-0.00002019,-0.00003987,-0.00016894,0.00028601,-0.00000128,0.00
 018426,-0.00060996,-0.00002047,0.00037443,0.00163858,-0.00077160,0.000
 12575,-0.00227113,0.00362736,-0.10040336,-0.04317080,-0.10133662,-0.00
 003919,0.00001715,0.00002663,0.00000664,-0.00006783,0.00002202,-0.0000
 2083,0.00004490,-0.00001688,0.10693269,-0.00016509,-0.00005283,-0.0003
 1573,0.00002715,0.00047349,0.00034752,0.00092979,-0.00136579,0.0005638
 7,-0.00006698,0.00088720,0.00095671,-0.01507627,-0.02043199,-0.0247769
 9,-0.04452612,-0.06858306,-0.07186317,-0.00000190,-0.00017964,0.000003
 34,0.00001023,-0.00004998,0.00006490,0.00004479,-0.00005306,0.00004099
 ,0.04874096,0.08247315,-0.00011303,-0.00003132,0.00000908,0.00015108,0
 .00042551,0.00011948,-0.00025580,-0.00093791,-0.00049659,-0.00042182,0
 .00275610,0.00065003,0.00318768,-0.00396730,0.00238749,-0.10130338,-0.
 06976135,-0.20030909,0.00002707,-0.00000766,-0.00000473,-0.00000306,0.
 00003052,-0.00000413,0.00001679,-0.00004088,0.00001488,0.10967205,0.07
 869125,0.21553064,0.00013512,-0.00001885,0.00008254,-0.00015727,0.0002
 5451,0.00001247,0.00020349,-0.00054304,-0.00008619,0.00045848,0.001434
 37,0.00085010,-0.00034840,-0.00198636,-0.00346712,-0.08656343,-0.03794
 617,0.09335101,-0.00001059,0.00005795,0.00001142,0.00000815,-0.0000592
 9,-0.00003391,-0.00003905,-0.00000189,-0.00002716,0.00583696,0.0058771
 9,-0.01264665,0.09195992,-0.00023299,-0.00005224,0.00027763,0.00006501
 ,0.00048022,-0.00032954,0.00084769,-0.00137055,-0.00061222,-0.00009404
 ,0.00093738,-0.00096172,-0.01328883,-0.02042175,0.02579311,-0.03917576
 ,-0.06836845,0.07465646,0.00005806,-0.00006778,-0.00004166,0.00001558,
 -0.00003616,-0.00005242,0.00001713,-0.00017964,0.00000770,0.00531785,0
 .00358858,-0.00837368,0.04286887,0.08221148,0.00009413,0.00003166,0.00
 003282,-0.00012714,-0.00045126,0.00010806,0.00021555,0.00099120,-0.000
 50644,0.00043093,-0.00287324,0.00055846,-0.00297972,0.00414860,0.00281
 258,0.09332178,0.07243543,-0.21439972,-0.00001148,0.00004181,0.0000094
 7,0.00000087,-0.00001774,-0.00001015,-0.00002672,-0.00000335,-0.000004
 87,0.01090191,0.00794076,-0.01851123,-0.10098783,-0.08172748,0.2307971
 4,-0.00000636,0.00005515,-0.00000229,-0.00011983,-0.00055232,0.0000233
 7,0.00020763,0.00128840,-0.00006619,-0.00092895,-0.00327984,0.00014028
 ,0.00480794,0.00495362,-0.00029789,-0.26642923,0.07812056,0.00811750,0
 .00000806,0.00001545,-0.00000082,0.00001150,-0.00000899,0.00000051,0.0
 0000669,0.00001040,0.00000308,-0.01299126,0.00420626,0.00168908,-0.011
 48338,0.00360142,-0.00083227,0.28691719,0.00043508,-0.00004167,0.00004
 055,-0.00026309,0.00041914,-0.00001773,-0.00125039,-0.00135796,0.00005
 572,-0.00016673,0.00202027,-0.00000679,0.02816700,-0.02054906,-0.00097
 532,0.08146708,-0.06482103,-0.00285068,-0.00005933,-0.00003616,0.00001
 758,-0.00000896,-0.00021687,-0.00001299,-0.00006775,-0.00004998,-0.000
 03070,-0.00990554,0.00329391,0.00121672,-0.00993728,0.00327891,-0.0005
 1638,-0.08841009,0.07806049,-0.00003304,-0.00000282,0.00011565,0.00002
 491,0.00001555,0.00016504,-0.00001010,-0.00004213,-0.00059448,0.000080
 25,0.00010586,0.00179190,-0.00027064,-0.00016646,-0.00266370,0.0080932
 6,-0.00270095,-0.03740377,0.00003395,0.00005246,-0.00001006,-0.0000003
 4,0.00001297,-0.00005288,-0.00002199,-0.00006487,-0.00000418,-0.022063
 24,0.00834654,0.00061417,0.02294132,-0.00863618,-0.00088611,-0.0087743
 5,0.00308003,0.03892843\\0.00000037,-0.00000028,0.00000753,0.00000065,
 0.00000055,-0.00001330,0.00000021,-0.00000069,0.00000589,-0.00000023,0
 .00000069,0.00000589,-0.00000061,-0.00000055,-0.00001330,-0.00000039,0
 .00000028,0.00000753,0.00000101,0.00000008,0.00000028,0.00000076,0.000
 00031,-0.00000040,0.00000101,-0.00000028,0.,-0.00000101,0.00000028,0.,
 -0.00000101,-0.00000008,0.00000028,-0.00000076,-0.00000031,-0.00000040
 \\\@


 YE HAVE SOWN MUCH, AND BRING IN LITTLE.
 YE EAT, BUT YE HAVE NOT ENOUGH.
 YE DRINK, BUT YE ARE NOT FILLED WITH DRINK.
 YE CLOTHE YOU, BUT THERE IS NONE WARM.
 AND HE THAT EARNETH WAGES EARNETH WAGES TO PUT
 IT INTO A BAG WITH HOLES.
                                     HAGGAI I,6
 Job cpu time:  0 days  0 hours 53 minutes 49.8 seconds.
 File lengths (MBytes):  RWF=     58 Int=      0 D2E=      0 Chk=      7 Scr=      1
 Normal termination of Gaussian 03 at Thu Jul 12 19:23:47 2007.
