 Entering Gaussian System, Link 0=g03
 Input=H2O_G03.com
 Output=H2O_G03.log
 Initial command:
 /usr/local/g03/l1.exe /Users/rkanters/scratch/Gau-29785.inp -scrdir=/Users/rkanters/scratch/
 Entering Link 1 = /usr/local/g03/l1.exe PID=     29786.
  
 Copyright (c) 1988,1990,1992,1993,1995,1998,2003,2004, Gaussian, Inc.
                  All Rights Reserved.
  
 This is the Gaussian(R) 03 program.  It is based on the
 the Gaussian(R) 98 system (copyright 1998, Gaussian, Inc.),
 the Gaussian(R) 94 system (copyright 1995, Gaussian, Inc.),
 the Gaussian 92(TM) system (copyright 1992, Gaussian, Inc.),
 the Gaussian 90(TM) system (copyright 1990, Gaussian, Inc.),
 the Gaussian 88(TM) system (copyright 1988, Gaussian, Inc.),
 the Gaussian 86(TM) system (copyright 1986, Carnegie Mellon
 University), and the Gaussian 82(TM) system (copyright 1983,
 Carnegie Mellon University). Gaussian is a federally registered
 trademark of Gaussian, Inc.
  
 This software contains proprietary and confidential information,
 including trade secrets, belonging to Gaussian, Inc.
  
 This software is provided under written license and may be
 used, copied, transmitted, or stored only in accord with that
 written license.
  
 The following legend is applicable only to US Government
 contracts under FAR:
  
                    RESTRICTED RIGHTS LEGEND
  
 Use, reproduction and disclosure by the US Government is
 subject to restrictions as set forth in subparagraphs (a)
 and (c) of the Commercial Computer Software - Restricted
 Rights clause in FAR 52.227-19.
  
 Gaussian, Inc.
 340 Quinnipiac St., Bldg. 40, Wallingford CT 06492
  
  
 ---------------------------------------------------------------
 Warning -- This program may not be used in any manner that
 competes with the business of Gaussian, Inc. or will provide
 assistance to any competitor of Gaussian, Inc.  The licensee
 of this program is prohibited from giving any competitor of
 Gaussian, Inc. access to this program.  By using this program,
 the user acknowledges that Gaussian, Inc. is engaged in the
 business of creating and licensing software in the field of
 computational chemistry and represents and warrants to the
 licensee that it is not a competitor of Gaussian, Inc. and that
 it will not use this program in any manner prohibited above.
 ---------------------------------------------------------------
  

 Cite this work as:
 Gaussian 03, Revision C.02,
 M. J. Frisch, G. W. Trucks, H. B. Schlegel, G. E. Scuseria, 
 M. A. Robb, J. R. Cheeseman, J. A. Montgomery, Jr., T. Vreven, 
 K. N. Kudin, J. C. Burant, J. M. Millam, S. S. Iyengar, J. Tomasi, 
 V. Barone, B. Mennucci, M. Cossi, G. Scalmani, N. Rega, 
 G. A. Petersson, H. Nakatsuji, M. Hada, M. Ehara, K. Toyota, 
 R. Fukuda, J. Hasegawa, M. Ishida, T. Nakajima, Y. Honda, O. Kitao, 
 H. Nakai, M. Klene, X. Li, J. E. Knox, H. P. Hratchian, J. B. Cross, 
 C. Adamo, J. Jaramillo, R. Gomperts, R. E. Stratmann, O. Yazyev, 
 A. J. Austin, R. Cammi, C. Pomelli, J. W. Ochterski, P. Y. Ayala, 
 K. Morokuma, G. A. Voth, P. Salvador, J. J. Dannenberg, 
 V. G. Zakrzewski, S. Dapprich, A. D. Daniels, M. C. Strain, 
 O. Farkas, D. K. Malick, A. D. Rabuck, K. Raghavachari, 
 J. B. Foresman, J. V. Ortiz, Q. Cui, A. G. Baboul, S. Clifford, 
 J. Cioslowski, B. B. Stefanov, G. Liu, A. Liashenko, P. Piskorz, 
 I. Komaromi, R. L. Martin, D. J. Fox, T. Keith, M. A. Al-Laham, 
 C. Y. Peng, A. Nanayakkara, M. Challacombe, P. M. W. Gill, 
 B. Johnson, W. Chen, M. W. Wong, C. Gonzalez, and J. A. Pople, 
 Gaussian, Inc., Wallingford CT, 2004.
 
 ******************************************
 Gaussian 03:  Mac32-G03RevC.02 12-Jun-2004
                24-Oct-2004 
 ******************************************
 -----------------
 #N HF/STO-3G Freq
 -----------------
 1/10=4,30=1,38=1/1,3;
 2/17=6,18=5,40=1/2;
 3/6=3,11=9,16=1,25=1,30=1/1,2,3;
 4//1;
 5/5=2,38=5/2;
 8/6=4,10=90,11=11/1;
 10/13=10/2;
 11/6=2,8=1,9=11,15=111,16=1/1,2,10;
 10/6=1/2;
 6/7=2,8=2,9=2,10=2,18=1,28=1/1;
 7/8=1,10=1,25=1/1,2,3,16;
 1/10=4,30=1/3;
 99//99;
 ---
 H2O
 ---
 Symbolic Z-matrix:
 Charge =  0 Multiplicity = 1
 X1
 O2                   X1   DO2X1
 H3                   O2   DH3O2    X1   AH3X1
 H4                   O2   DH4O2    X1   AH4X1    H3   TH3H4    0
       Variables:
  DO2X1                 1.8                      
  DH3O2                 0.98                     
  DH4O2                 0.98946                  
  AH3X1               129.98528                  
  AH4X1               129.98528                  
  TH3H4               180.                       
 

 GradGradGradGradGradGradGradGradGradGradGradGradGradGradGradGradGradGrad
 Berny optimization.
 Initialization pass.
                       ----------------------------
                       !    Initial Parameters    !
                       ! (Angstroms and Degrees)  !
 ----------------------                            ----------------------
 !      Name          Value   Derivative information (Atomic Units)     !
 ------------------------------------------------------------------------
 !      DO2X1        1.8      calculate D2E/DX2 analytically            !
 !      DH3O2        0.98     calculate D2E/DX2 analytically            !
 !      DH4O2        0.9895   calculate D2E/DX2 analytically            !
 !      AH3X1      129.9853   calculate D2E/DX2 analytically            !
 !      AH4X1      129.9853   calculate D2E/DX2 analytically            !
 !      TH3H4      180.0      calculate D2E/DX2 analytically            !
 ------------------------------------------------------------------------
 Trust Radius=3.00E-01 FncErr=1.00E-07 GrdErr=1.00E-07
 Number of steps in this run=   2 maximum allowed number of steps=   2.
 GradGradGradGradGradGradGradGradGradGradGradGradGradGradGradGradGradGrad

                          Input orientation:                          
 ---------------------------------------------------------------------
 Center     Atomic     Atomic              Coordinates (Angstroms)
 Number     Number      Type              X           Y           Z
 ---------------------------------------------------------------------
    1          8             0         .000000     .000000    1.800000
    2          1             0         .750885     .000000    2.429739
    3          1             0        -.758134     .000000    2.435818
 ---------------------------------------------------------------------
                    Distance matrix (angstroms):
                    1          2          3
     1  O     .000000
     2  H     .980000    .000000
     3  H     .989460   1.509031    .000000
 Stoichiometry    H2O
 Framework group  CS[SG(H2O)]
 Deg. of freedom     3
 Full point group                 CS      NOp   2
 Largest Abelian subgroup         CS      NOp   2
 Largest concise Abelian subgroup C1      NOp   1
                         Standard orientation:                         
 ---------------------------------------------------------------------
 Center     Atomic     Atomic              Coordinates (Angstroms)
 Number     Number      Type              X           Y           Z
 ---------------------------------------------------------------------
    1          8             0         .000000     .126558     .000000
    2          1             0         .754480    -.498870     .000000
    3          1             0        -.754480    -.513592     .000000
 ---------------------------------------------------------------------
 Rotational constants (GHZ):    705.2449379    440.3487750    271.0854127
 Standard basis: STO-3G (5D, 7F)
 There are     6 symmetry adapted basis functions of A'  symmetry.
 There are     1 symmetry adapted basis functions of A"  symmetry.
 Integral buffers will be    262144 words long.
 Raffenetti 1 integral format.
 Two-electron integral symmetry is turned on.
     7 basis functions,    21 primitive gaussians,     7 cartesian basis functions
     5 alpha electrons        5 beta electrons
       nuclear repulsion energy         8.9490005836 Hartrees.
 NAtoms=    3 NActive=    3 NUniq=    3 SFac= 1.00E+00 NAtFMM=   60 Big=F
 One-electron integrals computed using PRISM.
 NBasis=     7 RedAO= T  NBF=     6     1
 NBsUse=     7 1.00E-06 NBFU=     6     1
 Harris functional with IExCor=  205 diagonalized for initial guess.
 ExpMin= 1.69E-01 ExpMax= 1.31E+02 ExpMxC= 1.31E+02 IAcc=1 IRadAn=         1 AccDes= 1.00E-06
 HarFok:  IExCor= 205 AccDes= 1.00E-06 IRadAn=         1 IDoV=1
 ScaDFX=  1.000000  1.000000  1.000000  1.000000
 Initial guess orbital symmetries:
       Occupied  (A') (A') (A') (A') (A")
       Virtual   (A') (A')
 The electronic state of the initial guess is 1-A'.
 Requested convergence on RMS density matrix=1.00E-08 within 128 cycles.
 Requested convergence on MAX density matrix=1.00E-06.
 Requested convergence on             energy=1.00E-06.
 No special actions if energy rises.
 Keep R1 integrals in memory in canonical form, NReq=      419402.
 SCF Done:  E(RHF) =  -74.9657959666     A.U. after    8 cycles
             Convg  =     .1188E-08             -V/T =  2.0059
             S**2   =    .0000
 Range of M.O.s used for correlation:     1     7
 NBasis=     7 NAE=     5 NBE=     5 NFC=     0 NFV=     0
 NROrb=      7 NOA=     5 NOB=     5 NVA=     2 NVB=     2
          Differentiating once with respect to electric field.
                with respect to dipole field.
          Electric field/nuclear overlap derivatives assumed to be zero.
          Store integrals in memory, NReq=      400525.
          There are   3 degrees of freedom in the 1st order CPHF.
     3 vectors were produced by pass  0.
 AX will form   3 AO Fock derivatives at one time.
     3 vectors were produced by pass  1.
     2 vectors were produced by pass  2.
     2 vectors were produced by pass  3.
 Inv2:  IOpt= 1 Iter= 1 AM= 6.87E-16 Conv= 1.00E-12.
 Inverted reduced A of dimension   10 with in-core refinement.
 End of Minotr Frequency-dependent properties file   721 does not exist.
 Symmetrizing basis deriv contribution to polar:
 IMax=3 JMax=2 DiffMx= 0.00E+00
 G2DrvN: will do    4 centers at a time, making    1 passes doing MaxLOS=1.
 FoFDir/FoFCou used for L=0 through L=1.
 DoAtom=TTT
          Differentiating once with respect to electric field.
                with respect to dipole field.
          Differentiating once with respect to nuclear coordinates.
          Store integrals in memory, NReq=      400562.
          There are  12 degrees of freedom in the 1st order CPHF.
     8 vectors were produced by pass  0.
 AX will form   8 AO Fock derivatives at one time.
     2 vectors were produced by pass  1.
 Inv2:  IOpt= 1 Iter= 1 AM= 5.18E-16 Conv= 1.00E-12.
 Inverted reduced A of dimension   10 with in-core refinement.
 Isotropic polarizability for W=     .000000        2.67 Bohr**3.
 End of Minotr Frequency-dependent properties file   721 does not exist.

 **********************************************************************

            Population analysis using the SCF density.

 **********************************************************************

 Orbital symmetries:
       Occupied  (A') (A') (A') (A') (A")
       Virtual   (A') (A')
 The electronic state is 1-A'.
 Alpha  occ. eigenvalues --  -20.25096  -1.25982   -.59619   -.46030   -.39285
 Alpha virt. eigenvalues --     .58604    .69820
          Condensed to atoms (all electrons):
              1          2          3
     1  O    7.824866    .255185    .254603
     2  H     .255185    .621827   -.046229
     3  H     .254603   -.046229    .626188
 Mulliken atomic charges:
              1
     1  O    -.334654
     2  H     .169217
     3  H     .165438
 Sum of Mulliken charges=    .00000
 Atomic charges with hydrogens summed into heavy atoms:
              1
     1  O     .000000
     2  H     .000000
     3  H     .000000
 Sum of Mulliken charges=    .00000
 APT atomic charges:
              1
     1  O    -.172695
     2  H     .087200
     3  H     .085495
 Sum of APT charges=    .00000
 APT Atomic charges with hydrogens summed into heavy atoms:
              1
     1  O     .000000
     2  H     .000000
     3  H     .000000
 Sum of APT charges=    .00000
 Electronic spatial extent (au):  <R**2>=    18.2063
 Charge=      .0000 electrons
 Dipole moment (field-independent basis, Debye):
    X=      .0157    Y=    -1.7158    Z=      .0000  Tot=     1.7158
 Quadrupole moment (field-independent basis, Debye-Ang):
   XX=    -4.4873   YY=    -5.3329   ZZ=    -6.1217
   XY=      .0102   XZ=      .0000   YZ=      .0000
 Traceless Quadrupole moment (field-independent basis, Debye-Ang):
   XX=      .8267   YY=     -.0190   ZZ=     -.8077
   XY=      .0102   XZ=      .0000   YZ=      .0000
 Octapole moment (field-independent basis, Debye-Ang**2):
  XXX=      .0125  YYY=     -.1816  ZZZ=      .0000  XYY=     -.0070
  XXY=     -.5284  XXZ=      .0000  XZZ=      .0029  YZZ=      .0165
  YYZ=      .0000  XYZ=      .0000
 Hexadecapole moment (field-independent basis, Debye-Ang**3):
 XXXX=    -6.6894 YYYY=    -5.1917 ZZZZ=    -3.2608 XXXY=     -.0188
 XXXZ=      .0000 YYYX=     -.0131 YYYZ=      .0000 ZZZX=      .0000
 ZZZY=      .0000 XXYY=    -1.7303 XXZZ=    -1.7983 YYZZ=    -1.4538
 XXYZ=      .0000 YYXZ=      .0000 ZZXY=     -.0080
 N-N= 8.949000583575E+00 E-N=-1.964380269626E+02  KE= 7.452867719271E+01
 Symmetry A'   KE= 6.947121474069E+01
 Symmetry A"   KE= 5.057462452019E+00
  Exact polarizability:   5.430    .061   2.536    .000    .000    .040
 Approx polarizability:   3.885    .049   2.570    .000    .000    .020
 Full mass-weighted force constant matrix:
 Low frequencies --- -422.2266 -291.6943     .0008     .0015     .0019  101.1212
 Low frequencies --- 2163.2474 4182.3793 4459.5112
 Diagonal vibrational polarizability:
         .0399862        .1109079        .0000000
 Diagonal vibrational hyperpolarizability:
         .0329908       -.5484874        .0000000
 Harmonic frequencies (cm**-1), IR intensities (KM/Mole), Raman scattering
 activities (A**4/AMU), depolarization ratios for plane and unpolarized
 incident light, reduced masses (AMU), force constants (mDyne/A),
 and normal coordinates:
                     1                      2                      3
                    A'                     A'                     A'
 Frequencies --  2162.8164              4182.3793              4459.5112
 Red. masses --     1.0785                 1.0502                 1.0761
 Frc consts  --     2.9725                10.8237                12.6093
 IR Inten    --     7.5318                43.4940                30.0403
 Raman Activ --     9.1412                45.8362                22.1190
 Depolar (P) --      .7228                  .1874                  .6763
 Depolar (U) --      .8391                  .3156                  .8069
 Atom AN      X      Y      Z        X      Y      Z        X      Y      Z
   1   8      .00    .07    .00      .01    .05    .00      .07   -.01    .00
   2   1     -.45   -.55    .00      .45   -.31    .00     -.65    .53    .00
   3   1      .45   -.54    .00     -.67   -.51    .00     -.40   -.35    .00

 -------------------
 - Thermochemistry -
 -------------------
 Temperature   298.150 Kelvin.  Pressure   1.00000 Atm.
 Atom  1 has atomic number  8 and mass  15.99491
 Atom  2 has atomic number  1 and mass   1.00783
 Atom  3 has atomic number  1 and mass   1.00783
 Molecular mass:    18.01056 amu.
 Principal axes and moments of inertia in atomic units:
                           1         2         3
     EIGENVALUES --     2.55903   4.09844   6.65746
           X             .99966   -.02598    .00000
           Y             .02598    .99966    .00000
           Z             .00000    .00000   1.00000
 This molecule is an asymmetric top.
 Rotational symmetry number  1.
 Rotational temperatures (Kelvin)     33.84638    21.13338    13.01003
 Rotational constants (GHZ):         705.24494   440.34878   271.08541
 Zero-point vibrational energy      64626.5 (Joules/Mol)
                                   15.44610 (Kcal/Mol)
 Vibrational temperatures:   3111.81  6017.50  6416.23
          (Kelvin)
 
 Zero-point correction=                            .024615 (Hartree/Particle)
 Thermal correction to Energy=                     .027448
 Thermal correction to Enthalpy=                   .028392
 Thermal correction to Gibbs Free Energy=          .006236
 Sum of electronic and zero-point Energies=            -74.941181
 Sum of electronic and thermal Energies=               -74.938348
 Sum of electronic and thermal Enthalpies=             -74.937404
 Sum of electronic and thermal Free Energies=          -74.959560
 
                     E (Thermal)             CV                S
                      KCal/Mol        Cal/Mol-Kelvin    Cal/Mol-Kelvin
 Total                   17.224              5.968             46.631
 Electronic                .000               .000               .000
 Translational             .889              2.981             34.608
 Rotational                .889              2.981             12.022
 Vibrational             15.446               .006               .001
                       Q            Log10(Q)             Ln(Q)
 Total Bot        .135378E-02         -2.868453         -6.604858
 Total V=0        .284188E+09          8.453606         19.465148
 Vib (Bot)        .476380E-11        -11.322047        -26.069976
 Vib (V=0)        .100003E+01           .000013           .000029
 Electronic       .100000E+01           .000000           .000000
 Translational    .300432E+07          6.477746         14.915562
 Rotational       .945905E+02          1.975847          4.549557
 ***** Axes restored to original set *****
 -------------------------------------------------------------------
 Center     Atomic                   Forces (Hartrees/Bohr)
 Number     Number              X              Y              Z
 -------------------------------------------------------------------
    1          8           -.009621193     .000000000    -.006735790
    2          1            .009377981     .000000000     .007400137
    3          1            .000243213     .000000000    -.000664348
 -------------------------------------------------------------------
 Cartesian Forces:  Max      .009621193 RMS      .005589149
 ------------------------------------------------------------------------
           Internal Coordinate Forces (Hartree/Bohr or radian)
 Cent Atom N1     Length/X     N2     Alpha/Y      N3      Beta/Z       J
 ------------------------------------------------------------------------
      X 
   1  O     1    .000000(   1)
   2  H     2    .011941(   2)  1   -.000660(   4)
   3  H     2   -.000613(   3)  1   -.000660(   5)  3    .000000(   6)  0
 ------------------------------------------------------------------------
 Internal  Forces:  Max      .011940758 RMS      .004896050

 GradGradGradGradGradGradGradGradGradGradGradGradGradGradGradGradGradGrad
 Berny optimization.
 Search for a local minimum.
 Step number   1 out of a maximum of   2
 All quantities printed in internal units (Hartrees-Bohrs-Radians)
 Second derivative matrix not updated -- analytic derivatives used.
 The second derivative matrix:
                         DO2X1     DH3O2     DH4O2     AH3X1     AH4X1
           DO2X1         .00000
           DH3O2         .00000    .68915
           DH4O2         .00000   -.03110    .65345
           AH3X1         .00000   -.03839   -.03865    .29766
           AH4X1         .00000   -.03839   -.03865    .29766    .29766
           TH3H4         .00000    .00000    .00000    .00000    .00000
                         TH3H4
           TH3H4         .00039
     Eigenvalues ---     .00000    .00000    .00039    .53679    .68624
     Eigenvalues ---     .71488
 Quadratic step=3.484E+00 exceeds max=3.000E-01 adjusted using Lamda=-6.230E-10.
 Angle between NR and scaled steps=   3.02 degrees.
 Angle between quadratic step and forces=  86.71 degrees.
 Linear search not attempted -- first point.
 Variable       Old X    -DE/DX   Delta X   Delta X   Delta X     New X
                                 (Linear)    (Quad)   (Total)
  DO2X1       3.40151    .00000    .00000    .00000    .00000   3.40151
  DH3O2       1.85193    .01194    .00000    .01732    .01732   1.86925
  DH4O2       1.86981   -.00061    .00000   -.00011   -.00011   1.86969
  AH3X1       2.26867   -.00066    .00000    .21195    .21195   2.48062
  AH4X1       2.26867   -.00066    .00000   -.21194   -.21194   2.05673
  TH3H4       3.14159    .00000    .00000    .00000    .00000   3.14159
         Item               Value     Threshold  Converged?
 Maximum Force             .011941      .000450     NO 
 RMS     Force             .004896      .000300     NO 
 Maximum Displacement      .211948      .001800     NO 
 RMS     Displacement      .122571      .001200     NO 
 Predicted change in Energy=-1.034522E-04
 GradGradGradGradGradGradGradGradGradGradGradGradGradGradGradGradGradGrad

 1\1\GINC-RKANTERS-MAC\Freq\RHF\STO-3G\H2O1\RKANTERS\24-Oct-2004\1\\#N 
 HF/STO-3G FREQ\\H2O\\0,1\X\O,1,DO2X1\H,2,DH3O2,1,AH3X1\H,2,DH4O2,1,AH4
 X1,3,TH3H4,0\\DO2X1=1.8\DH3O2=0.98\DH4O2=0.98946\AH3X1=129.98528\AH4X1
 =129.98528\TH3H4=180.\\Version=Mac32-G03RevC.02\State=1-A'\HF=-74.9657
 96\RMSD=1.188e-09\RMSF=5.589e-03\Dipole=0.0023128,0.,0.6750595\DipoleD
 eriv=-0.0348896,0.,0.0030113,0.,-0.5645567,0.,-0.0025465,0.,0.0813612,
 0.017846,0.,-0.1591773,0.,0.2844453,0.,-0.2208193,0.,-0.0406925,0.0170
 437,0.,0.156166,0.,0.2801114,0.,0.2233658,0.,-0.0406687\Polar=5.430731
 8,0.,0.0397405,-0.0446848,0.,2.5355235\PolarDeriv=0.0447362,0.,-0.0001
 496,-2.8306658,0.,0.0062763,0.,0.0192079,0.,0.,-2.0870603,0.,-3.107136
 ,0.,0.0178687,0.0403586,0.,-4.8469329,4.3681983,0.,0.0315365,1.4005966
 ,0.,0.200811,0.,1.8808427,0.,0.,1.0328726,0.,1.555924,0.,-0.0090413,2.
 1820499,0.,2.4003139,-4.4129344,0.,-0.0313869,1.4300692,0.,-0.2070874,
 0.,-1.9000506,0.,0.,1.0541876,0.,1.551212,0.,-0.0088274,-2.2224085,0.,
 2.446619\HyperPolar=-0.0691286,0.,0.001276,0.,6.9213333,0.,-0.0740454,
 -0.0651111,0.,4.0564181\PG=CS [SG(H2O1)]\NImag=0\\0.82257362,0.,-0.005
 66552,0.02042671,0.,0.64506336,-0.42074022,0.,-0.23503369,0.45836105,0
 .,0.00622029,0.,0.,-0.00641372,-0.35751700,0.,-0.32836688,0.29610677,0
 .,0.31112866,-0.40183340,0.,0.21460698,-0.03762083,0.,0.06141023,0.439
 45424,0.,-0.00055477,0.,0.,0.00019343,0.,0.,0.00036134,0.33709029,0.,-
 0.31669648,-0.06107308,0.,0.01723822,-0.27601721,0.,0.29945827\\0.0096
 2119,0.,0.00673579,-0.00937798,0.,-0.00740014,-0.00024321,0.,0.0006643
 5\\\@


 ALL PAPERS THAT YOU SAVE WILL NEVER BE NEEDED UNTIL
 SUCH TIME AS THEY ARE DISPOSED OF, WHEN THEY BECOME
 ESSENTIAL.

           -- JOHN CORCORAN IN
              PAUL DICKSON'S "THE OFFICIAL RULES"
 Job cpu time:  0 days  0 hours  0 minutes  6.1 seconds.
 File lengths (MBytes):  RWF=     11 Int=      0 D2E=      0 Chk=      7 Scr=      1
 Normal termination of Gaussian 03 at Sun Oct 24 10:23:12 2004.
