 Entering Gaussian System, Link 0=g03
 Input=scan2HXc.com
 Output=scan2HXc.log
 Initial command:
 /local/g03/l1.exe /data/rkanters/arch/Gau-2906.inp -scrdir=/data/rkanters/arch/
 Default is to use a total of   2 processors:
                                2 via shared-memory
                                1 via Linda
 Entering Link 1 = /local/g03/l1.exe PID=      2908.
  
 Copyright (c) 1988,1990,1992,1993,1995,1998,2003, Gaussian, Inc.
                  All Rights Reserved.
  
 This is the Gaussian(R) 03 program.  It is based on the
 the Gaussian(R) 98 system (copyright 1998, Gaussian, Inc.),
 the Gaussian(R) 94 system (copyright 1995, Gaussian, Inc.),
 the Gaussian 92(TM) system (copyright 1992, Gaussian, Inc.),
 the Gaussian 90(TM) system (copyright 1990, Gaussian, Inc.),
 the Gaussian 88(TM) system (copyright 1988, Gaussian, Inc.),
 the Gaussian 86(TM) system (copyright 1986, Carnegie Mellon
 University), and the Gaussian 82(TM) system (copyright 1983,
 Carnegie Mellon University). Gaussian is a federally registered
 trademark of Gaussian, Inc.
  
 This software contains proprietary and confidential information,
 including trade secrets, belonging to Gaussian, Inc.
  
 This software is provided under written license and may be
 used, copied, transmitted, or stored only in accord with that
 written license.
  
 The following legend is applicable only to US Government
 contracts under DFARS:
  
                    RESTRICTED RIGHTS LEGEND
  
 Use, duplication or disclosure by the US Government is subject
 to restrictions as set forth in subparagraph (c)(1)(ii) of the
 Rights in Technical Data and Computer Software clause at DFARS
 252.227-7013.
  
 Gaussian, Inc.
 Carnegie Office Park, Building 6, Pittsburgh, PA 15106 USA
  
 The following legend is applicable only to US Government
 contracts under FAR:
  
                    RESTRICTED RIGHTS LEGEND
  
 Use, reproduction and disclosure by the US Government is subject
 to restrictions as set forth in subparagraph (c) of the
 Commercial Computer Software - Restricted Rights clause at FAR
 52.227-19.
  
 Gaussian, Inc.
 Carnegie Office Park, Building 6, Pittsburgh, PA 15106 USA
  
  
 ---------------------------------------------------------------
 Warning -- This program may not be used in any manner that
 competes with the business of Gaussian, Inc. or will provide
 assistance to any competitor of Gaussian, Inc.  The licensee
 of this program is prohibited from giving any competitor of
 Gaussian, Inc. access to this program.  By using this program,
 the user acknowledges that Gaussian, Inc. is engaged in the
 business of creating and licensing software in the field of
 computational chemistry and represents and warrants to the
 licensee that it is not a competitor of Gaussian, Inc. and that
 it will not use this program in any manner prohibited above.
 ---------------------------------------------------------------
  

 Cite this work as:
 Gaussian 03, Revision B.05,
 M. J. Frisch, G. W. Trucks, H. B. Schlegel, G. E. Scuseria, 
 M. A. Robb, J. R. Cheeseman, J. A. Montgomery, Jr., T. Vreven, 
 K. N. Kudin, J. C. Burant, J. M. Millam, S. S. Iyengar, J. Tomasi, 
 V. Barone, B. Mennucci, M. Cossi, G. Scalmani, N. Rega, 
 G. A. Petersson, H. Nakatsuji, M. Hada, M. Ehara, K. Toyota, 
 R. Fukuda, J. Hasegawa, M. Ishida, T. Nakajima, Y. Honda, O. Kitao, 
 H. Nakai, M. Klene, X. Li, J. E. Knox, H. P. Hratchian, J. B. Cross, 
 C. Adamo, J. Jaramillo, R. Gomperts, R. E. Stratmann, O. Yazyev, 
 A. J. Austin, R. Cammi, C. Pomelli, J. W. Ochterski, P. Y. Ayala, 
 K. Morokuma, G. A. Voth, P. Salvador, J. J. Dannenberg, 
 V. G. Zakrzewski, S. Dapprich, A. D. Daniels, M. C. Strain, 
 O. Farkas, D. K. Malick, A. D. Rabuck, K. Raghavachari, 
 J. B. Foresman, J. V. Ortiz, Q. Cui, A. G. Baboul, S. Clifford, 
 J. Cioslowski, B. B. Stefanov, G. Liu, A. Liashenko, P. Piskorz, 
 I. Komaromi, R. L. Martin, D. J. Fox, T. Keith, M. A. Al-Laham, 
 C. Y. Peng, A. Nanayakkara, M. Challacombe, P. M. W. Gill, 
 B. Johnson, W. Chen, M. W. Wong, C. Gonzalez, and J. A. Pople, 
 Gaussian, Inc., Pittsburgh PA, 2003.
 
 ****************************************************
 Gaussian 03:  Sun64-SVR4-Unix-G03RevB.05  8-Nov-2003
                     25-Jul-2004 
 ****************************************************
 %chk=scan2HXc.chk
 -----------------------------------------------------------------
 # opt=z-matrix B3PW91 6-311++G(df,pd) symmetry(pg=cs) IOp(2/16=3)
 -----------------------------------------------------------------
 1/10=7,14=-1,18=40,26=3,38=1/1,3;
 2/16=3,17=6,18=5,19=4851256545958174752,29=3,40=1/2;
 3/5=4,6=6,7=1313,11=2,16=1,25=1,30=1,74=-6/1,2,3;
 4//1;
 5/5=2,38=5/2;
 6/7=2,8=2,9=2,10=2,28=1/1;
 7/29=1/1,2,3,16;
 1/10=7,14=-1,18=40/3(1);
 99//99;
 2/16=3,19=4851256545958174752,29=3/2;
 3/5=4,6=6,7=1313,11=2,16=1,25=1,30=1,74=-6/1,2,3;
 4/5=5,16=3/1;
 5/5=2,38=5/2;
 7//1,2,3,16;
 1/14=-1,18=40/3(-5);
 2/16=3,19=4851256545958174752,29=3/2;
 6/7=2,8=2,9=2,10=2,19=2,28=1/1;
 99/9=1/99;
 ----------------------------------------------------------------------
 Acetylene HBr B3PW91/6-311++G(df,pd) HBr scan in Cs 'pulling' the H to
  X keeping
 ----------------------------------------------------------------------
 Symbolic Z-matrix:
 Charge =  0 Multiplicity = 1
 X
 X                    1     1. 
 C                    2    rc       1     90. 
 C                    2    rc       1     90.      3     180.     0
 H                    2    rh1      1    a1       3     0.       0
 H                    2    rh2      1    a2       3     180.     0
 H                    2    xh       3    a3       1     180.     0
 Br                   2    xbr      3    a4       1     180.     0
       Variables:
  rc                    0.60003                  
  rh1                   1.66512                  
  rh2                   1.66512                  
  xbr                   3.87131                  
  a1                   90.37078                  
  a2                   90.37078                  
  a3                   90.                       
  a4                   90.                       
       Constants:
  xh                    2.47502Scan 11   -0.1    
 

 GradGradGradGradGradGradGradGradGradGradGradGradGradGradGradGradGradGrad
 Berny optimization.
 Initialization pass.
                       ----------------------------
                       !    Initial Parameters    !
                       ! (Angstroms and Degrees)  !
 ----------------------                            ----------------------
 !      Name          Value   Derivative information (Atomic Units)     !
 ------------------------------------------------------------------------
 !       rc          0.6      estimate D2E/DX2                          !
 !       rh1         1.6651   estimate D2E/DX2                          !
 !       rh2         1.6651   estimate D2E/DX2                          !
 !       xbr         3.8713   estimate D2E/DX2                          !
 !       a1         90.3708   estimate D2E/DX2                          !
 !       a2         90.3708   estimate D2E/DX2                          !
 !       a3         90.0      estimate D2E/DX2                          !
 !       a4         90.0      estimate D2E/DX2                          !
 !       xh          2.475    Scan                                      !
 ------------------------------------------------------------------------
 Trust Radius=3.00D-01 FncErr=1.00D-07 GrdErr=1.00D-06
 Number of optimizations in scan=  12
 Number of steps in this run=  20 maximum allowed number of steps= 100.
 GradGradGradGradGradGradGradGradGradGradGradGradGradGradGradGradGradGrad

 ------------------------------------------------------------------------
                         Z-MATRIX (ANGSTROMS AND DEGREES)
 CD Cent Atom  N1     Length/X     N2    Alpha/Y     N3     Beta/Z      J
 ------------------------------------------------------------------------
   1      X 
   2      X     1   1.000000(  1)
   3   1  C     2   0.600028(  2)   1   90.000(  8)
   4   2  C     2   0.600028(  3)   1   90.000(  9)   3  180.000( 14)   0
   5   3  H     2   1.665117(  4)   1   90.371( 10)   3    0.000( 15)   0
   6   4  H     2   1.665117(  5)   1   90.371( 11)   3  180.000( 16)   0
   7   5  H     2   2.475023(  6)   3   90.000( 12)   1  180.000( 17)   0
   8   6  Br    2   3.871312(  7)   3   90.000( 13)   1  180.000( 18)   0
 ------------------------------------------------------------------------
                         Z-Matrix orientation:                         
 ---------------------------------------------------------------------
 Center     Atomic     Atomic              Coordinates (Angstroms)
 Number     Number      Type              X           Y           Z
 ---------------------------------------------------------------------
    1         -1             0        0.000000    0.000000    0.000000
    2         -1             0        0.000000    0.000000    1.000000
    3          6             0        0.600028    0.000000    1.000000
    4          6             0       -0.600028    0.000000    1.000000
    5          1             0        1.665082    0.000000    1.010776
    6          1             0       -1.665082    0.000000    1.010776
    7          1             0        0.000000    0.000000    3.475023
    8         35             0        0.000000    0.000000    4.871312
 ---------------------------------------------------------------------
                    Distance matrix (angstroms):
                    1          2          3          4          5
     1  X    0.000000
     2  X    1.000000   0.000000
     3  C    1.166205   0.600028   0.000000
     4  C    1.166205   0.600028   1.200056   0.000000
     5  H    1.947862   1.665117   1.065109   2.265136   0.000000
     6  H    1.947862   1.665117   2.265136   1.065109   3.330165
     7  H    3.475023   2.475023   2.546718   2.546718   2.974057
     8  Br   4.871312   3.871312   3.917537   3.917537   4.204312
                    6          7          8
     6  H    0.000000
     7  H    2.974057   0.000000
     8  Br   4.204312   1.396289   0.000000
                           Interatomic angles:
       X1-X2-C3= 90.           X1-X2-C4= 90.           C3-X2-C4=180.    
       X1-X2-H5= 90.3708       C3-X2-H5=  0.3708       C4-X2-H5=179.6292
       X1-X2-H6= 90.3708       C3-X2-H6=179.6292       C4-X2-H6=  0.3708
       H5-X2-H6=179.2584       X1-X2-H7=180.           C3-X2-H7= 90.    
       C4-X2-H7= 90.           H5-X2-H7= 89.6292       H6-X2-H7= 89.6292
      X1-X2-Br8=180.          C3-X2-Br8= 90.          C4-X2-Br8= 90.    
      H5-X2-Br8= 89.6292      H6-X2-Br8= 89.6292      H7-X2-Br8=  0.    
 Symm:  InNGrp=CS   InAxis=0.
 Stoichiometry    C2H3Br
 Framework group  CS[SG(HBr),X(C2H2)]
 Deg. of freedom     7
 Full point group                 CS      NOp   2
 Largest Abelian subgroup         CS      NOp   2
 Largest concise Abelian subgroup CS      NOp   2
                         Standard orientation:                         
 ---------------------------------------------------------------------
 Center     Atomic     Atomic              Coordinates (Angstroms)
 Number     Number      Type              X           Y           Z
 ---------------------------------------------------------------------
    1          6             0        0.000000   -2.759850    0.600028
    2          6             0        0.000000   -2.759850   -0.600028
    3          1             0        0.000000   -2.749075    1.665082
    4          1             0        0.000000   -2.749075   -1.665082
    5          1             0        0.000000   -0.284827    0.000000
    6         35             0        0.000000    1.111462    0.000000
 ---------------------------------------------------------------------
 Rotational constants (GHZ):     35.5170355      1.7230956      1.6433682
 Standard basis: 6-311++G(df,pd) (5D, 7F)
 There are    88 symmetry adapted basis functions of A'  symmetry.
 There are    61 symmetry adapted basis functions of A"  symmetry.
 Integral buffers will be    131072 words long.
 Raffenetti 2 integral format.
 Two-electron integral symmetry is turned on.
   149 basis functions,   241 primitive gaussians,   166 cartesian basis functions
    25 alpha electrons       25 beta electrons
       nuclear repulsion energy       106.4565368902 Hartrees.
 NAtoms=    6 NActive=    6 NUniq=    4 SFac= 2.76D+00 NAtFMM=   60 Big=F
 One-electron integrals computed using PRISM.
 NBasis=   149 RedAO= T  NBF=    88    61
 NBsUse=   149 1.00D-06 NBFU=    88    61
 Harris functional with IExCor=  408 diagonalized for initial guess.
 ExpMin= 3.50D-02 ExpMax= 4.40D+05 ExpMxC= 1.51D+04 IAcc=3 IRadAn=         5 AccDes= 0.00D+00
 HarFok:  IExCor= 408 AccDes= 0.00D+00 IRadAn=         5 IDoV=1
 ScaDFX=  1.000000  1.000000  1.000000  1.000000
 Initial guess orbital symmetries:
       Occupied  (A') (A') (A') (A") (A') (A') (A") (A') (A') (A")
                 (A') (A') (A") (A') (A') (A") (A') (A') (A") (A')
                 (A') (A') (A') (A") (A')
       Virtual   (A") (A") (A') (A") (A') (A') (A') (A') (A") (A')
                 (A") (A') (A") (A') (A") (A') (A") (A') (A") (A')
                 (A') (A") (A') (A') (A") (A') (A') (A') (A') (A")
                 (A") (A") (A') (A") (A') (A') (A") (A') (A") (A')
                 (A') (A') (A") (A') (A') (A') (A") (A") (A") (A")
                 (A") (A") (A') (A') (A") (A') (A') (A') (A') (A")
                 (A') (A") (A') (A') (A") (A') (A") (A") (A') (A')
                 (A") (A') (A') (A') (A') (A') (A') (A') (A") (A")
                 (A") (A") (A") (A') (A") (A") (A") (A') (A') (A')
                 (A') (A') (A') (A") (A') (A") (A') (A") (A') (A")
                 (A") (A") (A") (A") (A') (A") (A') (A') (A') (A")
                 (A') (A") (A") (A') (A') (A") (A') (A') (A") (A')
                 (A') (A") (A') (A')
 The electronic state of the initial guess is 1-A'.
 Requested convergence on RMS density matrix=1.00D-08 within 128 cycles.
 Requested convergence on MAX density matrix=1.00D-06.
 Requested convergence on             energy=1.00D-06.
 No special actions if energy rises.
 SCF Done:  E(RB+HF-PW91) =  -2652.06066339     A.U. after   10 cycles
             Convg  =    0.4015D-08             -V/T =  2.0013
             S**2   =   0.0000

 **********************************************************************

            Population analysis using the SCF density.

 **********************************************************************

 Orbital symmetries:
       Occupied  (A') (A') (A') (A") (A') (A') (A") (A') (A') (A")
                 (A') (A') (A") (A') (A") (A') (A') (A') (A") (A')
                 (A') (A') (A') (A") (A')
       Virtual   (A") (A') (A") (A") (A') (A') (A') (A') (A") (A')
                 (A') (A") (A') (A") (A') (A") (A") (A') (A") (A')
                 (A') (A') (A") (A') (A") (A') (A') (A') (A') (A")
                 (A") (A") (A') (A") (A') (A') (A") (A') (A') (A")
                 (A') (A") (A') (A') (A') (A') (A") (A") (A") (A")
                 (A') (A') (A") (A") (A") (A') (A') (A') (A') (A")
                 (A') (A") (A') (A') (A") (A') (A") (A") (A') (A')
                 (A') (A") (A') (A') (A') (A') (A') (A') (A") (A")
                 (A") (A") (A") (A") (A') (A") (A') (A") (A') (A')
                 (A') (A') (A') (A") (A') (A") (A') (A") (A') (A")
                 (A") (A") (A") (A") (A') (A") (A') (A') (A') (A")
                 (A') (A") (A") (A') (A') (A") (A') (A') (A") (A')
                 (A') (A") (A') (A')
 The electronic state is 1-A'.
 Alpha  occ. eigenvalues -- -482.80064 -62.47695 -56.29376 -56.29059 -56.29056
 Alpha  occ. eigenvalues --  -10.19237 -10.18994  -8.69844  -6.52618  -6.51584
 Alpha  occ. eigenvalues --   -6.51574  -2.63492  -2.63138  -2.63131  -2.62311
 Alpha  occ. eigenvalues --   -2.62311  -0.79487  -0.78246  -0.59185  -0.52092
 Alpha  occ. eigenvalues --   -0.44499  -0.32252  -0.32179  -0.30550  -0.30460
 Alpha virt. eigenvalues --   -0.00316  -0.00171   0.00106   0.01357   0.01755
 Alpha virt. eigenvalues --    0.04423   0.05675   0.07195   0.07491   0.07794
 Alpha virt. eigenvalues --    0.08535   0.09985   0.12648   0.12984   0.13568
 Alpha virt. eigenvalues --    0.14154   0.15146   0.18214   0.23831   0.26446
 Alpha virt. eigenvalues --    0.35389   0.41836   0.42276   0.43120   0.43695
 Alpha virt. eigenvalues --    0.47907   0.52353   0.55929   0.56811   0.57515
 Alpha virt. eigenvalues --    0.60280   0.61043   0.61841   0.61956   0.65666
 Alpha virt. eigenvalues --    0.71974   0.72495   0.80258   0.91063   0.95981
 Alpha virt. eigenvalues --    1.01555   1.02944   1.03062   1.13490   1.23037
 Alpha virt. eigenvalues --    1.23043   1.25076   1.41513   1.42289   1.46652
 Alpha virt. eigenvalues --    1.46700   1.49748   1.49761   1.50766   1.50836
 Alpha virt. eigenvalues --    1.51457   1.60743   1.80620   1.80970   1.81508
 Alpha virt. eigenvalues --    1.85484   1.87736   1.92305   1.99278   2.01470
 Alpha virt. eigenvalues --    2.36280   2.39903   2.40098   2.44269   2.46341
 Alpha virt. eigenvalues --    2.49772   2.50374   2.61751   2.62576   2.62809
 Alpha virt. eigenvalues --    2.64143   2.64899   2.75871   2.87639   2.88587
 Alpha virt. eigenvalues --    2.91709   2.91745   2.96964   3.02618   3.02831
 Alpha virt. eigenvalues --    3.03671   3.03743   3.03976   3.36845   3.37478
 Alpha virt. eigenvalues --    3.44126   3.44200   3.52962   3.56990   3.63697
 Alpha virt. eigenvalues --    3.73347   4.14948   4.15205   4.16385   4.17703
 Alpha virt. eigenvalues --    4.18356   4.18375   4.20419   4.20488   4.23146
 Alpha virt. eigenvalues --    4.24090   4.74092   4.95408   4.95461   5.55643
 Alpha virt. eigenvalues --    5.87682   6.39640   6.39683   7.00468   7.53717
 Alpha virt. eigenvalues --    7.54446   7.87972  24.37909  26.54401  48.17629
 Alpha virt. eigenvalues --  289.75991 289.76669 290.019231021.06581
          Condensed to atoms (all electrons):
              1          2          3          4          5          6
     1  C    5.933256  -0.078846   0.350906   0.016306   0.036631  -0.020229
     2  C   -0.078846   5.933256   0.016306   0.350906   0.036631  -0.020229
     3  H    0.350906   0.016306   0.363398   0.000445  -0.002815   0.003145
     4  H    0.016306   0.350906   0.000445   0.363398  -0.002815   0.003145
     5  H    0.036631   0.036631  -0.002815  -0.002815   0.674197   0.238410
     6  Br  -0.020229  -0.020229   0.003145   0.003145   0.238410  34.876706
 Mulliken atomic charges:
              1
     1  C   -0.238024
     2  C   -0.238024
     3  H    0.268616
     4  H    0.268616
     5  H    0.019761
     6  Br  -0.080946
 Sum of Mulliken charges=   0.00000
 Atomic charges with hydrogens summed into heavy atoms:
              1
     1  C    0.030592
     2  C    0.030592
     3  H    0.000000
     4  H    0.000000
     5  H    0.000000
     6  Br  -0.061185
 Sum of Mulliken charges=   0.00000
 Electronic spatial extent (au):  <R**2>=   637.9054
 Charge=     0.0000 electrons
 Dipole moment (field-independent basis, Debye):
    X=     0.0000    Y=    -1.6410    Z=     0.0000  Tot=     1.6410
 Quadrupole moment (field-independent basis, Debye-Ang):
   XX=   -33.5722   YY=   -30.8262   ZZ=   -26.5353
   XY=     0.0000   XZ=     0.0000   YZ=     0.0000
 Traceless Quadrupole moment (field-independent basis, Debye-Ang):
   XX=    -3.2610   YY=    -0.5150   ZZ=     3.7760
   XY=     0.0000   XZ=     0.0000   YZ=     0.0000
 Octapole moment (field-independent basis, Debye-Ang**2):
  XXX=     0.0000  YYY=    50.7718  ZZZ=     0.0000  XYY=     0.0000
  XXY=    16.1507  XXZ=     0.0000  XZZ=     0.0000  YZZ=    -3.1366
  YYZ=     0.0000  XYZ=     0.0000
 Hexadecapole moment (field-independent basis, Debye-Ang**3):
 XXXX=   -41.7899 YYYY=  -764.9539 ZZZZ=   -60.6406 XXXY=     0.0000
 XXXZ=     0.0000 YYYX=     0.0000 YYYZ=     0.0000 ZZZX=     0.0000
 ZZZY=     0.0000 XXYY=  -140.0226 XXZZ=   -20.7442 YYZZ=   -93.4856
 XXYZ=     0.0000 YYXZ=     0.0000 ZZXY=     0.0000
 N-N= 1.064565368902D+02 E-N=-6.546982909978D+03  KE= 2.648717866010D+03
 Symmetry A'   KE= 2.238122127266D+03
 Symmetry A"   KE= 4.105957387438D+02
 ***** Axes restored to original set *****
 -------------------------------------------------------------------
 Center     Atomic                   Forces (Hartrees/Bohr)
 Number     Number              X              Y              Z
 -------------------------------------------------------------------
    1          6          -0.000157760    0.000000000    0.000690922
    2          6           0.000157760    0.000000000    0.000690922
    3          1           0.000000750    0.000000000   -0.000869275
    4          1          -0.000000750    0.000000000   -0.000869275
    5          1           0.000000000    0.000000000   -0.017658976
    6         35           0.000000000    0.000000000    0.018015682
 -------------------------------------------------------------------
 Cartesian Forces:  Max     0.018015682 RMS     0.005957815
 ------------------------------------------------------------------------
           Internal Coordinate Forces (Hartree/Bohr or radian)
 Cent Atom N1     Length/X     N2     Alpha/Y      N3      Beta/Z       J
 ------------------------------------------------------------------------
      X 
      X     1   0.000000(   1)
   1  C     2  -0.000158(   2)  1   0.000783(   8)
   2  C     2  -0.000158(   3)  1   0.000783(   9)  3   0.000000(  14)  0
   3  H     2  -0.000005(   4)  1  -0.002735(  10)  3   0.000000(  15)  0
   4  H     2  -0.000005(   5)  1  -0.002735(  11)  3   0.000000(  16)  0
   5  H     2  -0.017659(   6)  3   0.000000(  12)  1   0.000000(  17)  0
   6  Br    2   0.018016(   7)  3   0.000000(  13)  1   0.000000(  18)  0
 ------------------------------------------------------------------------
 Internal  Forces:  Max     0.018015682 RMS     0.006021464

 GradGradGradGradGradGradGradGradGradGradGradGradGradGradGradGradGradGrad
 Berny optimization.
 Search for a local minimum.
 Step number   1 out of a maximum of  20 on scan point     1 out of    12
 All quantities printed in internal units (Hartrees-Bohrs-Radians)
 Second derivative matrix not updated -- first step.
 The second derivative matrix:
                          rc        rh1       rh2       xbr       a1
           rc           4.94882
           rh1         -0.37853   0.37859
           rh2         -0.37853   0.00000   0.37859
           xbr          0.00000   0.00000   0.00000   0.24270
           a1          -0.00434   0.02470   0.00000   0.00000   9.90044
           a2          -0.00434   0.00000   0.02470   0.00000   0.00000
           a3           0.00000   0.00000   0.00000   0.00000   0.00000
           a4           0.00000   0.00000   0.00000   0.00000   0.00000
           xh           0.00000   0.00000   0.00000  -0.24270   0.00000
                          a2        a3        a4        xh
           a2           9.90044
           a3           0.00000  21.87541
           a4           0.00000   0.00000  53.51976
           xh           0.00000   0.00000   0.00000   0.24270
     Eigenvalues ---    0.24270   0.31666   0.37852   5.01067   9.90051
     Eigenvalues ---    9.90052  21.87541  53.519761000.00000
 RFO step:  Lambda=-1.33152298D-03.
 Linear search not attempted -- first point.
 Variable       Old X    -DE/DX   Delta X   Delta X   Delta X     New X
                                 (Linear)    (Quad)   (Total)
    rc        1.13389  -0.00032   0.00000  -0.00007  -0.00007   1.13381
   rh1        3.14662   0.00000   0.00000  -0.00007  -0.00007   3.14655
   rh2        3.14662   0.00000   0.00000  -0.00007  -0.00007   3.14655
   xbr        7.31572   0.01802   0.00000   0.07382   0.07382   7.38954
    a1        1.57727  -0.00274   0.00000  -0.00028  -0.00028   1.57699
    a2        1.57727  -0.00274   0.00000  -0.00028  -0.00028   1.57699
    a3        1.57080   0.00000   0.00000   0.00000   0.00000   1.57080
    a4        1.57080   0.00000   0.00000   0.00000   0.00000   1.57080
    xh        4.67712  -0.01766   0.00000   0.00000   0.00000   4.67712
         Item               Value     Threshold  Converged?
 Maximum Force            0.018016     0.000450     NO 
 RMS     Force            0.006516     0.000300     NO 
 Maximum Displacement     0.073824     0.001800     NO 
 RMS     Displacement     0.024608     0.001200     NO 
 Predicted change in Energy=-6.693899D-04
 GradGradGradGradGradGradGradGradGradGradGradGradGradGradGradGradGradGrad

 ------------------------------------------------------------------------
                         Z-MATRIX (ANGSTROMS AND DEGREES)
 CD Cent Atom  N1     Length/X     N2    Alpha/Y     N3     Beta/Z      J
 ------------------------------------------------------------------------
   1      X 
   2      X     1   1.000000(  1)
   3   1  C     2   0.599989(  2)   1   90.000(  8)
   4   2  C     2   0.599989(  3)   1   90.000(  9)   3  180.000( 14)   0
   5   3  H     2   1.665080(  4)   1   90.355( 10)   3    0.000( 15)   0
   6   4  H     2   1.665080(  5)   1   90.355( 11)   3  180.000( 16)   0
   7   5  H     2   2.475023(  6)   3   90.000( 12)   1  180.000( 17)   0
   8   6  Br    2   3.910378(  7)   3   90.000( 13)   1  180.000( 18)   0
 ------------------------------------------------------------------------
                         Z-Matrix orientation:                         
 ---------------------------------------------------------------------
 Center     Atomic     Atomic              Coordinates (Angstroms)
 Number     Number      Type              X           Y           Z
 ---------------------------------------------------------------------
    1         -1             0        0.000000    0.000000    0.000000
    2         -1             0        0.000000    0.000000    1.000000
    3          6             0        0.599989    0.000000    1.000000
    4          6             0       -0.599989    0.000000    1.000000
    5          1             0        1.665049    0.000000    1.010316
    6          1             0       -1.665049    0.000000    1.010316
    7          1             0        0.000000    0.000000    3.475023
    8         35             0        0.000000    0.000000    4.910378
 ---------------------------------------------------------------------
                    Distance matrix (angstroms):
                    1          2          3          4          5
     1  X    0.000000
     2  X    1.000000   0.000000
     3  C    1.166185   0.599989   0.000000
     4  C    1.166185   0.599989   1.199977   0.000000
     5  H    1.947595   1.665080   1.065110   2.265061   0.000000
     6  H    1.947595   1.665080   2.265061   1.065110   3.330097
     7  H    3.475023   2.475023   2.546709   2.546709   2.974419
     8  Br   4.910378   3.910378   3.956140   3.956140   4.240622
                    6          7          8
     6  H    0.000000
     7  H    2.974419   0.000000
     8  Br   4.240622   1.435355   0.000000
                           Interatomic angles:
       X1-X2-C3= 90.           X1-X2-C4= 90.           C3-X2-C4=180.    
       X1-X2-H5= 90.355        C3-X2-H5=  0.355        C4-X2-H5=179.645 
       X1-X2-H6= 90.355        C3-X2-H6=179.645        C4-X2-H6=  0.355 
       H5-X2-H6=179.2901       X1-X2-H7=180.           C3-X2-H7= 90.    
       C4-X2-H7= 90.           H5-X2-H7= 89.645        H6-X2-H7= 89.645 
      X1-X2-Br8=180.          C3-X2-Br8= 90.          C4-X2-Br8= 90.    
      H5-X2-Br8= 89.645       H6-X2-Br8= 89.645       H7-X2-Br8=  0.    
 Symm:  InNGrp=CS   InAxis=0.
 Stoichiometry    C2H3Br
 Framework group  CS[SG(HBr),X(C2H2)]
 Deg. of freedom     7
 Full point group                 CS      NOp   2
 Largest Abelian subgroup         CS      NOp   2
 Largest concise Abelian subgroup CS      NOp   2
                         Standard orientation:                         
 ---------------------------------------------------------------------
 Center     Atomic     Atomic              Coordinates (Angstroms)
 Number     Number      Type              X           Y           Z
 ---------------------------------------------------------------------
    1          6             0        0.000000   -2.787178    0.599989
    2          6             0        0.000000   -2.787178   -0.599989
    3          1             0        0.000000   -2.776862    1.665049
    4          1             0        0.000000   -2.776862   -1.665049
    5          1             0        0.000000   -0.312155    0.000000
    6         35             0        0.000000    1.123200    0.000000
 ---------------------------------------------------------------------
 Rotational constants (GHZ):     35.5204500      1.6886736      1.6120359
 Standard basis: 6-311++G(df,pd) (5D, 7F)
 There are    88 symmetry adapted basis functions of A'  symmetry.
 There are    61 symmetry adapted basis functions of A"  symmetry.
 Integral buffers will be    131072 words long.
 Raffenetti 2 integral format.
 Two-electron integral symmetry is turned on.
   149 basis functions,   241 primitive gaussians,   166 cartesian basis functions
    25 alpha electrons       25 beta electrons
       nuclear repulsion energy       105.4675852213 Hartrees.
 NAtoms=    6 NActive=    6 NUniq=    4 SFac= 2.76D+00 NAtFMM=   60 Big=F
 One-electron integrals computed using PRISM.
 NBasis=   149 RedAO= T  NBF=    88    61
 NBsUse=   149 1.00D-06 NBFU=    88    61
 Initial guess read from the read-write file:
 Initial guess orbital symmetries:
       Occupied  (A') (A') (A') (A") (A') (A') (A") (A') (A') (A")
                 (A') (A') (A") (A') (A") (A') (A') (A') (A") (A')
                 (A') (A') (A') (A") (A')
       Virtual   (A") (A') (A") (A") (A') (A') (A') (A') (A") (A')
                 (A') (A") (A') (A") (A') (A") (A") (A') (A") (A')
                 (A') (A') (A") (A') (A") (A') (A') (A') (A') (A")
                 (A") (A") (A') (A") (A') (A') (A") (A') (A') (A")
                 (A') (A") (A') (A') (A') (A') (A") (A") (A") (A")
                 (A') (A') (A") (A") (A") (A') (A') (A') (A') (A")
                 (A') (A") (A') (A') (A") (A') (A") (A") (A') (A')
                 (A') (A") (A') (A') (A') (A') (A') (A') (A") (A")
                 (A") (A") (A") (A") (A') (A") (A') (A") (A') (A')
                 (A') (A') (A') (A") (A') (A") (A') (A") (A') (A")
                 (A") (A") (A") (A") (A') (A") (A') (A') (A') (A")
                 (A') (A") (A") (A') (A') (A") (A') (A') (A") (A')
                 (A') (A") (A') (A')
 Harris functional with IExCor=  408 diagonalized for initial guess.
 ExpMin= 3.50D-02 ExpMax= 4.40D+05 ExpMxC= 1.51D+04 IAcc=3 IRadAn=         5 AccDes= 0.00D+00
 HarFok:  IExCor= 408 AccDes= 0.00D+00 IRadAn=         5 IDoV=1
 ScaDFX=  1.000000  1.000000  1.000000  1.000000
 Requested convergence on RMS density matrix=1.00D-08 within 128 cycles.
 Requested convergence on MAX density matrix=1.00D-06.
 Requested convergence on             energy=1.00D-06.
 No special actions if energy rises.
 SCF Done:  E(RB+HF-PW91) =  -2652.06122427     A.U. after    8 cycles
             Convg  =    0.7811D-08             -V/T =  2.0013
             S**2   =   0.0000
 ***** Axes restored to original set *****
 -------------------------------------------------------------------
 Center     Atomic                   Forces (Hartrees/Bohr)
 Number     Number              X              Y              Z
 -------------------------------------------------------------------
    1          6           0.000213581    0.000000000    0.000901414
    2          6          -0.000213581    0.000000000    0.000901414
    3          1           0.000014420    0.000000000   -0.000868249
    4          1          -0.000014420    0.000000000   -0.000868249
    5          1           0.000000000    0.000000000    0.002009973
    6         35           0.000000000    0.000000000   -0.002076302
 -------------------------------------------------------------------
 Cartesian Forces:  Max     0.002076302 RMS     0.000801924
 ------------------------------------------------------------------------
           Internal Coordinate Forces (Hartree/Bohr or radian)
 Cent Atom N1     Length/X     N2     Alpha/Y      N3      Beta/Z       J
 ------------------------------------------------------------------------
      X 
      X     1   0.000000(   1)
   1  C     2   0.000214(   2)  1   0.001022(   8)
   2  C     2   0.000214(   3)  1   0.001022(   9)  3   0.000000(  14)  0
   3  H     2   0.000009(   4)  1  -0.002732(  10)  3   0.000000(  15)  0
   4  H     2   0.000009(   5)  1  -0.002732(  11)  3   0.000000(  16)  0
   5  H     2   0.002010(   6)  3   0.000000(  12)  1   0.000000(  17)  0
   6  Br    2  -0.002076(   7)  3   0.000000(  13)  1   0.000000(  18)  0
 ------------------------------------------------------------------------
 Internal  Forces:  Max     0.002732215 RMS     0.001189340

 GradGradGradGradGradGradGradGradGradGradGradGradGradGradGradGradGradGrad
 Berny optimization.
 Search for a local minimum.
 Step number   2 out of a maximum of  20 on scan point     1 out of    12
 All quantities printed in internal units (Hartrees-Bohrs-Radians)
 Update second derivatives using D2CorN and points  1  2
 Trust test= 8.38D-01 RLast= 7.38D-02 DXMaxT set to 3.00D-01
 The second derivative matrix:
                          rc        rh1       rh2       xbr       a1
           rc           4.94882
           rh1         -0.37853   0.37859
           rh2         -0.37853   0.00000   0.37859
           xbr         -0.00291  -0.00008  -0.00008   0.27216
           a1          -0.00435   0.02469  -0.00002   0.01845   9.90030
           a2          -0.00435  -0.00002   0.02469   0.01845  -0.00014
           a3           0.00000   0.00000   0.00000   0.00000   0.00000
           a4           0.00000   0.00000   0.00000   0.00000   0.00000
           xh           0.00001   0.00001   0.00001  -0.25457   0.00004
                          a2        a3        a4        xh
           a2           9.90030
           a3           0.00000  21.87541
           a4           0.00000   0.00000  53.51976
           xh           0.00004   0.00000   0.00000   0.24270
     Eigenvalues ---    0.27208   0.31667   0.37852   5.01067   9.90031
     Eigenvalues ---    9.90051  21.87541  53.519761000.00000
 RFO step:  Lambda=-1.54647812D-06.
 Quartic linear search produced a step of -0.11400.
 Variable       Old X    -DE/DX   Delta X   Delta X   Delta X     New X
                                 (Linear)    (Quad)   (Total)
    rc        1.13381   0.00043   0.00001   0.00009   0.00010   1.13391
   rh1        3.14655   0.00001   0.00001   0.00013   0.00013   3.14668
   rh2        3.14655   0.00001   0.00001   0.00013   0.00013   3.14668
   xbr        7.38954  -0.00208  -0.00842  -0.00004  -0.00845   7.38109
    a1        1.57699  -0.00273   0.00003  -0.00028  -0.00024   1.57675
    a2        1.57699  -0.00273   0.00003  -0.00028  -0.00024   1.57675
    a3        1.57080   0.00000   0.00000   0.00000   0.00000   1.57080
    a4        1.57080   0.00000   0.00000   0.00000   0.00000   1.57080
    xh        4.67712   0.00201   0.00000   0.00000   0.00000   4.67712
         Item               Value     Threshold  Converged?
 Maximum Force            0.002732     0.000450     NO 
 RMS     Force            0.001558     0.000300     NO 
 Maximum Displacement     0.008451     0.001800     NO 
 RMS     Displacement     0.002820     0.001200     NO 
 Predicted change in Energy=-8.518543D-06
 GradGradGradGradGradGradGradGradGradGradGradGradGradGradGradGradGradGrad

 ------------------------------------------------------------------------
                         Z-MATRIX (ANGSTROMS AND DEGREES)
 CD Cent Atom  N1     Length/X     N2    Alpha/Y     N3     Beta/Z      J
 ------------------------------------------------------------------------
   1      X 
   2      X     1   1.000000(  1)
   3   1  C     2   0.600040(  2)   1   90.000(  8)
   4   2  C     2   0.600040(  3)   1   90.000(  9)   3  180.000( 14)   0
   5   3  H     2   1.665152(  4)   1   90.341( 10)   3    0.000( 15)   0
   6   4  H     2   1.665152(  5)   1   90.341( 11)   3  180.000( 16)   0
   7   5  H     2   2.475023(  6)   3   90.000( 12)   1  180.000( 17)   0
   8   6  Br    2   3.905906(  7)   3   90.000( 13)   1  180.000( 18)   0
 ------------------------------------------------------------------------
                         Z-Matrix orientation:                         
 ---------------------------------------------------------------------
 Center     Atomic     Atomic              Coordinates (Angstroms)
 Number     Number      Type              X           Y           Z
 ---------------------------------------------------------------------
    1         -1             0        0.000000    0.000000    0.000000
    2         -1             0        0.000000    0.000000    1.000000
    3          6             0        0.600040    0.000000    1.000000
    4          6             0       -0.600040    0.000000    1.000000
    5          1             0        1.665122    0.000000    1.009909
    6          1             0       -1.665122    0.000000    1.009909
    7          1             0        0.000000    0.000000    3.475023
    8         35             0        0.000000    0.000000    4.905906
 ---------------------------------------------------------------------
                    Distance matrix (angstroms):
                    1          2          3          4          5
     1  X    0.000000
     2  X    1.000000   0.000000
     3  C    1.166211   0.600040   0.000000
     4  C    1.166211   0.600040   1.200079   0.000000
     5  H    1.947446   1.665152   1.065128   2.265183   0.000000
     6  H    1.947446   1.665152   2.265183   1.065128   3.330244
     7  H    3.475023   2.475023   2.546721   2.546721   2.974798
     8  Br   4.905906   3.905906   3.951727   3.951727   4.236912
                    6          7          8
     6  H    0.000000
     7  H    2.974798   0.000000
     8  Br   4.236912   1.430883   0.000000
                           Interatomic angles:
       X1-X2-C3= 90.           X1-X2-C4= 90.           C3-X2-C4=180.    
       X1-X2-H5= 90.3409       C3-X2-H5=  0.3409       C4-X2-H5=179.6591
       X1-X2-H6= 90.3409       C3-X2-H6=179.6591       C4-X2-H6=  0.3409
       H5-X2-H6=179.3181       X1-X2-H7=180.           C3-X2-H7= 90.    
       C4-X2-H7= 90.           H5-X2-H7= 89.6591       H6-X2-H7= 89.6591
      X1-X2-Br8=180.          C3-X2-Br8= 90.          C4-X2-Br8= 90.    
      H5-X2-Br8= 89.6591      H6-X2-Br8= 89.6591      H7-X2-Br8=  0.    
 Symm:  InNGrp=CS   InAxis=0.
 Stoichiometry    C2H3Br
 Framework group  CS[SG(HBr),X(C2H2)]
 Deg. of freedom     7
 Full point group                 CS      NOp   2
 Largest Abelian subgroup         CS      NOp   2
 Largest concise Abelian subgroup CS      NOp   2
                         Standard orientation:                         
 ---------------------------------------------------------------------
 Center     Atomic     Atomic              Coordinates (Angstroms)
 Number     Number      Type              X           Y           Z
 ---------------------------------------------------------------------
    1          6             0        0.000000   -2.784031    0.600040
    2          6             0        0.000000   -2.784031   -0.600040
    3          1             0        0.000000   -2.774122    1.665122
    4          1             0        0.000000   -2.774122   -1.665122
    5          1             0        0.000000   -0.309008    0.000000
    6         35             0        0.000000    1.121875    0.000000
 ---------------------------------------------------------------------
 Rotational constants (GHZ):     35.5155432      1.6925312      1.6155409
 Standard basis: 6-311++G(df,pd) (5D, 7F)
 There are    88 symmetry adapted basis functions of A'  symmetry.
 There are    61 symmetry adapted basis functions of A"  symmetry.
 Integral buffers will be    131072 words long.
 Raffenetti 2 integral format.
 Two-electron integral symmetry is turned on.
   149 basis functions,   241 primitive gaussians,   166 cartesian basis functions
    25 alpha electrons       25 beta electrons
       nuclear repulsion energy       105.5766216884 Hartrees.
 NAtoms=    6 NActive=    6 NUniq=    4 SFac= 2.76D+00 NAtFMM=   60 Big=F
 One-electron integrals computed using PRISM.
 NBasis=   149 RedAO= T  NBF=    88    61
 NBsUse=   149 1.00D-06 NBFU=    88    61
 Initial guess read from the read-write file:
 Initial guess orbital symmetries:
       Occupied  (A') (A') (A') (A") (A') (A') (A") (A') (A') (A")
                 (A') (A') (A") (A') (A") (A') (A') (A') (A") (A')
                 (A') (A') (A') (A") (A')
       Virtual   (A') (A") (A") (A") (A') (A') (A') (A') (A") (A')
                 (A') (A") (A') (A") (A') (A") (A") (A') (A") (A')
                 (A') (A') (A") (A') (A") (A') (A') (A') (A') (A")
                 (A") (A") (A') (A") (A') (A') (A") (A') (A') (A")
                 (A') (A") (A') (A') (A') (A') (A") (A") (A") (A")
                 (A') (A') (A") (A") (A") (A') (A') (A') (A') (A")
                 (A') (A") (A') (A') (A") (A') (A") (A") (A') (A')
                 (A") (A') (A') (A') (A') (A') (A') (A') (A") (A")
                 (A") (A") (A") (A") (A') (A') (A") (A") (A') (A')
                 (A') (A') (A') (A") (A') (A") (A') (A") (A') (A")
                 (A") (A") (A") (A") (A') (A") (A') (A') (A') (A")
                 (A') (A") (A") (A') (A') (A") (A') (A') (A") (A')
                 (A') (A") (A') (A')
 Requested convergence on RMS density matrix=1.00D-08 within 128 cycles.
 Requested convergence on MAX density matrix=1.00D-06.
 Requested convergence on             energy=1.00D-06.
 No special actions if energy rises.
 SCF Done:  E(RB+HF-PW91) =  -2652.06123447     A.U. after    7 cycles
             Convg  =    0.5939D-08             -V/T =  2.0013
             S**2   =   0.0000
 ***** Axes restored to original set *****
 -------------------------------------------------------------------
 Center     Atomic                   Forces (Hartrees/Bohr)
 Number     Number              X              Y              Z
 -------------------------------------------------------------------
    1          6          -0.000012319    0.000000000    0.000858304
    2          6           0.000012319    0.000000000    0.000858304
    3          1          -0.000000929    0.000000000   -0.000849471
    4          1           0.000000929    0.000000000   -0.000849471
    5          1           0.000000000    0.000000000   -0.000008645
    6         35           0.000000000    0.000000000   -0.000009020
 -------------------------------------------------------------------
 Cartesian Forces:  Max     0.000858304 RMS     0.000402564
 ------------------------------------------------------------------------
           Internal Coordinate Forces (Hartree/Bohr or radian)
 Cent Atom N1     Length/X     N2     Alpha/Y      N3      Beta/Z       J
 ------------------------------------------------------------------------
      X 
      X     1   0.000000(   1)
   1  C     2  -0.000012(   2)  1   0.000973(   8)
   2  C     2  -0.000012(   3)  1   0.000973(   9)  3   0.000000(  14)  0
   3  H     2  -0.000006(   4)  1  -0.002673(  10)  3   0.000000(  15)  0
   4  H     2  -0.000006(   5)  1  -0.002673(  11)  3   0.000000(  16)  0
   5  H     2  -0.000009(   6)  3   0.000000(  12)  1   0.000000(  17)  0
   6  Br    2  -0.000009(   7)  3   0.000000(  13)  1   0.000000(  18)  0
 ------------------------------------------------------------------------
 Internal  Forces:  Max     0.002672949 RMS     0.000948222

 GradGradGradGradGradGradGradGradGradGradGradGradGradGradGradGradGradGrad
 Berny optimization.
 Search for a local minimum.
 Step number   3 out of a maximum of  20 on scan point     1 out of    12
 All quantities printed in internal units (Hartrees-Bohrs-Radians)
 Update second derivatives using D2CorN and points  1  2  3
 Trust test= 1.20D+00 RLast= 8.46D-03 DXMaxT set to 3.00D-01
 The second derivative matrix:
                          rc        rh1       rh2       xbr       a1
           rc           4.94887
           rh1         -0.37849   0.37860
           rh2         -0.37849   0.00001   0.37860
           xbr         -0.00621  -0.00016  -0.00016   0.24186
           a1          -0.00253   0.02730   0.00260  -0.11566   9.89037
           a2          -0.00253   0.00260   0.02730  -0.11566  -0.01007
           a3           0.00000   0.00000   0.00000   0.00000   0.00000
           a4           0.00000   0.00000   0.00000   0.00000   0.00000
           xh          -0.00012  -0.00018  -0.00018  -0.25060   0.00044
                          a2        a3        a4        xh
           a2           9.89037
           a3           0.00000  21.87541
           a4           0.00000   0.00000  53.51976
           xh           0.00044   0.00000   0.00000   0.24270
     Eigenvalues ---    0.23907   0.31667   0.37852   5.01072   9.88318
     Eigenvalues ---    9.90051  21.87541  53.519761000.00000
 RFO step:  Lambda=-1.47671962D-06.
 Quartic linear search produced a step of  0.07752.
 Variable       Old X    -DE/DX   Delta X   Delta X   Delta X     New X
                                 (Linear)    (Quad)   (Total)
    rc        1.13391  -0.00002   0.00001  -0.00001  -0.00001   1.13390
   rh1        3.14668  -0.00001   0.00001  -0.00001   0.00000   3.14668
   rh2        3.14668  -0.00001   0.00001  -0.00001   0.00000   3.14668
   xbr        7.38109  -0.00001  -0.00066   0.00038  -0.00027   7.38082
    a1        1.57675  -0.00267  -0.00002  -0.00027  -0.00028   1.57646
    a2        1.57675  -0.00267  -0.00002  -0.00027  -0.00028   1.57646
    a3        1.57080   0.00000   0.00000   0.00000   0.00000   1.57080
    a4        1.57080   0.00000   0.00000   0.00000   0.00000   1.57080
    xh        4.67712  -0.00001   0.00000   0.00000   0.00000   4.67712
         Item               Value     Threshold  Converged?
 Maximum Force            0.002673     0.000450     NO 
 RMS     Force            0.001337     0.000300     NO 
 Maximum Displacement     0.000285     0.001800     YES
 RMS     Displacement     0.000162     0.001200     YES
 Predicted change in Energy=-7.326900D-07
 GradGradGradGradGradGradGradGradGradGradGradGradGradGradGradGradGradGrad

 ------------------------------------------------------------------------
                         Z-MATRIX (ANGSTROMS AND DEGREES)
 CD Cent Atom  N1     Length/X     N2    Alpha/Y     N3     Beta/Z      J
 ------------------------------------------------------------------------
   1      X 
   2      X     1   1.000000(  1)
   3   1  C     2   0.600036(  2)   1   90.000(  8)
   4   2  C     2   0.600036(  3)   1   90.000(  9)   3  180.000( 14)   0
   5   3  H     2   1.665151(  4)   1   90.325( 10)   3    0.000( 15)   0
   6   4  H     2   1.665151(  5)   1   90.325( 11)   3  180.000( 16)   0
   7   5  H     2   2.475023(  6)   3   90.000( 12)   1  180.000( 17)   0
   8   6  Br    2   3.905761(  7)   3   90.000( 13)   1  180.000( 18)   0
 ------------------------------------------------------------------------
                         Z-Matrix orientation:                         
 ---------------------------------------------------------------------
 Center     Atomic     Atomic              Coordinates (Angstroms)
 Number     Number      Type              X           Y           Z
 ---------------------------------------------------------------------
    1         -1             0        0.000000    0.000000    0.000000
    2         -1             0        0.000000    0.000000    1.000000
    3          6             0        0.600036    0.000000    1.000000
    4          6             0       -0.600036    0.000000    1.000000
    5          1             0        1.665124    0.000000    1.009435
    6          1             0       -1.665124    0.000000    1.009435
    7          1             0        0.000000    0.000000    3.475023
    8         35             0        0.000000    0.000000    4.905761
 ---------------------------------------------------------------------
                    Distance matrix (angstroms):
                    1          2          3          4          5
     1  X    0.000000
     2  X    1.000000   0.000000
     3  C    1.166209   0.600036   0.000000
     4  C    1.166209   0.600036   1.200073   0.000000
     5  H    1.947202   1.665151   1.065130   2.265180   0.000000
     6  H    1.947202   1.665151   2.265180   1.065130   3.330248
     7  H    3.475023   2.475023   2.546720   2.546720   2.975191
     8  Br   4.905761   3.905761   3.951583   3.951583   4.237215
                    6          7          8
     6  H    0.000000
     7  H    2.975191   0.000000
     8  Br   4.237215   1.430738   0.000000
                           Interatomic angles:
       X1-X2-C3= 90.           X1-X2-C4= 90.           C3-X2-C4=180.    
       X1-X2-H5= 90.3246       C3-X2-H5=  0.3246       C4-X2-H5=179.6754
       X1-X2-H6= 90.3246       C3-X2-H6=179.6754       C4-X2-H6=  0.3246
       H5-X2-H6=179.3507       X1-X2-H7=180.           C3-X2-H7= 90.    
       C4-X2-H7= 90.           H5-X2-H7= 89.6754       H6-X2-H7= 89.6754
      X1-X2-Br8=180.          C3-X2-Br8= 90.          C4-X2-Br8= 90.    
      H5-X2-Br8= 89.6754      H6-X2-Br8= 89.6754      H7-X2-Br8=  0.    
 Symm:  InNGrp=CS   InAxis=0.
 Stoichiometry    C2H3Br
 Framework group  CS[SG(HBr),X(C2H2)]
 Deg. of freedom     7
 Full point group                 CS      NOp   2
 Largest Abelian subgroup         CS      NOp   2
 Largest concise Abelian subgroup CS      NOp   2
                         Standard orientation:                         
 ---------------------------------------------------------------------
 Center     Atomic     Atomic              Coordinates (Angstroms)
 Number     Number      Type              X           Y           Z
 ---------------------------------------------------------------------
    1          6             0        0.000000   -2.783910    0.600036
    2          6             0        0.000000   -2.783910   -0.600036
    3          1             0        0.000000   -2.774476    1.665124
    4          1             0        0.000000   -2.774476   -1.665124
    5          1             0        0.000000   -0.308887    0.000000
    6         35             0        0.000000    1.121850    0.000000
 ---------------------------------------------------------------------
 Rotational constants (GHZ):     35.5157390      1.6926260      1.6156276
 Standard basis: 6-311++G(df,pd) (5D, 7F)
 There are    88 symmetry adapted basis functions of A'  symmetry.
 There are    61 symmetry adapted basis functions of A"  symmetry.
 Integral buffers will be    131072 words long.
 Raffenetti 2 integral format.
 Two-electron integral symmetry is turned on.
   149 basis functions,   241 primitive gaussians,   166 cartesian basis functions
    25 alpha electrons       25 beta electrons
       nuclear repulsion energy       105.5793978406 Hartrees.
 NAtoms=    6 NActive=    6 NUniq=    4 SFac= 2.76D+00 NAtFMM=   60 Big=F
 One-electron integrals computed using PRISM.
 NBasis=   149 RedAO= T  NBF=    88    61
 NBsUse=   149 1.00D-06 NBFU=    88    61
 Initial guess read from the read-write file:
 Initial guess orbital symmetries:
       Occupied  (A') (A') (A') (A") (A') (A') (A") (A') (A') (A")
                 (A') (A') (A") (A') (A") (A') (A') (A') (A") (A')
                 (A') (A') (A') (A") (A')
       Virtual   (A') (A") (A") (A") (A') (A') (A') (A') (A") (A')
                 (A') (A") (A') (A") (A') (A") (A") (A') (A") (A')
                 (A') (A') (A") (A') (A") (A') (A') (A') (A') (A")
                 (A") (A") (A') (A") (A') (A') (A") (A') (A') (A")
                 (A') (A") (A') (A') (A') (A') (A") (A") (A") (A")
                 (A') (A') (A") (A") (A") (A') (A') (A') (A') (A")
                 (A') (A") (A') (A') (A") (A') (A") (A") (A') (A')
                 (A") (A') (A') (A') (A') (A') (A') (A') (A") (A")
                 (A") (A") (A") (A") (A') (A') (A") (A") (A') (A')
                 (A') (A') (A') (A") (A') (A") (A') (A") (A') (A")
                 (A") (A") (A") (A") (A') (A") (A') (A') (A') (A")
                 (A') (A") (A") (A') (A') (A") (A') (A') (A") (A')
                 (A') (A") (A') (A')
 Requested convergence on RMS density matrix=1.00D-08 within 128 cycles.
 Requested convergence on MAX density matrix=1.00D-06.
 Requested convergence on             energy=1.00D-06.
 No special actions if energy rises.
 SCF Done:  E(RB+HF-PW91) =  -2652.06123596     A.U. after    5 cycles
             Convg  =    0.5986D-08             -V/T =  2.0013
             S**2   =   0.0000
 ***** Axes restored to original set *****
 -------------------------------------------------------------------
 Center     Atomic                   Forces (Hartrees/Bohr)
 Number     Number              X              Y              Z
 -------------------------------------------------------------------
    1          6           0.000001132    0.000000000    0.000837988
    2          6          -0.000001132    0.000000000    0.000837988
    3          1          -0.000002683    0.000000000   -0.000829999
    4          1           0.000002683    0.000000000   -0.000829999
    5          1           0.000000000    0.000000000   -0.000075431
    6         35           0.000000000    0.000000000    0.000059453
 -------------------------------------------------------------------
 Cartesian Forces:  Max     0.000837988 RMS     0.000393805
 ------------------------------------------------------------------------
           Internal Coordinate Forces (Hartree/Bohr or radian)
 Cent Atom N1     Length/X     N2     Alpha/Y      N3      Beta/Z       J
 ------------------------------------------------------------------------
      X 
      X     1   0.000000(   1)
   1  C     2   0.000001(   2)  1   0.000950(   8)
   2  C     2   0.000001(   3)  1   0.000950(   9)  3   0.000000(  14)  0
   3  H     2  -0.000007(   4)  1  -0.002612(  10)  3   0.000000(  15)  0
   4  H     2  -0.000007(   5)  1  -0.002612(  11)  3   0.000000(  16)  0
   5  H     2  -0.000075(   6)  3   0.000000(  12)  1   0.000000(  17)  0
   6  Br    2   0.000059(   7)  3   0.000000(  13)  1   0.000000(  18)  0
 ------------------------------------------------------------------------
 Internal  Forces:  Max     0.002611651 RMS     0.000926659

 GradGradGradGradGradGradGradGradGradGradGradGradGradGradGradGradGradGrad
 Berny optimization.
 Search for a local minimum.
 Step number   4 out of a maximum of  20 on scan point     1 out of    12
 All quantities printed in internal units (Hartrees-Bohrs-Radians)
 Update second derivatives using D2CorN and points  1  2  4
 Trust test= 2.04D+00 RLast= 4.87D-04 DXMaxT set to 3.00D-01
 The second derivative matrix:
                          rc        rh1       rh2       xbr       a1
           rc           4.94890
           rh1         -0.37846   0.37863
           rh2         -0.37846   0.00004   0.37863
           xbr         -0.00705  -0.00070  -0.00070   0.24468
           a1           0.00043   0.03180   0.00710  -0.28982   9.85215
           a2           0.00043   0.00710   0.03180  -0.28982  -0.04829
           a3           0.00000   0.00000   0.00000   0.00000   0.00000
           a4           0.00000   0.00000   0.00000   0.00000   0.00000
           xh          -0.00024  -0.00035  -0.00035  -0.24979   0.00120
                          a2        a3        a4        xh
           a2           9.85215
           a3           0.00000  21.87541
           a4           0.00000   0.00000  53.51976
           xh           0.00120   0.00000   0.00000   0.24270
     Eigenvalues ---    0.22713   0.31667   0.37852   5.01075   9.82156
     Eigenvalues ---    9.90051  21.87541  53.519761000.00000
 RFO step:  Lambda=-1.31780616D-05.
 Quartic linear search produced a step of  2.00000.
 Variable       Old X    -DE/DX   Delta X   Delta X   Delta X     New X
                                 (Linear)    (Quad)   (Total)
    rc        1.13390   0.00000  -0.00001   0.00003   0.00002   1.13392
   rh1        3.14668  -0.00001   0.00000   0.00002   0.00002   3.14670
   rh2        3.14668  -0.00001   0.00000   0.00002   0.00002   3.14670
   xbr        7.38082   0.00006  -0.00055   0.00757   0.00702   7.38784
    a1        1.57646  -0.00261  -0.00057   0.00014  -0.00043   1.57603
    a2        1.57646  -0.00261  -0.00057   0.00014  -0.00043   1.57603
    a3        1.57080   0.00000   0.00000   0.00000   0.00000   1.57080
    a4        1.57080   0.00000   0.00000   0.00000   0.00000   1.57080
    xh        4.67712  -0.00008   0.00000   0.00000   0.00000   4.67712
         Item               Value     Threshold  Converged?
 Maximum Force            0.002612     0.000450     NO 
 RMS     Force            0.001306     0.000300     NO 
 Maximum Displacement     0.007017     0.001800     NO 
 RMS     Displacement     0.002348     0.001200     NO 
 Predicted change in Energy=-6.941967D-06
 GradGradGradGradGradGradGradGradGradGradGradGradGradGradGradGradGradGrad

 ------------------------------------------------------------------------
                         Z-MATRIX (ANGSTROMS AND DEGREES)
 CD Cent Atom  N1     Length/X     N2    Alpha/Y     N3     Beta/Z      J
 ------------------------------------------------------------------------
   1      X 
   2      X     1   1.000000(  1)
   3   1  C     2   0.600047(  2)   1   90.000(  8)
   4   2  C     2   0.600047(  3)   1   90.000(  9)   3  180.000( 14)   0
   5   3  H     2   1.665161(  4)   1   90.300( 10)   3    0.000( 15)   0
   6   4  H     2   1.665161(  5)   1   90.300( 11)   3  180.000( 16)   0
   7   5  H     2   2.475023(  6)   3   90.000( 12)   1  180.000( 17)   0
   8   6  Br    2   3.909474(  7)   3   90.000( 13)   1  180.000( 18)   0
 ------------------------------------------------------------------------
                         Z-Matrix orientation:                         
 ---------------------------------------------------------------------
 Center     Atomic     Atomic              Coordinates (Angstroms)
 Number     Number      Type              X           Y           Z
 ---------------------------------------------------------------------
    1         -1             0        0.000000    0.000000    0.000000
    2         -1             0        0.000000    0.000000    1.000000
    3          6             0        0.600047    0.000000    1.000000
    4          6             0       -0.600047    0.000000    1.000000
    5          1             0        1.665138    0.000000    1.008714
    6          1             0       -1.665138    0.000000    1.008714
    7          1             0        0.000000    0.000000    3.475023
    8         35             0        0.000000    0.000000    4.909474
 ---------------------------------------------------------------------
                    Distance matrix (angstroms):
                    1          2          3          4          5
     1  X    0.000000
     2  X    1.000000   0.000000
     3  C    1.166215   0.600047   0.000000
     4  C    1.166215   0.600047   1.200094   0.000000
     5  H    1.946841   1.665161   1.065127   2.265202   0.000000
     6  H    1.946841   1.665161   2.265202   1.065127   3.330277
     7  H    3.475023   2.475023   2.546723   2.546723   2.975797
     8  Br   4.909474   3.909474   3.955255   3.955255   4.241299
                    6          7          8
     6  H    0.000000
     7  H    2.975797   0.000000
     8  Br   4.241299   1.434451   0.000000
                           Interatomic angles:
       X1-X2-C3= 90.           X1-X2-C4= 90.           C3-X2-C4=180.    
       X1-X2-H5= 90.2998       C3-X2-H5=  0.2998       C4-X2-H5=179.7002
       X1-X2-H6= 90.2998       C3-X2-H6=179.7002       C4-X2-H6=  0.2998
       H5-X2-H6=179.4003       X1-X2-H7=180.           C3-X2-H7= 90.    
       C4-X2-H7= 90.           H5-X2-H7= 89.7002       H6-X2-H7= 89.7002
      X1-X2-Br8=180.          C3-X2-Br8= 90.          C4-X2-Br8= 90.    
      H5-X2-Br8= 89.7002      H6-X2-Br8= 89.7002      H7-X2-Br8=  0.    
 Symm:  InNGrp=CS   InAxis=0.
 Stoichiometry    C2H3Br
 Framework group  CS[SG(HBr),X(C2H2)]
 Deg. of freedom     7
 Full point group                 CS      NOp   2
 Largest Abelian subgroup         CS      NOp   2
 Largest concise Abelian subgroup CS      NOp   2
                         Standard orientation:                         
 ---------------------------------------------------------------------
 Center     Atomic     Atomic              Coordinates (Angstroms)
 Number     Number      Type              X           Y           Z
 ---------------------------------------------------------------------
    1          6             0        0.000000   -2.786481    0.600047
    2          6             0        0.000000   -2.786481   -0.600047
    3          1             0        0.000000   -2.777767    1.665138
    4          1             0        0.000000   -2.777767   -1.665138
    5          1             0        0.000000   -0.311458    0.000000
    6         35             0        0.000000    1.122993    0.000000
 ---------------------------------------------------------------------
 Rotational constants (GHZ):     35.5147314      1.6893512      1.6126417
 Standard basis: 6-311++G(df,pd) (5D, 7F)
 There are    88 symmetry adapted basis functions of A'  symmetry.
 There are    61 symmetry adapted basis functions of A"  symmetry.
 Integral buffers will be    131072 words long.
 Raffenetti 2 integral format.
 Two-electron integral symmetry is turned on.
   149 basis functions,   241 primitive gaussians,   166 cartesian basis functions
    25 alpha electrons       25 beta electrons
       nuclear repulsion energy       105.4848850354 Hartrees.
 NAtoms=    6 NActive=    6 NUniq=    4 SFac= 2.76D+00 NAtFMM=   60 Big=F
 One-electron integrals computed using PRISM.
 NBasis=   149 RedAO= T  NBF=    88    61
 NBsUse=   149 1.00D-06 NBFU=    88    61
 Initial guess read from the read-write file:
 Initial guess orbital symmetries:
       Occupied  (A') (A') (A') (A") (A') (A') (A") (A') (A') (A")
                 (A') (A') (A") (A') (A") (A') (A') (A') (A") (A')
                 (A') (A') (A') (A") (A')
       Virtual   (A') (A") (A") (A") (A') (A') (A') (A') (A") (A')
                 (A') (A") (A') (A") (A') (A") (A") (A') (A") (A')
                 (A') (A') (A") (A') (A") (A') (A') (A') (A') (A")
                 (A") (A") (A') (A") (A') (A') (A") (A') (A') (A")
                 (A') (A") (A') (A') (A') (A') (A") (A") (A") (A")
                 (A') (A') (A") (A") (A") (A') (A') (A') (A') (A")
                 (A') (A") (A') (A') (A") (A') (A") (A") (A') (A')
                 (A") (A') (A') (A') (A') (A') (A') (A') (A") (A")
                 (A") (A") (A") (A") (A') (A') (A") (A") (A') (A')
                 (A') (A') (A') (A") (A') (A") (A') (A") (A') (A")
                 (A") (A") (A") (A") (A') (A") (A') (A') (A') (A")
                 (A') (A") (A") (A') (A') (A") (A') (A') (A") (A')
                 (A') (A") (A') (A')
 Requested convergence on RMS density matrix=1.00D-08 within 128 cycles.
 Requested convergence on MAX density matrix=1.00D-06.
 Requested convergence on             energy=1.00D-06.
 No special actions if energy rises.
 SCF Done:  E(RB+HF-PW91) =  -2652.06123254     A.U. after    7 cycles
             Convg  =    0.6347D-08             -V/T =  2.0013
             S**2   =   0.0000
 ***** Axes restored to original set *****
 -------------------------------------------------------------------
 Center     Atomic                   Forces (Hartrees/Bohr)
 Number     Number              X              Y              Z
 -------------------------------------------------------------------
    1          6          -0.000027172    0.000000000    0.000830330
    2          6           0.000027172    0.000000000    0.000830330
    3          1           0.000000240    0.000000000   -0.000802152
    4          1          -0.000000240    0.000000000   -0.000802152
    5          1           0.000000000    0.000000000    0.001604507
    6         35           0.000000000    0.000000000   -0.001660863
 -------------------------------------------------------------------
 Cartesian Forces:  Max     0.001660863 RMS     0.000666674
 ------------------------------------------------------------------------
           Internal Coordinate Forces (Hartree/Bohr or radian)
 Cent Atom N1     Length/X     N2     Alpha/Y      N3      Beta/Z       J
 ------------------------------------------------------------------------
      X 
      X     1   0.000000(   1)
   1  C     2  -0.000027(   2)  1   0.000942(   8)
   2  C     2  -0.000027(   3)  1   0.000942(   9)  3   0.000000(  14)  0
   3  H     2  -0.000004(   4)  1  -0.002524(  10)  3   0.000000(  15)  0
   4  H     2  -0.000004(   5)  1  -0.002524(  11)  3   0.000000(  16)  0
   5  H     2   0.001605(   6)  3   0.000000(  12)  1   0.000000(  17)  0
   6  Br    2  -0.001661(   7)  3   0.000000(  13)  1   0.000000(  18)  0
 ------------------------------------------------------------------------
 Internal  Forces:  Max     0.002524100 RMS     0.001050120

 GradGradGradGradGradGradGradGradGradGradGradGradGradGradGradGradGradGrad
 Berny optimization.
 Search for a local minimum.
 Step number   5 out of a maximum of  20 on scan point     1 out of    12
 All quantities printed in internal units (Hartrees-Bohrs-Radians)
 Update second derivatives using D2CorN and points  1  2  5  4
 Trust test=-4.93D-01 RLast= 7.04D-03 DXMaxT set to 1.50D-01
 The second derivative matrix:
                          rc        rh1       rh2       xbr       a1
           rc           4.94894
           rh1         -0.37841   0.37867
           rh2         -0.37841   0.00008   0.37867
           xbr         -0.00571   0.00053   0.00053   0.20475
           a1           0.00412   0.03682   0.01211   0.12648   9.76112
           a2           0.00412   0.01211   0.03682   0.12648  -0.13932
           a3           0.00000   0.00000   0.00000   0.00000   0.00000
           a4           0.00000   0.00000   0.00000   0.00000   0.00000
           xh          -0.00033  -0.00051  -0.00051  -0.24444   0.00163
                          a2        a3        a4        xh
           a2           9.76112
           a3           0.00000  21.87541
           a4           0.00000   0.00000  53.51976
           xh           0.00163   0.00000   0.00000   0.24270
 Energy Rises -- skip Quadratic search.
 Quartic linear search produced a step of -0.78151.
 Variable       Old X    -DE/DX   Delta X   Delta X   Delta X     New X
                                 (Linear)    (Quad)   (Total)
    rc        1.13392  -0.00005  -0.00002   0.00000  -0.00002   1.13391
   rh1        3.14670   0.00000  -0.00002   0.00000  -0.00002   3.14668
   rh2        3.14670   0.00000  -0.00002   0.00000  -0.00002   3.14668
   xbr        7.38784  -0.00166  -0.00548   0.00000  -0.00548   7.38235
    a1        1.57603  -0.00252   0.00034   0.00000   0.00034   1.57637
    a2        1.57603  -0.00252   0.00034   0.00000   0.00034   1.57637
    a3        1.57080   0.00000   0.00000   0.00000   0.00000   1.57080
    a4        1.57080   0.00000   0.00000   0.00000   0.00000   1.57080
    xh        4.67712   0.00160   0.00000   0.00000   0.00000   4.67712
         Item               Value     Threshold  Converged?
 Maximum Force            0.002524     0.000450     NO 
 RMS     Force            0.001392     0.000300     NO 
 Maximum Displacement     0.005484     0.001800     NO 
 RMS     Displacement     0.001835     0.001200     NO 
 Predicted change in Energy=-2.723468D-07
 GradGradGradGradGradGradGradGradGradGradGradGradGradGradGradGradGradGrad

 ------------------------------------------------------------------------
                         Z-MATRIX (ANGSTROMS AND DEGREES)
 CD Cent Atom  N1     Length/X     N2    Alpha/Y     N3     Beta/Z      J
 ------------------------------------------------------------------------
   1      X 
   2      X     1   1.000000(  1)
   3   1  C     2   0.600039(  2)   1   90.000(  8)
   4   2  C     2   0.600039(  3)   1   90.000(  9)   3  180.000( 14)   0
   5   3  H     2   1.665153(  4)   1   90.319( 10)   3    0.000( 15)   0
   6   4  H     2   1.665153(  5)   1   90.319( 11)   3  180.000( 16)   0
   7   5  H     2   2.475023(  6)   3   90.000( 12)   1  180.000( 17)   0
   8   6  Br    2   3.906572(  7)   3   90.000( 13)   1  180.000( 18)   0
 ------------------------------------------------------------------------
                         Z-Matrix orientation:                         
 ---------------------------------------------------------------------
 Center     Atomic     Atomic              Coordinates (Angstroms)
 Number     Number      Type              X           Y           Z
 ---------------------------------------------------------------------
    1         -1             0        0.000000    0.000000    0.000000
    2         -1             0        0.000000    0.000000    1.000000
    3          6             0        0.600039    0.000000    1.000000
    4          6             0       -0.600039    0.000000    1.000000
    5          1             0        1.665127    0.000000    1.009277
    6          1             0       -1.665127    0.000000    1.009277
    7          1             0        0.000000    0.000000    3.475023
    8         35             0        0.000000    0.000000    4.906572
 ---------------------------------------------------------------------
                    Distance matrix (angstroms):
                    1          2          3          4          5
     1  X    0.000000
     2  X    1.000000   0.000000
     3  C    1.166210   0.600039   0.000000
     4  C    1.166210   0.600039   1.200078   0.000000
     5  H    1.947124   1.665153   1.065129   2.265185   0.000000
     6  H    1.947124   1.665153   2.265185   1.065129   3.330255
     7  H    3.475023   2.475023   2.546721   2.546721   2.975324
     8  Br   4.906572   3.906572   3.952386   3.952386   4.238107
                    6          7          8
     6  H    0.000000
     7  H    2.975324   0.000000
     8  Br   4.238107   1.431549   0.000000
                           Interatomic angles:
       X1-X2-C3= 90.           X1-X2-C4= 90.           C3-X2-C4=180.    
       X1-X2-H5= 90.3192       C3-X2-H5=  0.3192       C4-X2-H5=179.6808
       X1-X2-H6= 90.3192       C3-X2-H6=179.6808       C4-X2-H6=  0.3192
       H5-X2-H6=179.3615       X1-X2-H7=180.           C3-X2-H7= 90.    
       C4-X2-H7= 90.           H5-X2-H7= 89.6808       H6-X2-H7= 89.6808
      X1-X2-Br8=180.          C3-X2-Br8= 90.          C4-X2-Br8= 90.    
      H5-X2-Br8= 89.6808      H6-X2-Br8= 89.6808      H7-X2-Br8=  0.    
 Symm:  InNGrp=CS   InAxis=0.
 Stoichiometry    C2H3Br
 Framework group  CS[SG(HBr),X(C2H2)]
 Deg. of freedom     7
 Full point group                 CS      NOp   2
 Largest Abelian subgroup         CS      NOp   2
 Largest concise Abelian subgroup CS      NOp   2
                         Standard orientation:                         
 ---------------------------------------------------------------------
 Center     Atomic     Atomic              Coordinates (Angstroms)
 Number     Number      Type              X           Y           Z
 ---------------------------------------------------------------------
    1          6             0        0.000000   -2.784472    0.600039
    2          6             0        0.000000   -2.784472   -0.600039
    3          1             0        0.000000   -2.775195    1.665127
    4          1             0        0.000000   -2.775195   -1.665127
    5          1             0        0.000000   -0.309449    0.000000
    6         35             0        0.000000    1.122100    0.000000
 ---------------------------------------------------------------------
 Rotational constants (GHZ):     35.5155184      1.6919097      1.6149745
 Standard basis: 6-311++G(df,pd) (5D, 7F)
 There are    88 symmetry adapted basis functions of A'  symmetry.
 There are    61 symmetry adapted basis functions of A"  symmetry.
 Integral buffers will be    131072 words long.
 Raffenetti 2 integral format.
 Two-electron integral symmetry is turned on.
   149 basis functions,   241 primitive gaussians,   166 cartesian basis functions
    25 alpha electrons       25 beta electrons
       nuclear repulsion energy       105.5587236052 Hartrees.
 NAtoms=    6 NActive=    6 NUniq=    4 SFac= 2.76D+00 NAtFMM=   60 Big=F
 One-electron integrals computed using PRISM.
 NBasis=   149 RedAO= T  NBF=    88    61
 NBsUse=   149 1.00D-06 NBFU=    88    61
 Initial guess read from the read-write file:
 Initial guess orbital symmetries:
       Occupied  (A') (A') (A') (A") (A') (A') (A") (A') (A') (A")
                 (A') (A') (A") (A') (A") (A') (A') (A') (A") (A')
                 (A') (A') (A') (A") (A')
       Virtual   (A') (A") (A") (A") (A') (A') (A') (A') (A") (A')
                 (A') (A") (A') (A") (A') (A") (A") (A') (A") (A')
                 (A') (A') (A") (A') (A") (A') (A') (A') (A') (A")
                 (A") (A") (A') (A") (A') (A') (A") (A') (A') (A")
                 (A') (A") (A') (A') (A') (A') (A") (A") (A") (A")
                 (A') (A') (A") (A") (A") (A') (A') (A') (A') (A")
                 (A') (A") (A') (A') (A") (A') (A") (A") (A') (A')
                 (A") (A') (A') (A') (A') (A') (A') (A') (A") (A")
                 (A") (A") (A") (A") (A') (A') (A") (A") (A') (A')
                 (A') (A') (A') (A") (A') (A") (A') (A") (A') (A")
                 (A") (A") (A") (A") (A') (A") (A') (A') (A') (A")
                 (A') (A") (A") (A') (A') (A") (A') (A') (A") (A')
                 (A') (A") (A') (A')
 Requested convergence on RMS density matrix=1.00D-08 within 128 cycles.
 Requested convergence on MAX density matrix=1.00D-06.
 Requested convergence on             energy=1.00D-06.
 No special actions if energy rises.
 SCF Done:  E(RB+HF-PW91) =  -2652.06123626     A.U. after    7 cycles
             Convg  =    0.4935D-08             -V/T =  2.0013
             S**2   =   0.0000
 ***** Axes restored to original set *****
 -------------------------------------------------------------------
 Center     Atomic                   Forces (Hartrees/Bohr)
 Number     Number              X              Y              Z
 -------------------------------------------------------------------
    1          6          -0.000005072    0.000000000    0.000836316
    2          6           0.000005072    0.000000000    0.000836316
    3          1          -0.000002035    0.000000000   -0.000823919
    4          1           0.000002035    0.000000000   -0.000823919
    5          1           0.000000000    0.000000000    0.000294952
    6         35           0.000000000    0.000000000   -0.000319747
 -------------------------------------------------------------------
 Cartesian Forces:  Max     0.000836316 RMS     0.000404545
 ------------------------------------------------------------------------
           Internal Coordinate Forces (Hartree/Bohr or radian)
 Cent Atom N1     Length/X     N2     Alpha/Y      N3      Beta/Z       J
 ------------------------------------------------------------------------
      X 
      X     1   0.000000(   1)
   1  C     2  -0.000005(   2)  1   0.000948(   8)
   2  C     2  -0.000005(   3)  1   0.000948(   9)  3   0.000000(  14)  0
   3  H     2  -0.000007(   4)  1  -0.002593(  10)  3   0.000000(  15)  0
   4  H     2  -0.000007(   5)  1  -0.002593(  11)  3   0.000000(  16)  0
   5  H     2   0.000295(   6)  3   0.000000(  12)  1   0.000000(  17)  0
   6  Br    2  -0.000320(   7)  3   0.000000(  13)  1   0.000000(  18)  0
 ------------------------------------------------------------------------
 Internal  Forces:  Max     0.002592535 RMS     0.000925876

 GradGradGradGradGradGradGradGradGradGradGradGradGradGradGradGradGradGrad
 Berny optimization.
 Search for a local minimum.
 Step number   6 out of a maximum of  20 on scan point     1 out of    12
 All quantities printed in internal units (Hartrees-Bohrs-Radians)
 Update second derivatives using D2CorN and points  1  2  3  4  6

 The second derivative matrix:
                          rc        rh1       rh2       xbr       a1
           rc           4.94900
           rh1         -0.37834   0.37880
           rh2         -0.37834   0.00021   0.37880
           xbr         -0.00269   0.00584   0.00584   0.36918
           a1           0.00610   0.04561   0.02090   0.73237   8.91696
           a2           0.00610   0.02090   0.04561   0.73237  -0.98348
           a3           0.00000   0.00000   0.00000   0.00000   0.00000
           a4           0.00000   0.00000   0.00000   0.00000   0.00000
           xh          -0.00045  -0.00068  -0.00068  -0.24294   0.00142
                          a2        a3        a4        xh
           a2           8.91696
           a3           0.00000  21.87541
           a4           0.00000   0.00000  53.51976
           xh           0.00142   0.00000   0.00000   0.24270
     Eigenvalues ---    0.22991   0.31662   0.37852   5.01081   8.07332
     Eigenvalues ---    9.90051  21.87541  53.519761000.00000
 RFO step:  Lambda=-1.80375625D-06.
 Quartic linear search produced a step of -0.00003.
 Variable       Old X    -DE/DX   Delta X   Delta X   Delta X     New X
                                 (Linear)    (Quad)   (Total)
    rc        1.13391  -0.00001   0.00000   0.00001   0.00001   1.13392
   rh1        3.14668  -0.00001   0.00000   0.00005   0.00005   3.14673
   rh2        3.14668  -0.00001   0.00000   0.00005   0.00005   3.14673
   xbr        7.38235  -0.00032   0.00000   0.00068   0.00068   7.38303
    a1        1.57637  -0.00259   0.00000  -0.00039  -0.00039   1.57598
    a2        1.57637  -0.00259   0.00000  -0.00039  -0.00039   1.57598
    a3        1.57080   0.00000   0.00000   0.00000   0.00000   1.57080
    a4        1.57080   0.00000   0.00000   0.00000   0.00000   1.57080
    xh        4.67712   0.00029   0.00000   0.00000   0.00000   4.67712
         Item               Value     Threshold  Converged?
 Maximum Force            0.002593     0.000450     NO 
 RMS     Force            0.001301     0.000300     NO 
 Maximum Displacement     0.000679     0.001800     YES
 RMS     Displacement     0.000293     0.001200     YES
 Predicted change in Energy=-9.018711D-07
 GradGradGradGradGradGradGradGradGradGradGradGradGradGradGradGradGradGrad

 ------------------------------------------------------------------------
                         Z-MATRIX (ANGSTROMS AND DEGREES)
 CD Cent Atom  N1     Length/X     N2    Alpha/Y     N3     Beta/Z      J
 ------------------------------------------------------------------------
   1      X 
   2      X     1   1.000000(  1)
   3   1  C     2   0.600042(  2)   1   90.000(  8)
   4   2  C     2   0.600042(  3)   1   90.000(  9)   3  180.000( 14)   0
   5   3  H     2   1.665178(  4)   1   90.297( 10)   3    0.000( 15)   0
   6   4  H     2   1.665178(  5)   1   90.297( 11)   3  180.000( 16)   0
   7   5  H     2   2.475023(  6)   3   90.000( 12)   1  180.000( 17)   0
   8   6  Br    2   3.906932(  7)   3   90.000( 13)   1  180.000( 18)   0
 ------------------------------------------------------------------------
                         Z-Matrix orientation:                         
 ---------------------------------------------------------------------
 Center     Atomic     Atomic              Coordinates (Angstroms)
 Number     Number      Type              X           Y           Z
 ---------------------------------------------------------------------
[...]
                 (A") (A") (A') (A') (A") (A") (A") (A") (A') (A")
                 (A') (A") (A") (A') (A') (A") (A') (A') (A') (A")
                 (A') (A") (A") (A') (A') (A") (A') (A') (A") (A')
                 (A') (A") (A') (A')
 Harris functional with IExCor=  408 diagonalized for initial guess.
 ExpMin= 3.50D-02 ExpMax= 4.40D+05 ExpMxC= 1.51D+04 IAcc=3 IRadAn=         5 AccDes= 0.00D+00
 HarFok:  IExCor= 408 AccDes= 0.00D+00 IRadAn=         5 IDoV=1
 ScaDFX=  1.000000  1.000000  1.000000  1.000000
 Requested convergence on RMS density matrix=1.00D-08 within 128 cycles.
 Requested convergence on MAX density matrix=1.00D-06.
 Requested convergence on             energy=1.00D-06.
 No special actions if energy rises.
 SCF Done:  E(RB+HF-PW91) =  -2652.03002099     A.U. after    8 cycles
             Convg  =    0.4459D-08             -V/T =  2.0012
             S**2   =   0.0000
 ***** Axes restored to original set *****
 -------------------------------------------------------------------
 Center     Atomic                   Forces (Hartrees/Bohr)
 Number     Number              X              Y              Z
 -------------------------------------------------------------------
    1          6          -0.000091446    0.000000000   -0.024249561
    2          6           0.000091446    0.000000000   -0.024249561
    3          1           0.000069719    0.000000000    0.000046767
    4          1          -0.000069719    0.000000000    0.000046767
    5          1           0.000000000    0.000000000    0.048369939
    6         35           0.000000000    0.000000000    0.000035647
 -------------------------------------------------------------------
 Cartesian Forces:  Max     0.048369939 RMS     0.013975704
 ------------------------------------------------------------------------
           Internal Coordinate Forces (Hartree/Bohr or radian)
 Cent Atom N1     Length/X     N2     Alpha/Y      N3      Beta/Z       J
 ------------------------------------------------------------------------
      X 
      X     1   0.000000(   1)
   1  C     2  -0.000091(   2)  1  -0.027595(   8)
   2  C     2  -0.000091(   3)  1  -0.027595(   9)  3   0.000000(  14)  0
   3  H     2   0.000071(   4)  1   0.000143(  10)  3   0.000000(  15)  0
   4  H     2   0.000071(   5)  1   0.000143(  11)  3   0.000000(  16)  0
   5  H     2   0.048370(   6)  3   0.000000(  12)  1   0.000000(  17)  0
   6  Br    2   0.000036(   7)  3   0.000000(  13)  1   0.000000(  18)  0
 ------------------------------------------------------------------------
 Internal  Forces:  Max     0.048369939 RMS     0.014649111

 GradGradGradGradGradGradGradGradGradGradGradGradGradGradGradGradGradGrad
 Berny optimization.
 Search for a local minimum.
 Step number   3 out of a maximum of  20 on scan point    12 out of    12
 All quantities printed in internal units (Hartrees-Bohrs-Radians)
 Update second derivatives using D2CorN and points  1  2  3
 Trust test= 9.34D-01 RLast= 2.05D-02 DXMaxT set to 4.24D-01
 The second derivative matrix:
                          rc        rh1       rh2       xbr       a1
           rc           4.94977
           rh1         -0.37592   0.39623
           rh2         -0.37592   0.01764   0.39623
           xbr         -0.01824  -0.00099  -0.00099   0.11447
           a1          -0.00390   0.00399  -0.02071   0.00390   5.05876
           a2          -0.00390  -0.02071   0.00399   0.00390  -4.84168
           a3           0.00000   0.00000   0.00000   0.00000   0.00000
           a4           0.00000   0.00000   0.00000   0.00000   0.00000
           xh          -0.00073   0.00335   0.00335  -0.04457  -0.01689
                          a2        a3        a4        xh
           a2           5.05876
           a3           0.00000  21.87541
           a4           0.00000   0.00000  53.51976
           xh          -0.01689   0.00000   0.00000   0.24270
     Eigenvalues ---    0.11408   0.21516   0.35463   0.37852   5.01132
     Eigenvalues ---    9.90051  21.87541  53.519761000.00000
 RFO step:  Lambda=-1.93365670D-07.
 Quartic linear search produced a step of -0.02512.
 Variable       Old X    -DE/DX   Delta X   Delta X   Delta X     New X
                                 (Linear)    (Quad)   (Total)
    rc        1.13798  -0.00018   0.00000  -0.00001  -0.00001   1.13797
   rh1        3.15396   0.00007   0.00002   0.00017   0.00019   3.15415
   rh2        3.15396   0.00007   0.00002   0.00017   0.00019   3.15415
   xbr        5.65759   0.00004   0.00051  -0.00025   0.00026   5.65785
    a1        1.59328   0.00014   0.00004   0.00062   0.00066   1.59394
    a2        1.59328   0.00014   0.00004   0.00062   0.00066   1.59394
    a3        1.57080   0.00000   0.00000   0.00000   0.00000   1.57080
    a4        1.57080   0.00000   0.00000   0.00000   0.00000   1.57080
    xh        2.59842   0.04837   0.00000   0.00000   0.00000   2.59842
         Item               Value     Threshold  Converged?
 Maximum Force            0.000183     0.000450     YES
 RMS     Force            0.000103     0.000300     YES
 Maximum Displacement     0.000662     0.001800     YES
 RMS     Displacement     0.000336     0.001200     YES
 Predicted change in Energy=-1.139639D-07
 Optimization completed.
    -- Stationary point found.
                       ----------------------------
                       !   Optimized Parameters   !
                       ! (Angstroms and Degrees)  !
 ----------------------                            ----------------------
 !      Name          Value   Derivative information (Atomic Units)     !
 ------------------------------------------------------------------------
 !       rc          0.6022   -DE/DX =   -0.0002                        !
 !       rh1         1.669    -DE/DX =    0.0001                        !
 !       rh2         1.669    -DE/DX =    0.0001                        !
 !       xbr         2.9939   -DE/DX =    0.0                           !
 !       a1         91.2882   -DE/DX =    0.0001                        !
 !       a2         91.2882   -DE/DX =    0.0001                        !
 !       a3         90.0      -DE/DX =    0.0                           !
 !       a4         90.0      -DE/DX =    0.0                           !
 !       xh          1.375    -DE/DX =    0.0484                        !
 ------------------------------------------------------------------------
 GradGradGradGradGradGradGradGradGradGradGradGradGradGradGradGradGradGrad

 Summary of Optimized Potential Surface Scan
                           1         2         3         4         5
     EIGENVALUES --  **************************************************
           rc           0.60006   0.60006   0.60011   0.60015   0.60020
           rh1          1.66531   1.66514   1.66538   1.66551   1.66567
           rh2          1.66531   1.66514   1.66538   1.66551   1.66567
           xbr          3.90544   3.80866   3.71175   3.61654   3.52300
           a1          89.63278  89.65292  89.66669  89.71688  89.78994
           a2          89.63278  89.65292  89.66669  89.71688  89.78994
           a3          90.00000  90.00000  90.00000  90.00000  90.00000
           a4          90.00000  90.00000  90.00000  90.00000  90.00000
           xh           2.47502   2.37502   2.27502   2.17502   2.07502
                           6         7         8         9        10
     EIGENVALUES --  **************************************************
           rc           0.60026   0.60036   0.60049   0.60070   0.60100
           rh1          1.66585   1.66608   1.66637   1.66674   1.66723
           rh2          1.66585   1.66608   1.66637   1.66674   1.66723
           xbr          3.43163   3.34317   3.25850   3.17865   3.10516
           a1          89.89360  90.03355  90.21295  90.43273  90.68779
           a2          89.89360  90.03355  90.21295  90.43273  90.68779
           a3          90.00000  90.00000  90.00000  90.00000  90.00000
           a4          90.00000  90.00000  90.00000  90.00000  90.00000
           xh           1.97502   1.87502   1.77502   1.67502   1.57502
                          11        12
     EIGENVALUES --  ********************
           rc           0.60147   0.60219
           rh1          1.66793   1.66900
           rh2          1.66793   1.66900
           xbr          3.04142   2.99387
           a1          90.97434  91.28824
           a2          90.97434  91.28824
           a3          90.00000  90.00000
           a4          90.00000  90.00000
           xh           1.47502   1.37502
 ------------------------------------------------------------------------
                         Z-MATRIX (ANGSTROMS AND DEGREES)
 CD Cent Atom  N1     Length/X     N2    Alpha/Y     N3     Beta/Z      J
 ------------------------------------------------------------------------
   1      X 
   2      X     1   1.000000(  1)
   3   1  C     2   0.602191(  2)   1   90.000(  8)
   4   2  C     2   0.602191(  3)   1   90.000(  9)   3  180.000( 14)   0
   5   3  H     2   1.669003(  4)   1   91.288( 10)   3    0.000( 15)   0
   6   4  H     2   1.669003(  5)   1   91.288( 11)   3  180.000( 16)   0
   7   5  H     2   1.375023(  6)   3   90.000( 12)   1  180.000( 17)   0
   8   6  Br    2   2.993867(  7)   3   90.000( 13)   1  180.000( 18)   0
 ------------------------------------------------------------------------
                         Z-Matrix orientation:                         
 ---------------------------------------------------------------------
 Center     Atomic     Atomic              Coordinates (Angstroms)
 Number     Number      Type              X           Y           Z
 ---------------------------------------------------------------------
    1         -1             0        0.000000    0.000000    0.000000
    2         -1             0        0.000000    0.000000    1.000000
    3          6             0        0.602191    0.000000    1.000000
    4          6             0       -0.602191    0.000000    1.000000
    5          1             0        1.668582    0.000000    1.037523
    6          1             0       -1.668582    0.000000    1.037523
    7          1             0        0.000000    0.000000    2.375023
    8         35             0        0.000000    0.000000    3.993867
 ---------------------------------------------------------------------
                    Distance matrix (angstroms):
                    1          2          3          4          5
     1  X    0.000000
     2  X    1.000000   0.000000
     3  C    1.167319   0.602191   0.000000
     4  C    1.167319   0.602191   1.204383   0.000000
     5  H    1.964846   1.669003   1.067050   2.271083   0.000000
     6  H    1.964846   1.669003   2.271083   1.067050   3.337163
     7  H    2.375023   1.375023   1.501107   1.501107   2.138474
     8  Br   3.993867   2.993867   3.053829   3.053829   3.394722
                    6          7          8
     6  H    0.000000
     7  H    2.138474   0.000000
     8  Br   3.394722   1.618844   0.000000
                           Interatomic angles:
       X1-X2-C3= 90.           X1-X2-C4= 90.           C3-X2-C4=180.    
       X1-X2-H5= 91.2882       C3-X2-H5=  1.2882       C4-X2-H5=178.7118
       X1-X2-H6= 91.2882       C3-X2-H6=178.7118       C4-X2-H6=  1.2882
       H5-X2-H6=177.4235       X1-X2-H7=180.           C3-X2-H7= 90.    
       C4-X2-H7= 90.           H5-X2-H7= 88.7118       H6-X2-H7= 88.7118
      X1-X2-Br8=180.          C3-X2-Br8= 90.          C4-X2-Br8= 90.    
      H5-X2-Br8= 88.7118      H6-X2-Br8= 88.7118      H7-X2-Br8=  0.    
 Symm:  InNGrp=CS   InAxis=0.
 Stoichiometry    C2H3Br
 Framework group  CS[SG(HBr),X(C2H2)]
 Deg. of freedom     7
 Full point group                 CS      NOp   2
 Largest Abelian subgroup         CS      NOp   2
 Largest concise Abelian subgroup CS      NOp   2
                         Standard orientation:                         
 ---------------------------------------------------------------------
 Center     Atomic     Atomic              Coordinates (Angstroms)
 Number     Number      Type              X           Y           Z
 ---------------------------------------------------------------------
    1          6             0        0.000000   -2.124708    0.602191
    2          6             0        0.000000   -2.124708   -0.602191
    3          1             0        0.000000   -2.087185    1.668582
    4          1             0        0.000000   -2.087185   -1.668582
    5          1             0        0.000000   -0.749685    0.000000
    6         35             0        0.000000    0.869159    0.000000
 ---------------------------------------------------------------------
 Rotational constants (GHZ):     35.3038409      2.8746898      2.6582372

 **********************************************************************

            Population analysis using the SCF density.

 **********************************************************************

 Orbital symmetries:
       Occupied  (A') (A') (A') (A") (A') (A') (A") (A') (A') (A")
                 (A') (A') (A") (A') (A") (A') (A') (A') (A") (A')
                 (A') (A') (A') (A") (A')
       Virtual   (A") (A") (A') (A") (A') (A') (A') (A') (A") (A")
                 (A') (A') (A") (A') (A') (A") (A") (A') (A") (A')
                 (A') (A") (A') (A') (A") (A') (A') (A") (A') (A")
                 (A') (A') (A') (A") (A") (A') (A") (A') (A") (A')
                 (A') (A') (A') (A") (A") (A') (A") (A") (A') (A")
                 (A') (A") (A') (A") (A") (A') (A') (A') (A') (A")
                 (A') (A") (A') (A') (A") (A') (A') (A") (A") (A')
                 (A") (A') (A') (A') (A') (A') (A") (A') (A") (A")
                 (A") (A") (A") (A') (A") (A') (A') (A') (A') (A')
                 (A") (A") (A') (A') (A") (A") (A") (A") (A') (A")
                 (A') (A") (A") (A') (A') (A") (A') (A') (A') (A")
                 (A') (A") (A") (A') (A') (A") (A') (A') (A") (A')
                 (A') (A") (A') (A')
 The electronic state is 1-A'.
 Alpha  occ. eigenvalues -- -482.74660 -62.42298 -56.23877 -56.23726 -56.23698
 Alpha  occ. eigenvalues --  -10.24750 -10.24515  -8.64413  -6.46851  -6.46365
 Alpha  occ. eigenvalues --   -6.46277  -2.57755  -2.57616  -2.57546  -2.57155
 Alpha  occ. eigenvalues --   -2.57152  -0.86502  -0.72737  -0.63574  -0.56636
 Alpha  occ. eigenvalues --   -0.47450  -0.37448  -0.29005  -0.26652  -0.26186
 Alpha virt. eigenvalues --   -0.04921  -0.03770  -0.00050   0.00458   0.02760
 Alpha virt. eigenvalues --    0.04818   0.05659   0.07401   0.07875   0.08465
 Alpha virt. eigenvalues --    0.08916   0.11305   0.11357   0.12412   0.12602
 Alpha virt. eigenvalues --    0.13335   0.14953   0.18213   0.21823   0.26923
 Alpha virt. eigenvalues --    0.38802   0.40386   0.41853   0.42512   0.45565
 Alpha virt. eigenvalues --    0.49944   0.50430   0.53499   0.54651   0.57016
 Alpha virt. eigenvalues --    0.61959   0.64116   0.65045   0.66237   0.66419
 Alpha virt. eigenvalues --    0.68990   0.72533   0.82838   0.91180   0.93191
 Alpha virt. eigenvalues --    0.93422   0.99162   1.00129   1.00235   1.20512
 Alpha virt. eigenvalues --    1.35009   1.37359   1.39840   1.40217   1.43267
 Alpha virt. eigenvalues --    1.51677   1.52618   1.53895   1.53951   1.56082
 Alpha virt. eigenvalues --    1.62511   1.65951   1.74139   1.75264   1.78120
 Alpha virt. eigenvalues --    1.79338   1.95536   2.02369   2.06413   2.08844
 Alpha virt. eigenvalues --    2.29590   2.33526   2.35090   2.35093   2.41476
 Alpha virt. eigenvalues --    2.47018   2.48963   2.51053   2.58274   2.58911
 Alpha virt. eigenvalues --    2.66825   2.67304   2.76645   2.83633   2.83854
 Alpha virt. eigenvalues --    2.88022   2.89207   2.91452   2.98394   3.07943
 Alpha virt. eigenvalues --    3.12617   3.29538   3.31477   3.38867   3.47622
 Alpha virt. eigenvalues --    3.47726   3.64221   3.65075   3.86827   4.06768
 Alpha virt. eigenvalues --    4.10917   4.11553   4.14862   4.15278   4.18119
 Alpha virt. eigenvalues --    4.20124   4.20434   4.29233   4.35279   4.68386
 Alpha virt. eigenvalues --    4.88732   4.91004   4.95377   5.10469   5.57338
 Alpha virt. eigenvalues --    5.80950   6.34073   6.36853   6.89758   7.59118
 Alpha virt. eigenvalues --    7.60482   7.74619  24.35693  26.52355  48.03515
 Alpha virt. eigenvalues --  289.81852 289.83337 289.945871020.86284
          Condensed to atoms (all electrons):
              1          2          3          4          5          6
     1  C    6.354069  -0.485226   0.354886  -0.012670  -0.025703  -0.072032
     2  C   -0.485226   6.354069  -0.012670   0.354886  -0.025703  -0.072032
     3  H    0.354886  -0.012670   0.344342   0.000849  -0.023482   0.013520
     4  H   -0.012670   0.354886   0.000849   0.344342  -0.023482   0.013520
     5  H   -0.025703  -0.025703  -0.023482  -0.023482   1.038601   0.170701
     6  Br  -0.072032  -0.072032   0.013520   0.013520   0.170701  35.253857
 Mulliken atomic charges:
              1
     1  C   -0.113323
     2  C   -0.113323
     3  H    0.322555
     4  H    0.322555
     5  H   -0.110931
     6  Br  -0.307533
 Sum of Mulliken charges=   0.00000
 Atomic charges with hydrogens summed into heavy atoms:
              1
     1  C    0.098301
     2  C    0.209232
     3  H    0.000000
     4  H    0.000000
     5  H    0.000000
     6  Br  -0.307533
 Sum of Mulliken charges=   0.00000
 Electronic spatial extent (au):  <R**2>=   421.6980
 Charge=     0.0000 electrons
 Dipole moment (field-independent basis, Debye):
    X=     0.0000    Y=    -4.7754    Z=     0.0000  Tot=     4.7754
 Quadrupole moment (field-independent basis, Debye-Ang):
   XX=   -33.7515   YY=   -28.1884   ZZ=   -25.8622
   XY=     0.0000   XZ=     0.0000   YZ=     0.0000
 Traceless Quadrupole moment (field-independent basis, Debye-Ang):
   XX=    -4.4841   YY=     1.0789   ZZ=     3.4052
   XY=     0.0000   XZ=     0.0000   YZ=     0.0000
 Octapole moment (field-independent basis, Debye-Ang**2):
  XXX=     0.0000  YYY=    22.7284  ZZZ=     0.0000  XYY=     0.0000
  XXY=     9.8314  XXZ=     0.0000  XZZ=     0.0000  YZZ=    -6.1831
  YYZ=     0.0000  XYZ=     0.0000
 Hexadecapole moment (field-independent basis, Debye-Ang**3):
 XXXX=   -42.8595 YYYY=  -447.2886 ZZZZ=   -57.8087 XXXY=     0.0000
 XXXZ=     0.0000 YYYX=     0.0000 YYYZ=     0.0000 ZZZX=     0.0000
 ZZZY=     0.0000 XXYY=   -86.9844 XXZZ=   -20.8455 YYZZ=   -59.2267
 XXYZ=     0.0000 YYXZ=     0.0000 ZZXY=     0.0000
 N-N= 1.245802099361D+02 E-N=-6.584360108573D+03  KE= 2.648764805429D+03
 Symmetry A'   KE= 2.238411550265D+03
 Symmetry A"   KE= 4.103532551639D+02

 Test job not archived.
 1\1\GINC-ELIZABETH\Scan\RB3PW91\6-311++G(df,pd)\C2H3Br1\RKANTERS\25-Ju
 l-2004\1\\# OPT=Z-MATRIX B3PW91 6-311++G(DF,PD) SYMMETRY(PG=CS) IOP(2/
 16=3)\\Acetylene HBr B3PW91/6-311++G(df,pd) HBr scan in Cs 'pulling' t
 he H to X keeping\\0,1\X\X,1,1.\C,2,rc,1,90.\C,2,rc,1,90.,3,180.,0\H,2
 ,rh1,1,a1,3,0.,0\H,2,rh2,1,a2,3,180.,0\H,2,xh,3,a3,1,180.,0\Br,2,xbr,3
 ,a4,1,180.,0\\rc=0.60219138\rh1=1.6690034\rh2=1.6690034\xbr=2.99386681
 \a1=91.28824232\a2=91.28824232\a3=90.\a4=90.\xh=1.3750232,s,11,-0.1\\V
 ersion=Sun64-SVR4-Unix-G03RevB.05\State=1-A'\HF=-2652.0612676,-2652.06
 12089,-2652.0609903,-2652.0605408,-2652.0597629,-2652.0585224,-2652.05
 66451,-2652.05392,-2652.0501138,-2652.0449883,-2652.0383307,-2652.0300
 21\RMSD=3.055e-09,6.504e-09,5.568e-09,4.966e-09,4.395e-09,3.876e-09,3.
 402e-09,3.151e-09,3.434e-09,4.578e-09,5.725e-09,4.459e-09\PG=CS [SG(H1
 Br1),X(C2H2)]\\@


 Democracy is the recurrent suspicion that more than half of the people
 are right more than half of the time.
 -- E. B. White
 Job cpu time:  0 days  6 hours 27 minutes 31.8 seconds.
 File lengths (MBytes):  RWF=     26 Int=      0 D2E=      0 Chk=     11 Scr=      1
 Normal termination of Gaussian 03 at Sun Jul 25 21:33:44 2004.
