 Entering Gaussian System, Link 0=g09
 Initial command:
 /usr/local/Cluster-Apps/gaussian/g09/l1.exe "/rds/user/am2145/hpc-work/scratch/16162545/Gau-71157.inp" -scrdir="/rds/user/am2145/hpc-work/scratch/16162545/"
 Entering Link 1 = /usr/local/Cluster-Apps/gaussian/g09/l1.exe PID=     71158.
  
 Copyright (c) 1988,1990,1992,1993,1995,1998,2003,2009,2013,
            Gaussian, Inc.  All Rights Reserved.
  
 This is part of the Gaussian(R) 09 program.  It is based on
 the Gaussian(R) 03 system (copyright 2003, Gaussian, Inc.),
 the Gaussian(R) 98 system (copyright 1998, Gaussian, Inc.),
 the Gaussian(R) 94 system (copyright 1995, Gaussian, Inc.),
 the Gaussian 92(TM) system (copyright 1992, Gaussian, Inc.),
 the Gaussian 90(TM) system (copyright 1990, Gaussian, Inc.),
 the Gaussian 88(TM) system (copyright 1988, Gaussian, Inc.),
 the Gaussian 86(TM) system (copyright 1986, Carnegie Mellon
 University), and the Gaussian 82(TM) system (copyright 1983,
 Carnegie Mellon University). Gaussian is a federally registered
 trademark of Gaussian, Inc.
  
 This software contains proprietary and confidential information,
 including trade secrets, belonging to Gaussian, Inc.
  
 This software is provided under written license and may be
 used, copied, transmitted, or stored only in accord with that
 written license.
  
 The following legend is applicable only to US Government
 contracts under FAR:
  
                    RESTRICTED RIGHTS LEGEND
  
 Use, reproduction and disclosure by the US Government is
 subject to restrictions as set forth in subparagraphs (a)
 and (c) of the Commercial Computer Software - Restricted
 Rights clause in FAR 52.227-19.
  
 Gaussian, Inc.
 340 Quinnipiac St., Bldg. 40, Wallingford CT 06492
  
  
 ---------------------------------------------------------------
 Warning -- This program may not be used in any manner that
 competes with the business of Gaussian, Inc. or will provide
 assistance to any competitor of Gaussian, Inc.  The licensee
 of this program is prohibited from giving any competitor of
 Gaussian, Inc. access to this program.  By using this program,
 the user acknowledges that Gaussian, Inc. is engaged in the
 business of creating and licensing software in the field of
 computational chemistry and represents and warrants to the
 licensee that it is not a competitor of Gaussian, Inc. and that
 it will not use this program in any manner prohibited above.
 ---------------------------------------------------------------
  

 Cite this work as:
 Gaussian 09, Revision D.01,
 M. J. Frisch, G. W. Trucks, H. B. Schlegel, G. E. Scuseria, 
 M. A. Robb, J. R. Cheeseman, G. Scalmani, V. Barone, B. Mennucci, 
 G. A. Petersson, H. Nakatsuji, M. Caricato, X. Li, H. P. Hratchian, 
 A. F. Izmaylov, J. Bloino, G. Zheng, J. L. Sonnenberg, M. Hada, 
 M. Ehara, K. Toyota, R. Fukuda, J. Hasegawa, M. Ishida, T. Nakajima, 
 Y. Honda, O. Kitao, H. Nakai, T. Vreven, J. A. Montgomery, Jr., 
 J. E. Peralta, F. Ogliaro, M. Bearpark, J. J. Heyd, E. Brothers, 
 K. N. Kudin, V. N. Staroverov, T. Keith, R. Kobayashi, J. Normand, 
 K. Raghavachari, A. Rendell, J. C. Burant, S. S. Iyengar, J. Tomasi, 
 M. Cossi, N. Rega, J. M. Millam, M. Klene, J. E. Knox, J. B. Cross, 
 V. Bakken, C. Adamo, J. Jaramillo, R. Gomperts, R. E. Stratmann, 
 O. Yazyev, A. J. Austin, R. Cammi, C. Pomelli, J. W. Ochterski, 
 R. L. Martin, K. Morokuma, V. G. Zakrzewski, G. A. Voth, 
 P. Salvador, J. J. Dannenberg, S. Dapprich, A. D. Daniels, 
 O. Farkas, J. B. Foresman, J. V. Ortiz, J. Cioslowski, 
 and D. J. Fox, Gaussian, Inc., Wallingford CT, 2013.
 
 ******************************************
 Gaussian 09:  ES64L-G09RevD.01 24-Apr-2013
                14-Oct-2019 
 ******************************************
 %NProcShared=16
 Will use up to   16 processors via shared memory.
 %mem=60GB
 %Chk=A2R5H.chk
 ---------------------------------------------
 #n B3LYP/6-311G(d,p) Opt Int=(grid=fine) Freq
 ---------------------------------------------
 1/14=-1,18=20,19=15,26=3,38=1/1,3;
 2/9=110,12=2,17=6,18=5,40=1/2;
 3/5=4,6=6,7=101,11=2,16=1,25=1,30=1,71=1,74=-5,75=-4/1,2,3;
 4//1;
 5/5=2,38=5/2;
 6/7=2,8=2,9=2,10=2,28=1/1;
 7//1,2,3,16;
 1/14=-1,18=20,19=15,26=3/3(2);
 2/9=110/2;
 99//99;
 2/9=110/2;
 3/5=4,6=6,7=101,11=2,16=1,25=1,30=1,71=1,74=-5,75=-4/1,2,3;
 4/5=5,16=3,69=1/1;
 5/5=2,38=5/2;
 7//1,2,3,16;
 1/14=-1,18=20,19=15,26=3/3(-5);
 2/9=110/2;
 6/7=2,8=2,9=2,10=2,19=2,28=1/1;
 99/9=1/99;
 -----
 A2R5H
 -----
 Symbolic Z-matrix:
 Charge =  0 Multiplicity = 2
 C                    -5.7945   -0.90973  -0.13716 
 C                    -4.29255  -1.20248  -0.05475 
 C                    -4.12546  -2.6386   -0.02734 
 C                    -6.48388  -2.24963  -0.14912 
 C                    -5.43835  -3.24367  -0.08142 
 C                    -7.86683  -2.64774  -0.14676 
 C                    -8.1744   -4.08123  -0.10793 
 C                    -5.69409  -4.68473  -0.03881 
 C                    -7.10487  -5.08932  -0.06185 
 C                    -2.9686   -3.50677   0.05301 
 C                    -3.16511  -4.95931   0.0667 
 C                    -4.51032  -5.54559   0.02901 
 H                    -3.50356  -0.47233  -0.00298 
 H                    -1.97039  -3.09222   0.09759 
 H                    -2.3012   -5.61257   0.08452 
 H                    -4.62434  -6.62199   0.03748 
 H                    -7.36517  -6.13834  -0.00109 
 H                    -9.20669  -4.40138  -0.03172 
 H                    -8.66055  -1.91597  -0.08133 
 H                    -6.1077   -0.31683   0.72785 
 H                    -6.01344  -0.35297  -1.05399 
 

 GradGradGradGradGradGradGradGradGradGradGradGradGradGradGradGradGradGrad
 Berny optimization.
 Initialization pass.
                           ----------------------------
                           !    Initial Parameters    !
                           ! (Angstroms and Degrees)  !
 --------------------------                            --------------------------
 ! Name  Definition              Value          Derivative Info.                !
 --------------------------------------------------------------------------------
 ! R1    R(1,2)                  1.5324         estimate D2E/DX2                !
 ! R2    R(1,4)                  1.5069         estimate D2E/DX2                !
 ! R3    R(1,20)                 1.0945         estimate D2E/DX2                !
 ! R4    R(1,21)                 1.0948         estimate D2E/DX2                !
 ! R5    R(2,3)                  1.4461         estimate D2E/DX2                !
 ! R6    R(2,13)                 1.0762         estimate D2E/DX2                !
 ! R7    R(3,5)                  1.4466         estimate D2E/DX2                !
 ! R8    R(3,10)                 1.4486         estimate D2E/DX2                !
 ! R9    R(4,5)                  1.4442         estimate D2E/DX2                !
 ! R10   R(4,6)                  1.4391         estimate D2E/DX2                !
 ! R11   R(5,8)                  1.4642         estimate D2E/DX2                !
 ! R12   R(6,7)                  1.4666         estimate D2E/DX2                !
 ! R13   R(6,19)                 1.0816         estimate D2E/DX2                !
 ! R14   R(7,9)                  1.4705         estimate D2E/DX2                !
 ! R15   R(7,18)                 1.0835         estimate D2E/DX2                !
 ! R16   R(8,9)                  1.4678         estimate D2E/DX2                !
 ! R17   R(8,12)                 1.4653         estimate D2E/DX2                !
 ! R18   R(9,17)                 1.0825         estimate D2E/DX2                !
 ! R19   R(10,11)                1.4658         estimate D2E/DX2                !
 ! R20   R(10,14)                1.0818         estimate D2E/DX2                !
 ! R21   R(11,12)                1.4679         estimate D2E/DX2                !
 ! R22   R(11,15)                1.0832         estimate D2E/DX2                !
 ! R23   R(12,16)                1.0825         estimate D2E/DX2                !
 ! A1    A(2,1,4)              106.1973         estimate D2E/DX2                !
 ! A2    A(2,1,20)             109.9658         estimate D2E/DX2                !
 ! A3    A(2,1,21)             109.7675         estimate D2E/DX2                !
 ! A4    A(4,1,20)             110.9189         estimate D2E/DX2                !
 ! A5    A(4,1,21)             110.7365         estimate D2E/DX2                !
 ! A6    A(20,1,21)            109.2178         estimate D2E/DX2                !
 ! A7    A(1,2,3)              107.6975         estimate D2E/DX2                !
 ! A8    A(1,2,13)             126.2632         estimate D2E/DX2                !
 ! A9    A(3,2,13)             126.0249         estimate D2E/DX2                !
 ! A10   A(2,3,5)              108.0479         estimate D2E/DX2                !
 ! A11   A(2,3,10)             133.5125         estimate D2E/DX2                !
 ! A12   A(5,3,10)             118.4358         estimate D2E/DX2                !
 ! A13   A(1,4,5)              106.2868         estimate D2E/DX2                !
 ! A14   A(1,4,6)              133.2826         estimate D2E/DX2                !
 ! A15   A(5,4,6)              120.3446         estimate D2E/DX2                !
 ! A16   A(3,5,4)              111.7697         estimate D2E/DX2                !
 ! A17   A(3,5,8)              124.6863         estimate D2E/DX2                !
 ! A18   A(4,5,8)              123.5265         estimate D2E/DX2                !
 ! A19   A(4,6,7)              118.1614         estimate D2E/DX2                !
 ! A20   A(4,6,19)             121.2089         estimate D2E/DX2                !
 ! A21   A(7,6,19)             120.3845         estimate D2E/DX2                !
 ! A22   A(6,7,9)              121.2227         estimate D2E/DX2                !
 ! A23   A(6,7,18)             119.3717         estimate D2E/DX2                !
 ! A24   A(9,7,18)             119.2226         estimate D2E/DX2                !
 ! A25   A(5,8,9)              116.0209         estimate D2E/DX2                !
 ! A26   A(5,8,12)             116.0062         estimate D2E/DX2                !
 ! A27   A(9,8,12)             127.9719         estimate D2E/DX2                !
 ! A28   A(7,9,8)              120.7037         estimate D2E/DX2                !
 ! A29   A(7,9,17)             119.4194         estimate D2E/DX2                !
 ! A30   A(8,9,17)             119.8235         estimate D2E/DX2                !
 ! A31   A(3,10,11)            119.1653         estimate D2E/DX2                !
 ! A32   A(3,10,14)            120.632          estimate D2E/DX2                !
 ! A33   A(11,10,14)           120.202          estimate D2E/DX2                !
 ! A34   A(10,11,12)           121.2245         estimate D2E/DX2                !
 ! A35   A(10,11,15)           119.3951         estimate D2E/DX2                !
 ! A36   A(12,11,15)           119.3685         estimate D2E/DX2                !
 ! A37   A(8,12,11)            120.4576         estimate D2E/DX2                !
 ! A38   A(8,12,16)            119.9663         estimate D2E/DX2                !
 ! A39   A(11,12,16)           119.5706         estimate D2E/DX2                !
 ! D1    D(4,1,2,3)              0.2651         estimate D2E/DX2                !
 ! D2    D(4,1,2,13)          -178.4184         estimate D2E/DX2                !
 ! D3    D(20,1,2,3)           120.3385         estimate D2E/DX2                !
 ! D4    D(20,1,2,13)          -58.345          estimate D2E/DX2                !
 ! D5    D(21,1,2,3)          -119.4829         estimate D2E/DX2                !
 ! D6    D(21,1,2,13)           61.8337         estimate D2E/DX2                !
 ! D7    D(2,1,4,5)             -0.1457         estimate D2E/DX2                !
 ! D8    D(2,1,4,6)            176.3646         estimate D2E/DX2                !
 ! D9    D(20,1,4,5)          -119.5979         estimate D2E/DX2                !
 ! D10   D(20,1,4,6)            56.9125         estimate D2E/DX2                !
 ! D11   D(21,1,4,5)           118.9684         estimate D2E/DX2                !
 ! D12   D(21,1,4,6)           -64.5212         estimate D2E/DX2                !
 ! D13   D(1,2,3,5)             -0.2815         estimate D2E/DX2                !
 ! D14   D(1,2,3,10)          -179.5359         estimate D2E/DX2                !
 ! D15   D(13,2,3,5)           178.406          estimate D2E/DX2                !
 ! D16   D(13,2,3,10)           -0.8485         estimate D2E/DX2                !
 ! D17   D(2,3,5,4)              0.1967         estimate D2E/DX2                !
 ! D18   D(2,3,5,8)           -178.327          estimate D2E/DX2                !
 ! D19   D(10,3,5,4)           179.5819         estimate D2E/DX2                !
 ! D20   D(10,3,5,8)             1.0582         estimate D2E/DX2                !
 ! D21   D(2,3,10,11)          179.6405         estimate D2E/DX2                !
 ! D22   D(2,3,10,14)           -0.6586         estimate D2E/DX2                !
 ! D23   D(5,3,10,11)            0.4467         estimate D2E/DX2                !
 ! D24   D(5,3,10,14)         -179.8525         estimate D2E/DX2                !
 ! D25   D(1,4,5,3)             -0.0247         estimate D2E/DX2                !
 ! D26   D(1,4,5,8)            178.5191         estimate D2E/DX2                !
 ! D27   D(6,4,5,3)           -177.0815         estimate D2E/DX2                !
 ! D28   D(6,4,5,8)              1.4623         estimate D2E/DX2                !
 ! D29   D(1,4,6,7)           -177.6163         estimate D2E/DX2                !
 ! D30   D(1,4,6,19)            -3.2858         estimate D2E/DX2                !
 ! D31   D(5,4,6,7)             -1.4982         estimate D2E/DX2                !
 ! D32   D(5,4,6,19)           172.8322         estimate D2E/DX2                !
 ! D33   D(3,5,8,9)            178.0527         estimate D2E/DX2                !
 ! D34   D(3,5,8,12)            -1.6245         estimate D2E/DX2                !
 ! D35   D(4,5,8,9)             -0.3026         estimate D2E/DX2                !
 ! D36   D(4,5,8,12)          -179.9798         estimate D2E/DX2                !
 ! D37   D(4,6,7,9)              0.4748         estimate D2E/DX2                !
 ! D38   D(4,6,7,18)           175.5194         estimate D2E/DX2                !
 ! D39   D(19,6,7,9)          -173.9042         estimate D2E/DX2                !
 ! D40   D(19,6,7,18)            1.1404         estimate D2E/DX2                !
 ! D41   D(6,7,9,8)              0.6656         estimate D2E/DX2                !
 ! D42   D(6,7,9,17)           178.0041         estimate D2E/DX2                !
 ! D43   D(18,7,9,8)          -174.3863         estimate D2E/DX2                !
 ! D44   D(18,7,9,17)            2.9523         estimate D2E/DX2                !
 ! D45   D(5,8,9,7)             -0.7409         estimate D2E/DX2                !
 ! D46   D(5,8,9,17)          -178.0687         estimate D2E/DX2                !
 ! D47   D(12,8,9,7)           178.8911         estimate D2E/DX2                !
 ! D48   D(12,8,9,17)            1.5633         estimate D2E/DX2                !
 ! D49   D(5,8,12,11)            0.7094         estimate D2E/DX2                !
 ! D50   D(5,8,12,16)         -178.4253         estimate D2E/DX2                !
 ! D51   D(9,8,12,11)         -178.9227         estimate D2E/DX2                !
 ! D52   D(9,8,12,16)            1.9427         estimate D2E/DX2                !
 ! D53   D(3,10,11,12)          -1.2976         estimate D2E/DX2                !
 ! D54   D(3,10,11,15)         177.4376         estimate D2E/DX2                !
 ! D55   D(14,10,11,12)        179.0002         estimate D2E/DX2                !
 ! D56   D(14,10,11,15)         -2.2646         estimate D2E/DX2                !
 ! D57   D(10,11,12,8)           0.6944         estimate D2E/DX2                !
 ! D58   D(10,11,12,16)        179.8325         estimate D2E/DX2                !
 ! D59   D(15,11,12,8)        -178.0411         estimate D2E/DX2                !
 ! D60   D(15,11,12,16)          1.097          estimate D2E/DX2                !
 --------------------------------------------------------------------------------
 Trust Radius=3.00D-01 FncErr=1.00D-07 GrdErr=1.00D-06
 Number of steps in this run=    126 maximum allowed number of steps=    126.
 GradGradGradGradGradGradGradGradGradGradGradGradGradGradGradGradGradGrad

                          Input orientation:                          
 ---------------------------------------------------------------------
 Center     Atomic      Atomic             Coordinates (Angstroms)
 Number     Number       Type             X           Y           Z
 ---------------------------------------------------------------------
      1          6           0       -5.794500   -0.909730   -0.137160
      2          6           0       -4.292550   -1.202480   -0.054750
      3          6           0       -4.125460   -2.638600   -0.027340
      4          6           0       -6.483880   -2.249630   -0.149120
      5          6           0       -5.438350   -3.243670   -0.081420
      6          6           0       -7.866830   -2.647740   -0.146760
      7          6           0       -8.174400   -4.081230   -0.107930
      8          6           0       -5.694090   -4.684730   -0.038810
      9          6           0       -7.104870   -5.089320   -0.061850
     10          6           0       -2.968600   -3.506770    0.053010
     11          6           0       -3.165110   -4.959310    0.066700
     12          6           0       -4.510320   -5.545590    0.029010
     13          1           0       -3.503560   -0.472330   -0.002980
     14          1           0       -1.970390   -3.092220    0.097590
     15          1           0       -2.301200   -5.612570    0.084520
     16          1           0       -4.624340   -6.621990    0.037480
     17          1           0       -7.365170   -6.138340   -0.001090
     18          1           0       -9.206690   -4.401380   -0.031720
     19          1           0       -8.660550   -1.915970   -0.081330
     20          1           0       -6.107700   -0.316830    0.727850
     21          1           0       -6.013440   -0.352970   -1.053990
 ---------------------------------------------------------------------
                    Distance matrix (angstroms):
                    1          2          3          4          5
     1  C    0.000000
     2  C    1.532432   0.000000
     3  C    2.405566   1.446067   0.000000
     4  C    1.506891   2.430505   2.393381   0.000000
     5  C    2.361615   2.340945   1.446622   1.444241   0.000000
     6  C    2.704685   3.856517   3.743287   1.439114   2.501383
     7  C    3.965248   4.833093   4.299022   2.492852   2.861499
     8  C    3.777616   3.753749   2.578251   2.562352   1.464197
     9  C    4.380835   4.797574   3.857992   2.908107   2.486784
    10  C    3.842719   2.659738   1.448620   3.738777   2.487360
    11  C    4.832634   3.924238   2.513327   4.289893   2.851838
    12  C    4.813307   4.349373   2.932897   3.845780   2.484405
    13  H    2.336178   1.076245   2.253903   3.473105   3.380812
    14  H    4.409330   2.997791   2.205834   4.598088   3.475878
    15  H    5.862507   4.840843   3.490693   5.372035   3.934582
    16  H    5.833497   5.430440   4.015032   4.755023   3.477038
    17  H    5.461125   5.814343   4.769129   3.990069   3.478247
    18  H    4.883214   5.863639   5.378319   3.472392   3.942480
    19  H    3.038072   4.425969   4.592619   2.203138   3.485019
    20  H    1.094471   2.166012   3.144869   2.155529   3.109556
    21  H    1.094757   2.163703   3.137289   2.153468   3.103670
                    6          7          8          9         10
     6  C    0.000000
     7  C    1.466629   0.000000
     8  C    2.980232   2.553611   0.000000
     9  C    2.559122   1.470464   1.467830   0.000000
    10  C    4.976997   5.239872   2.970575   4.430168   0.000000
    11  C    5.243576   5.088665   2.546030   3.944000   1.465836
    12  C    4.437859   3.948238   1.465261   2.635930   2.556221
    13  H    4.877623   5.903551   4.748054   5.855723   3.081744
    14  H    5.918215   6.285708   4.052238   5.511507   1.081787
    15  H    6.310305   6.072604   3.519631   4.834300   2.209255
    16  H    5.132480   4.368012   2.214308   2.917529   3.527933
    17  H    3.529472   2.213136   2.215155   1.082539   5.124248
    18  H    2.209912   1.083479   3.524017   2.211745   6.302482
    19  H    1.081554   2.219324   4.058044   3.534214   5.911598
    20  H    3.048380   4.374984   4.453919   4.939093   4.526044
    21  H    3.086112   4.411882   4.460574   4.960703   4.521389
                   11         12         13         14         15
    11  C    0.000000
    12  C    1.467901   0.000000
    13  H    4.500266   5.172287   0.000000
    14  H    2.216830   3.531993   3.037194   0.000000
    15  H    1.083239   2.210832   5.279715   2.542001   0.000000
    16  H    2.212399   1.082455   6.251088   4.416598   2.533401
    17  H    4.362936   2.915892   6.856800   6.196147   5.091911
    18  H    6.068085   4.834128   6.925601   7.354907   7.011867
    19  H    6.283605   5.514592   5.355817   6.795132   7.357560
    20  H    5.536116   5.511799   2.709214   5.021688   6.553486
    21  H    5.530578   5.513217   2.723668   5.017557   6.537608
                   16         17         18         19         20
    16  H    0.000000
    17  H    2.783443   0.000000
    18  H    5.092527   2.531633   0.000000
    19  H    6.200946   4.417336   2.545190   0.000000
    20  H    6.513986   6.000214   5.183072   3.119145   0.000000
    21  H    6.513180   6.033762   5.256568   3.224318   1.784697
                   21
    21  H    0.000000
 Stoichiometry    C12H9(2)
 Framework group  C1[X(C12H9)]
 Deg. of freedom    57
 Full point group                 C1      NOp   1
 Largest Abelian subgroup         C1      NOp   1
 Largest concise Abelian subgroup C1      NOp   1
                         Standard orientation:                         
 ---------------------------------------------------------------------
 Center     Atomic      Atomic             Coordinates (Angstroms)
 Number     Number       Type             X           Y           Z
 ---------------------------------------------------------------------
      1          6           0        0.816692    2.350778    0.012291
      2          6           0       -0.715382    2.368815   -0.015461
      3          6           0       -1.171499    0.996645   -0.000699
      4          6           0        1.219590    0.898959    0.037078
      5          6           0       -0.007759    0.137801    0.027747
      6          6           0        2.491884    0.227351    0.001616
      7          6           0        2.500349   -1.239207   -0.009975
      8          6           0       -0.051683   -1.325675    0.014199
      9          6           0        1.247440   -2.008820    0.003410
     10          6           0       -2.482678    0.381147   -0.022416
     11          6           0       -2.585851   -1.080950   -0.004917
     12          6           0       -1.387259   -1.928298    0.005657
     13          1           0       -1.341001    3.243350   -0.061231
     14          1           0       -3.376850    0.989543   -0.046334
     15          1           0       -3.564489   -1.544625    0.021140
     16          1           0       -1.494579   -3.005306    0.021288
     17          1           0        1.286938   -3.089826   -0.038493
     18          1           0        3.442701   -1.764419   -0.110241
     19          1           0        3.414795    0.780617   -0.107442
     20          1           0        1.212496    2.851034   -0.877063
     21          1           0        1.176913    2.868348    0.907196
 ---------------------------------------------------------------------
 Rotational constants (GHZ):      1.4076424      1.1173230      0.6254808
 Standard basis: 6-311G(d,p) (5D, 7F)
 There are   282 symmetry adapted cartesian basis functions of A   symmetry.
 There are   270 symmetry adapted basis functions of A   symmetry.
   270 basis functions,   456 primitive gaussians,   282 cartesian basis functions
    41 alpha electrons       40 beta electrons
       nuclear repulsion energy       605.6875650264 Hartrees.
 NAtoms=   21 NActive=   21 NUniq=   21 SFac= 1.00D+00 NAtFMM=   60 NAOKFM=F Big=F
 Integral buffers will be    131072 words long.
 Raffenetti 2 integral format.
 Two-electron integral symmetry is turned on.
 One-electron integrals computed using PRISM.
 NBasis=   270 RedAO= T EigKep=  1.27D-04  NBF=   270
 NBsUse=   270 1.00D-06 EigRej= -1.00D+00 NBFU=   270
 ExpMin= 1.03D-01 ExpMax= 4.56D+03 ExpMxC= 6.82D+02 IAcc=2 IRadAn=         4 AccDes= 0.00D+00
 Harris functional with IExCor=  402 and IRadAn=       4 diagonalized for initial guess.
 HarFok:  IExCor=  402 AccDes= 0.00D+00 IRadAn=         4 IDoV= 1 UseB2=F ITyADJ=14
 ICtDFT=  3500011 ScaDFX=  1.000000  1.000000  1.000000  1.000000
 FoFCou: FMM=F IPFlag=           0 FMFlag=      100000 FMFlg1=           0
         NFxFlg=           0 DoJE=T BraDBF=F KetDBF=T FulRan=T
         wScrn=  0.000000 ICntrl=     500 IOpCl=  0 I1Cent=   200000004 NGrid=           0
         NMat0=    1 NMatS0=      1 NMatT0=    0 NMatD0=    1 NMtDS0=    0 NMtDT0=    0
 Petite list used in FoFCou.
 Initial guess <Sx>= 0.0000 <Sy>= 0.0000 <Sz>= 0.5000 <S**2>= 0.7500 S= 0.5000
 Keep R1 and R2 ints in memory in canonical form, NReq=1350094996.
 Requested convergence on RMS density matrix=1.00D-08 within 128 cycles.
 Requested convergence on MAX density matrix=1.00D-06.
 Requested convergence on             energy=1.00D-06.
 No special actions if energy rises.
 Integral accuracy reduced to 1.0D-05 until final iterations.
 Initial convergence to 1.0D-05 achieved.  Increase integral accuracy.
 SCF Done:  E(UB3LYP) =  -462.748646433     A.U. after   20 cycles
            NFock= 20  Conv=0.73D-08     -V/T= 2.0072
 <Sx>= 0.0000 <Sy>= 0.0000 <Sz>= 0.5000 <S**2>= 0.8089 S= 0.5290
 <L.S>= 0.000000000000E+00
 Annihilation of the first spin contaminant:
 S**2 before annihilation     0.8089,   after     0.7523

 **********************************************************************

            Population analysis using the SCF density.

 **********************************************************************

 Orbital symmetries:
 Alpha Orbitals:
       Occupied  (A) (A) (A) (A) (A) (A) (A) (A) (A) (A) (A) (A)
                 (A) (A) (A) (A) (A) (A) (A) (A) (A) (A) (A) (A)
                 (A) (A) (A) (A) (A) (A) (A) (A) (A) (A) (A) (A)
                 (A) (A) (A) (A) (A)
       Virtual   (A) (A) (A) (A) (A) (A) (A) (A) (A) (A) (A) (A)
                 (A) (A) (A) (A) (A) (A) (A) (A) (A) (A) (A) (A)
                 (A) (A) (A) (A) (A) (A) (A) (A) (A) (A) (A) (A)
                 (A) (A) (A) (A) (A) (A) (A) (A) (A) (A) (A) (A)
                 (A) (A) (A) (A) (A) (A) (A) (A) (A) (A) (A) (A)
                 (A) (A) (A) (A) (A) (A) (A) (A) (A) (A) (A) (A)
                 (A) (A) (A) (A) (A) (A) (A) (A) (A) (A) (A) (A)
                 (A) (A) (A) (A) (A) (A) (A) (A) (A) (A) (A) (A)
                 (A) (A) (A) (A) (A) (A) (A) (A) (A) (A) (A) (A)
                 (A) (A) (A) (A) (A) (A) (A) (A) (A) (A) (A) (A)
                 (A) (A) (A) (A) (A) (A) (A) (A) (A) (A) (A) (A)
                 (A) (A) (A) (A) (A) (A) (A) (A) (A) (A) (A) (A)
                 (A) (A) (A) (A) (A) (A) (A) (A) (A) (A) (A) (A)
                 (A) (A) (A) (A) (A) (A) (A) (A) (A) (A) (A) (A)
                 (A) (A) (A) (A) (A) (A) (A) (A) (A) (A) (A) (A)
                 (A) (A) (A) (A) (A) (A) (A) (A) (A) (A) (A) (A)
                 (A) (A) (A) (A) (A) (A) (A) (A) (A) (A) (A) (A)
                 (A) (A) (A) (A) (A) (A) (A) (A) (A) (A) (A) (A)
                 (A) (A) (A) (A) (A) (A) (A) (A) (A) (A) (A) (A)
                 (A)
 Beta  Orbitals:
       Occupied  (A) (A) (A) (A) (A) (A) (A) (A) (A) (A) (A) (A)
                 (A) (A) (A) (A) (A) (A) (A) (A) (A) (A) (A) (A)
                 (A) (A) (A) (A) (A) (A) (A) (A) (A) (A) (A) (A)
                 (A) (A) (A) (A)
       Virtual   (A) (A) (A) (A) (A) (A) (A) (A) (A) (A) (A) (A)
                 (A) (A) (A) (A) (A) (A) (A) (A) (A) (A) (A) (A)
                 (A) (A) (A) (A) (A) (A) (A) (A) (A) (A) (A) (A)
                 (A) (A) (A) (A) (A) (A) (A) (A) (A) (A) (A) (A)
                 (A) (A) (A) (A) (A) (A) (A) (A) (A) (A) (A) (A)
                 (A) (A) (A) (A) (A) (A) (A) (A) (A) (A) (A) (A)
                 (A) (A) (A) (A) (A) (A) (A) (A) (A) (A) (A) (A)
                 (A) (A) (A) (A) (A) (A) (A) (A) (A) (A) (A) (A)
                 (A) (A) (A) (A) (A) (A) (A) (A) (A) (A) (A) (A)
                 (A) (A) (A) (A) (A) (A) (A) (A) (A) (A) (A) (A)
                 (A) (A) (A) (A) (A) (A) (A) (A) (A) (A) (A) (A)
                 (A) (A) (A) (A) (A) (A) (A) (A) (A) (A) (A) (A)
                 (A) (A) (A) (A) (A) (A) (A) (A) (A) (A) (A) (A)
                 (A) (A) (A) (A) (A) (A) (A) (A) (A) (A) (A) (A)
                 (A) (A) (A) (A) (A) (A) (A) (A) (A) (A) (A) (A)
                 (A) (A) (A) (A) (A) (A) (A) (A) (A) (A) (A) (A)
                 (A) (A) (A) (A) (A) (A) (A) (A) (A) (A) (A) (A)
                 (A) (A) (A) (A) (A) (A) (A) (A) (A) (A) (A) (A)
                 (A) (A) (A) (A) (A) (A) (A) (A) (A) (A) (A) (A)
                 (A) (A)
 The electronic state is 2-A.
 Alpha  occ. eigenvalues --  -10.19867 -10.19373 -10.19315 -10.19182 -10.19181
 Alpha  occ. eigenvalues --  -10.19154 -10.19152 -10.19115 -10.19087 -10.19060
 Alpha  occ. eigenvalues --  -10.18814 -10.18429  -0.87587  -0.80963  -0.80187
 Alpha  occ. eigenvalues --   -0.73549  -0.72272  -0.70912  -0.64997  -0.61148
 Alpha  occ. eigenvalues --   -0.58627  -0.57115  -0.52051  -0.49474  -0.47626
 Alpha  occ. eigenvalues --   -0.45336  -0.45156  -0.44239  -0.41538  -0.41220
 Alpha  occ. eigenvalues --   -0.39611  -0.37570  -0.37296  -0.36406  -0.33928
 Alpha  occ. eigenvalues --   -0.33617  -0.32405  -0.28955  -0.24943  -0.23582
 Alpha  occ. eigenvalues --   -0.17793
 Alpha virt. eigenvalues --   -0.04080  -0.02728   0.02129   0.05154   0.06115
 Alpha virt. eigenvalues --    0.06421   0.06518   0.07745   0.08223   0.10743
 Alpha virt. eigenvalues --    0.11310   0.11567   0.12982   0.17226   0.17726
 Alpha virt. eigenvalues --    0.18580   0.21116   0.21829   0.24592   0.24926
 Alpha virt. eigenvalues --    0.26405   0.28045   0.29785   0.32836   0.34262
 Alpha virt. eigenvalues --    0.34505   0.36518   0.37706   0.37855   0.39185
 Alpha virt. eigenvalues --    0.39676   0.40718   0.40918   0.41204   0.42005
 Alpha virt. eigenvalues --    0.42362   0.42775   0.43393   0.45056   0.45764
 Alpha virt. eigenvalues --    0.45969   0.49112   0.49243   0.49982   0.51750
 Alpha virt. eigenvalues --    0.52816   0.53012   0.54383   0.55660   0.57461
 Alpha virt. eigenvalues --    0.58312   0.58878   0.59831   0.61108   0.61267
 Alpha virt. eigenvalues --    0.62208   0.62911   0.63348   0.64276   0.64643
 Alpha virt. eigenvalues --    0.68050   0.68648   0.70239   0.71300   0.71976
 Alpha virt. eigenvalues --    0.73914   0.76122   0.78330   0.78576   0.79960
 Alpha virt. eigenvalues --    0.83200   0.84380   0.86114   0.89322   0.91894
 Alpha virt. eigenvalues --    0.92252   0.95322   0.96889   0.98092   0.99550
 Alpha virt. eigenvalues --    1.01470   1.03013   1.04135   1.04842   1.05303
 Alpha virt. eigenvalues --    1.08007   1.08343   1.09047   1.10005   1.12591
 Alpha virt. eigenvalues --    1.14276   1.18280   1.24186   1.27336   1.29014
 Alpha virt. eigenvalues --    1.35561   1.37990   1.38302   1.39340   1.40866
 Alpha virt. eigenvalues --    1.42538   1.45394   1.47107   1.47242   1.47690
 Alpha virt. eigenvalues --    1.49778   1.50901   1.51108   1.52735   1.53963
 Alpha virt. eigenvalues --    1.54419   1.56727   1.57000   1.57955   1.59822
 Alpha virt. eigenvalues --    1.63168   1.65298   1.67093   1.70075   1.73271
 Alpha virt. eigenvalues --    1.73874   1.74197   1.74940   1.77664   1.78122
 Alpha virt. eigenvalues --    1.79432   1.80504   1.81832   1.82716   1.84187
 Alpha virt. eigenvalues --    1.85247   1.86400   1.87480   1.88071   1.90548
 Alpha virt. eigenvalues --    1.93634   1.94395   1.95923   1.97457   1.99660
 Alpha virt. eigenvalues --    2.02309   2.05119   2.05848   2.07132   2.09681
 Alpha virt. eigenvalues --    2.12587   2.13707   2.15331   2.20590   2.21139
 Alpha virt. eigenvalues --    2.22923   2.26876   2.29717   2.32100   2.33560
 Alpha virt. eigenvalues --    2.36263   2.36563   2.38432   2.42646   2.47874
 Alpha virt. eigenvalues --    2.50317   2.52050   2.53381   2.54097   2.57431
 Alpha virt. eigenvalues --    2.58664   2.59676   2.60261   2.60986   2.61549
 Alpha virt. eigenvalues --    2.63033   2.63993   2.65454   2.66385   2.66562
 Alpha virt. eigenvalues --    2.67167   2.70832   2.72384   2.74761   2.75076
 Alpha virt. eigenvalues --    2.76227   2.79231   2.80494   2.83612   2.83775
 Alpha virt. eigenvalues --    2.86902   2.93071   2.94174   2.97976   3.02718
 Alpha virt. eigenvalues --    3.04354   3.06188   3.08685   3.19197   3.21865
 Alpha virt. eigenvalues --    3.24003   3.26105   3.27122   3.30122   3.33026
 Alpha virt. eigenvalues --    3.39365   3.41681   3.44976   3.54447   3.56884
 Alpha virt. eigenvalues --    3.73080   3.78184   3.98559   3.99955   4.01624
 Alpha virt. eigenvalues --    4.05983   4.08889   4.24615   4.30401   4.53357
 Alpha virt. eigenvalues --    4.67839   4.71858  23.43697  23.71689  23.75535
 Alpha virt. eigenvalues --   23.80718  23.82920  23.86338  23.87367  23.89642
 Alpha virt. eigenvalues --   23.91091  23.93723  23.98241  23.99358
  Beta  occ. eigenvalues --  -10.20012 -10.19609 -10.19406 -10.19298 -10.19274
  Beta  occ. eigenvalues --  -10.18917 -10.18894 -10.18854 -10.18831 -10.18657
  Beta  occ. eigenvalues --  -10.18260 -10.18245  -0.87305  -0.80490  -0.79930
  Beta  occ. eigenvalues --   -0.73210  -0.72065  -0.70244  -0.64037  -0.61033
  Beta  occ. eigenvalues --   -0.58273  -0.56679  -0.51793  -0.49303  -0.47463
  Beta  occ. eigenvalues --   -0.44961  -0.44660  -0.44102  -0.41355  -0.41119
  Beta  occ. eigenvalues --   -0.39470  -0.37350  -0.36714  -0.36116  -0.33821
  Beta  occ. eigenvalues --   -0.33512  -0.31537  -0.27719  -0.24180  -0.22133
  Beta virt. eigenvalues --   -0.09188  -0.03141  -0.01999   0.03492   0.05227
  Beta virt. eigenvalues --    0.06206   0.06534   0.07172   0.07976   0.08330
  Beta virt. eigenvalues --    0.10802   0.11529   0.11809   0.13109   0.17690
  Beta virt. eigenvalues --    0.17807   0.18923   0.21125   0.21997   0.24779
  Beta virt. eigenvalues --    0.24980   0.26541   0.28193   0.30131   0.33214
  Beta virt. eigenvalues --    0.34537   0.34720   0.37061   0.37930   0.38227
  Beta virt. eigenvalues --    0.39952   0.40155   0.41049   0.41620   0.41792
  Beta virt. eigenvalues --    0.42191   0.42671   0.42866   0.44870   0.45121
  Beta virt. eigenvalues --    0.46115   0.46774   0.49192   0.49456   0.50129
  Beta virt. eigenvalues --    0.52706   0.53100   0.53999   0.54601   0.55872
  Beta virt. eigenvalues --    0.57431   0.58495   0.59104   0.60017   0.61324
  Beta virt. eigenvalues --    0.61444   0.62340   0.63031   0.63525   0.64457
  Beta virt. eigenvalues --    0.65062   0.68207   0.68804   0.70488   0.71469
  Beta virt. eigenvalues --    0.72257   0.74176   0.76649   0.78487   0.78625
  Beta virt. eigenvalues --    0.80223   0.83281   0.84436   0.86196   0.89485
  Beta virt. eigenvalues --    0.92284   0.92516   0.95828   0.97080   0.98456
  Beta virt. eigenvalues --    0.99965   1.01665   1.03464   1.04492   1.05140
  Beta virt. eigenvalues --    1.05726   1.08347   1.08632   1.09404   1.10214
  Beta virt. eigenvalues --    1.13074   1.14532   1.18593   1.24518   1.27461
  Beta virt. eigenvalues --    1.29267   1.36035   1.38102   1.39268   1.39518
  Beta virt. eigenvalues --    1.40951   1.42593   1.45848   1.47470   1.47681
  Beta virt. eigenvalues --    1.48117   1.49964   1.51324   1.51444   1.52988
  Beta virt. eigenvalues --    1.54181   1.54695   1.57054   1.57500   1.58262
  Beta virt. eigenvalues --    1.59795   1.63193   1.65666   1.67319   1.70394
  Beta virt. eigenvalues --    1.73673   1.74161   1.74620   1.75787   1.78293
  Beta virt. eigenvalues --    1.79025   1.80178   1.81086   1.82097   1.82812
  Beta virt. eigenvalues --    1.84171   1.85360   1.86553   1.87654   1.88363
  Beta virt. eigenvalues --    1.90576   1.93734   1.94718   1.96404   1.97906
  Beta virt. eigenvalues --    2.00038   2.02734   2.05738   2.06204   2.07410
  Beta virt. eigenvalues --    2.09700   2.12870   2.13974   2.15994   2.21102
  Beta virt. eigenvalues --    2.21357   2.23049   2.26964   2.29886   2.32275
  Beta virt. eigenvalues --    2.34121   2.36705   2.36911   2.38717   2.42859
  Beta virt. eigenvalues --    2.48055   2.50908   2.52408   2.53678   2.54375
  Beta virt. eigenvalues --    2.57546   2.58820   2.60027   2.60606   2.61093
  Beta virt. eigenvalues --    2.61621   2.63209   2.64321   2.65559   2.66473
  Beta virt. eigenvalues --    2.67170   2.67442   2.70934   2.72789   2.75141
  Beta virt. eigenvalues --    2.75621   2.76487   2.79439   2.82230   2.83930
  Beta virt. eigenvalues --    2.84044   2.87439   2.93356   2.95241   2.98303
  Beta virt. eigenvalues --    3.02850   3.04486   3.06349   3.08785   3.19319
  Beta virt. eigenvalues --    3.21984   3.24053   3.26168   3.27264   3.30227
  Beta virt. eigenvalues --    3.33177   3.39458   3.41805   3.45052   3.54852
  Beta virt. eigenvalues --    3.57107   3.73326   3.78401   3.98750   4.00037
  Beta virt. eigenvalues --    4.02343   4.06379   4.09135   4.24893   4.30669
  Beta virt. eigenvalues --    4.53804   4.68030   4.71996  23.43749  23.71797
  Beta virt. eigenvalues --   23.75625  23.80884  23.82895  23.86615  23.87611
  Beta virt. eigenvalues --   23.89838  23.91162  23.94008  23.98305  23.99561
          Condensed to atoms (all electrons):
               1          2          3          4          5          6
     1  C    4.818284   0.396420  -0.095647   0.378835  -0.089881  -0.041969
     2  C    0.396420   5.124841   0.496561  -0.087295  -0.067851   0.004497
     3  C   -0.095647   0.496561   4.872352  -0.048968   0.455118   0.008299
     4  C    0.378835  -0.087295  -0.048968   5.033037   0.511197   0.521917
     5  C   -0.089881  -0.067851   0.455118   0.511197   4.986980  -0.051478
     6  C   -0.041969   0.004497   0.008299   0.521917  -0.051478   4.878564
     7  C    0.004248  -0.000339   0.000413  -0.048178  -0.032303   0.482316
     8  C    0.008622   0.007314  -0.050302  -0.048626   0.488755  -0.028243
     9  C   -0.000092  -0.000296   0.007130  -0.034010  -0.049143  -0.047652
    10  C    0.006080  -0.057155   0.477965   0.007054  -0.053475  -0.000323
    11  C   -0.000359   0.004056  -0.048983   0.000328  -0.031351   0.000028
    12  C   -0.000466   0.000008  -0.027297   0.007194  -0.050116  -0.000253
    13  H   -0.032975   0.405185  -0.031118   0.004510   0.007772  -0.000130
    14  H   -0.000182  -0.003717  -0.037982  -0.000415   0.008073   0.000006
    15  H    0.000014  -0.000211   0.006361   0.000005  -0.000152   0.000000
    16  H    0.000018   0.000018  -0.000086  -0.000318   0.007870   0.000029
    17  H    0.000034   0.000012  -0.000302  -0.000130   0.007728   0.005659
    18  H   -0.000242   0.000014   0.000000   0.006272  -0.000047  -0.039607
    19  H   -0.003567   0.000052  -0.000511  -0.040351   0.007188   0.410810
    20  H    0.388690  -0.035793   0.002460  -0.033974   0.003008  -0.002627
    21  H    0.388148  -0.036231   0.002020  -0.033506   0.003338  -0.002960
               7          8          9         10         11         12
     1  C    0.004248   0.008622  -0.000092   0.006080  -0.000359  -0.000466
     2  C   -0.000339   0.007314  -0.000296  -0.057155   0.004056   0.000008
     3  C    0.000413  -0.050302   0.007130   0.477965  -0.048983  -0.027297
     4  C   -0.048178  -0.048626  -0.034010   0.007054   0.000328   0.007194
     5  C   -0.032303   0.488755  -0.049143  -0.053475  -0.031351  -0.050116
     6  C    0.482316  -0.028243  -0.047652  -0.000323   0.000028  -0.000253
     7  C    4.887616  -0.050138   0.524663   0.000040  -0.000146   0.003765
     8  C   -0.050138   4.862529   0.478388  -0.024695  -0.049977   0.457576
     9  C    0.524663   0.478388   4.895539  -0.000219   0.003539  -0.056015
    10  C    0.000040  -0.024695  -0.000219   4.925678   0.492679  -0.051590
    11  C   -0.000146  -0.049977   0.003539   0.492679   4.888451   0.508519
    12  C    0.003765   0.457576  -0.056015  -0.051590   0.508519   4.932016
    13  H    0.000006  -0.000393   0.000010  -0.002852  -0.000181   0.000038
    14  H    0.000001  -0.000084   0.000021   0.408612  -0.039847   0.005550
    15  H    0.000005   0.006273  -0.000196  -0.038749   0.408268  -0.038121
    16  H   -0.000147  -0.037125  -0.004510   0.005642  -0.038420   0.404707
    17  H   -0.037987  -0.037883   0.404829   0.000029  -0.000140  -0.004682
    18  H    0.407161   0.006205  -0.037268   0.000000   0.000006  -0.000190
    19  H   -0.038869   0.000101   0.005362   0.000002   0.000001   0.000027
    20  H   -0.000002  -0.000274   0.000054  -0.000056   0.000018   0.000018
    21  H   -0.000103  -0.000290   0.000043  -0.000079   0.000023   0.000017
              13         14         15         16         17         18
     1  C   -0.032975  -0.000182   0.000014   0.000018   0.000034  -0.000242
     2  C    0.405185  -0.003717  -0.000211   0.000018   0.000012   0.000014
     3  C   -0.031118  -0.037982   0.006361  -0.000086  -0.000302   0.000000
     4  C    0.004510  -0.000415   0.000005  -0.000318  -0.000130   0.006272
     5  C    0.007772   0.008073  -0.000152   0.007870   0.007728  -0.000047
     6  C   -0.000130   0.000006   0.000000   0.000029   0.005659  -0.039607
     7  C    0.000006   0.000001   0.000005  -0.000147  -0.037987   0.407161
     8  C   -0.000393  -0.000084   0.006273  -0.037125  -0.037883   0.006205
     9  C    0.000010   0.000021  -0.000196  -0.004510   0.404829  -0.037268
    10  C   -0.002852   0.408612  -0.038749   0.005642   0.000029   0.000000
    11  C   -0.000181  -0.039847   0.408268  -0.038420  -0.000140   0.000006
    12  C    0.000038   0.005550  -0.038121   0.404707  -0.004682  -0.000190
    13  H    0.547319   0.002227   0.000001  -0.000001   0.000000   0.000000
    14  H    0.002227   0.568767  -0.005728  -0.000245  -0.000002   0.000000
    15  H    0.000001  -0.005728   0.561699  -0.005790  -0.000003   0.000000
    16  H   -0.000001  -0.000245  -0.005790   0.568775   0.003487  -0.000005
    17  H    0.000000  -0.000002  -0.000003   0.003487   0.570517  -0.005794
    18  H    0.000000   0.000000   0.000000  -0.000005  -0.005794   0.563894
    19  H    0.000003  -0.000001   0.000000  -0.000002  -0.000254  -0.005379
    20  H   -0.000544  -0.000003  -0.000001  -0.000001  -0.000001   0.000006
    21  H   -0.000246  -0.000001  -0.000001  -0.000001  -0.000001   0.000005
              19         20         21
     1  C   -0.003567   0.388690   0.388148
     2  C    0.000052  -0.035793  -0.036231
     3  C   -0.000511   0.002460   0.002020
     4  C   -0.040351  -0.033974  -0.033506
     5  C    0.007188   0.003008   0.003338
     6  C    0.410810  -0.002627  -0.002960
     7  C   -0.038869  -0.000002  -0.000103
     8  C    0.000101  -0.000274  -0.000290
     9  C    0.005362   0.000054   0.000043
    10  C    0.000002  -0.000056  -0.000079
    11  C    0.000001   0.000018   0.000023
    12  C    0.000027   0.000018   0.000017
    13  H    0.000003  -0.000544  -0.000246
    14  H   -0.000001  -0.000003  -0.000001
    15  H    0.000000  -0.000001  -0.000001
    16  H   -0.000002  -0.000001  -0.000001
    17  H   -0.000254  -0.000001  -0.000001
    18  H   -0.005379   0.000006   0.000005
    19  H    0.569086   0.001026   0.000838
    20  H    0.001026   0.564394  -0.026928
    21  H    0.000838  -0.026928   0.563477
          Atomic-Atomic Spin Densities.
               1          2          3          4          5          6
     1  C   -0.033165  -0.023131  -0.008331   0.005487   0.006163  -0.000788
     2  C   -0.023131   0.771088  -0.017669  -0.004729  -0.016766   0.000812
     3  C   -0.008331  -0.017669  -0.193735   0.009766   0.004485  -0.000174
     4  C    0.005487  -0.004729   0.009766  -0.109881   0.005862  -0.007765
     5  C    0.006163  -0.016766   0.004485   0.005862   0.118932  -0.003681
     6  C   -0.000788   0.000812  -0.000174  -0.007765  -0.003681   0.142446
     7  C   -0.000074   0.000018  -0.000039   0.000870   0.000489   0.005762
     8  C    0.000158  -0.000851   0.003640   0.002287   0.007070  -0.000972
     9  C    0.000006  -0.000098  -0.000202   0.000783   0.001419  -0.004212
    10  C   -0.000118  -0.016610  -0.005853  -0.000189   0.003974  -0.000056
    11  C    0.000021  -0.000216  -0.000323  -0.000012   0.003301  -0.000004
    12  C   -0.000030   0.000654  -0.000003  -0.000145  -0.008920   0.000214
    13  H    0.000667   0.007829  -0.002638   0.000130  -0.000850   0.000026
    14  H   -0.000009   0.000180  -0.000351   0.000033  -0.000506   0.000001
    15  H    0.000000   0.000001   0.000250  -0.000006  -0.000069   0.000000
    16  H   -0.000001   0.000002  -0.000071   0.000018  -0.000424  -0.000003
    17  H   -0.000001   0.000000   0.000004  -0.000013  -0.000096  -0.000029
    18  H    0.000000   0.000001  -0.000003   0.000087  -0.000018  -0.000334
    19  H    0.000084  -0.000019   0.000020  -0.000151  -0.000129   0.001106
    20  H    0.005471  -0.013091   0.000382   0.002677   0.000130  -0.000385
    21  H    0.005330  -0.013277   0.000338   0.002938   0.000215  -0.000664
               7          8          9         10         11         12
     1  C   -0.000074   0.000158   0.000006  -0.000118   0.000021  -0.000030
     2  C    0.000018  -0.000851  -0.000098  -0.016610  -0.000216   0.000654
     3  C   -0.000039   0.003640  -0.000202  -0.005853  -0.000323  -0.000003
     4  C    0.000870   0.002287   0.000783  -0.000189  -0.000012  -0.000145
     5  C    0.000489   0.007070   0.001419   0.003974   0.003301  -0.008920
     6  C    0.005762  -0.000972  -0.004212  -0.000056  -0.000004   0.000214
     7  C   -0.098677   0.001394  -0.002995  -0.000003   0.000013  -0.000013
     8  C    0.001394  -0.112002   0.004209   0.001785  -0.002975  -0.018325
     9  C   -0.002995   0.004209   0.135190   0.000146  -0.000186  -0.006881
    10  C   -0.000003   0.001785   0.000146   0.394630  -0.000447  -0.015351
    11  C    0.000013  -0.002975  -0.000186  -0.000447  -0.200030   0.006447
    12  C   -0.000013  -0.018325  -0.006881  -0.015351   0.006447   0.404191
    13  H   -0.000001   0.000047   0.000001   0.000344   0.000032  -0.000009
    14  H    0.000000  -0.000044   0.000000   0.003396   0.001141  -0.000112
    15  H    0.000000   0.000231   0.000004  -0.000887   0.000287  -0.000902
    16  H    0.000009  -0.000789   0.000344  -0.000093   0.000811   0.003594
    17  H    0.000396   0.000026   0.000899   0.000000  -0.000004   0.000063
    18  H   -0.000093   0.000083  -0.000305   0.000000   0.000000  -0.000001
    19  H    0.000285  -0.000026  -0.000019   0.000001   0.000000   0.000000
    20  H   -0.000025  -0.000008   0.000016   0.000119  -0.000001  -0.000008
    21  H   -0.000033  -0.000016   0.000015   0.000115  -0.000001  -0.000009
              13         14         15         16         17         18
     1  C    0.000667  -0.000009   0.000000  -0.000001  -0.000001   0.000000
     2  C    0.007829   0.000180   0.000001   0.000002   0.000000   0.000001
     3  C   -0.002638  -0.000351   0.000250  -0.000071   0.000004  -0.000003
     4  C    0.000130   0.000033  -0.000006   0.000018  -0.000013   0.000087
     5  C   -0.000850  -0.000506  -0.000069  -0.000424  -0.000096  -0.000018
     6  C    0.000026   0.000001   0.000000  -0.000003  -0.000029  -0.000334
     7  C   -0.000001   0.000000   0.000000   0.000009   0.000396  -0.000093
     8  C    0.000047  -0.000044   0.000231  -0.000789   0.000026   0.000083
     9  C    0.000001   0.000000   0.000004   0.000344   0.000899  -0.000305
    10  C    0.000344   0.003396  -0.000887  -0.000093   0.000000   0.000000
    11  C    0.000032   0.001141   0.000287   0.000811  -0.000004   0.000000
    12  C   -0.000009  -0.000112  -0.000902   0.003594   0.000063  -0.000001
    13  H   -0.038969  -0.000230   0.000001   0.000000   0.000000   0.000000
    14  H   -0.000230  -0.022542   0.000084   0.000009   0.000000   0.000000
    15  H    0.000001   0.000084   0.009079   0.000126   0.000001   0.000000
    16  H    0.000000   0.000009   0.000126  -0.022923  -0.000126   0.000000
    17  H    0.000000   0.000000   0.000001  -0.000126  -0.007711   0.000005
    18  H    0.000000   0.000000   0.000000   0.000000   0.000005   0.004932
    19  H    0.000000   0.000000   0.000000   0.000000   0.000004   0.000019
    20  H   -0.000027   0.000000   0.000000   0.000000   0.000000   0.000000
    21  H    0.000004   0.000001   0.000000   0.000000   0.000000   0.000001
              19         20         21
     1  C    0.000084   0.005471   0.005330
     2  C   -0.000019  -0.013091  -0.013277
     3  C    0.000020   0.000382   0.000338
     4  C   -0.000151   0.002677   0.002938
     5  C   -0.000129   0.000130   0.000215
     6  C    0.001106  -0.000385  -0.000664
     7  C    0.000285  -0.000025  -0.000033
     8  C   -0.000026  -0.000008  -0.000016
     9  C   -0.000019   0.000016   0.000015
    10  C    0.000001   0.000119   0.000115
    11  C    0.000000  -0.000001  -0.000001
    12  C    0.000000  -0.000008  -0.000009
    13  H    0.000000  -0.000027   0.000004
    14  H    0.000000   0.000000   0.000001
    15  H    0.000000   0.000000   0.000000
    16  H    0.000000   0.000000   0.000000
    17  H    0.000004   0.000000   0.000000
    18  H    0.000019   0.000000   0.000001
    19  H   -0.007888  -0.000020   0.000017
    20  H   -0.000020   0.028251  -0.006595
    21  H    0.000017  -0.006595   0.028733
 Mulliken charges and spin densities:
               1          2
     1  C   -0.124012  -0.042261
     2  C   -0.150089   0.674127
     3  C    0.012517  -0.210506
     4  C   -0.094577  -0.091953
     5  C   -0.061228   0.120583
     6  C   -0.096880   0.131302
     7  C   -0.102024  -0.092720
     8  C    0.012267  -0.115076
     9  C   -0.090175   0.128133
    10  C   -0.094588   0.364901
    11  C   -0.096511  -0.192146
    12  C   -0.090704   0.364451
    13  H    0.101370  -0.033642
    14  H    0.094950  -0.018950
    15  H    0.106324   0.008201
    16  H    0.096104  -0.019517
    17  H    0.094885  -0.006582
    18  H    0.104970   0.004374
    19  H    0.094438  -0.006716
    20  H    0.140528   0.016885
    21  H    0.142437   0.017112
 Sum of Mulliken charges =   0.00000   1.00000
 Mulliken charges and spin densities with hydrogens summed into heavy atoms:
               1          2
     1  C    0.158953  -0.008264
     2  C   -0.048719   0.640485
     3  C    0.012517  -0.210506
     4  C   -0.094577  -0.091953
     5  C   -0.061228   0.120583
     6  C   -0.002442   0.124586
     7  C    0.002945  -0.088346
     8  C    0.012267  -0.115076
     9  C    0.004710   0.121551
    10  C    0.000361   0.345951
    11  C    0.009813  -0.183946
    12  C    0.005400   0.344934
 Electronic spatial extent (au):  <R**2>=           1788.8375
 Charge=              0.0000 electrons
 Dipole moment (field-independent basis, Debye):
    X=              0.1288    Y=              0.6996    Z=             -0.1797  Tot=              0.7337
 Quadrupole moment (field-independent basis, Debye-Ang):
   XX=            -62.1099   YY=            -60.6977   ZZ=            -75.8206
   XY=              0.6700   XZ=             -0.5999   YZ=             -0.0160
 Traceless Quadrupole moment (field-independent basis, Debye-Ang):
   XX=              4.0995   YY=              5.5117   ZZ=             -9.6112
   XY=              0.6700   XZ=             -0.5999   YZ=             -0.0160
 Octapole moment (field-independent basis, Debye-Ang**2):
  XXX=             -1.1887  YYY=             -0.3287  ZZZ=             -0.1705  XYY=             -0.6617
  XXY=             -1.0928  XXZ=             -2.3962  XZZ=              1.8203  YZZ=              5.1000
  YYZ=             -0.8576  XYZ=              0.8907
 Hexadecapole moment (field-independent basis, Debye-Ang**3):
 XXXX=          -1206.7051 YYYY=          -1000.7855 ZZZZ=            -93.9856 XXXY=             -1.5657
 XXXZ=             -8.7049 YYYX=             -5.5561 YYYZ=             -0.0472 ZZZX=             -0.8079
 ZZZY=              0.2494 XXYY=           -369.1207 XXZZ=           -267.5325 YYZZ=           -209.8383
 XXYZ=             -0.1829 YYXZ=             -1.5107 ZZXY=              5.6234
 N-N= 6.056875650264D+02 E-N=-2.283872480066D+03  KE= 4.594387644687D+02
                          Isotropic Fermi Contact Couplings
        Atom                 a.u.       MegaHertz       Gauss      10(-4) cm-1
     1  C(13)             -0.01518     -17.06596      -6.08956      -5.69259
     2  C(13)              0.04586      51.55075      18.39459      17.19548
     3  C(13)             -0.03617     -40.66117     -14.50892     -13.56311
     4  C(13)             -0.01017     -11.43331      -4.07969      -3.81374
     5  C(13)              0.01312      14.74991       5.26314       4.92004
     6  C(13)              0.01049      11.79345       4.20820       3.93387
     7  C(13)             -0.01091     -12.26582      -4.37675      -4.09144
     8  C(13)             -0.01933     -21.72748      -7.75290      -7.24751
     9  C(13)              0.01125      12.64514       4.51210       4.21797
    10  C(13)              0.02751      30.93047      11.03676      10.31730
    11  C(13)             -0.02620     -29.45677     -10.51091      -9.82572
    12  C(13)              0.02687      30.20385      10.77748      10.07492
    13  H(1)              -0.00910     -40.67156     -14.51262     -13.56657
    14  H(1)              -0.00474     -21.16841      -7.55342      -7.06102
    15  H(1)               0.00195       8.71490       3.10969       2.90698
    16  H(1)              -0.00480     -21.47601      -7.66318      -7.16363
    17  H(1)              -0.00165      -7.39159      -2.63750      -2.46557
    18  H(1)               0.00106       4.71833       1.68362       1.57386
    19  H(1)              -0.00168      -7.52562      -2.68533      -2.51028
    20  H(1)               0.00953      42.61852      15.20735      14.21601
    21  H(1)               0.00967      43.21686      15.42085      14.41559
 --------------------------------------------------------
       Center         ----  Spin Dipole Couplings  ----
                      3XX-RR        3YY-RR        3ZZ-RR
 --------------------------------------------------------
     1   Atom        0.003724     -0.009937      0.006214
     2   Atom       -0.371089     -0.375056      0.746146
     3   Atom        0.078722      0.094011     -0.172732
     4   Atom        0.050238      0.044973     -0.095211
     5   Atom       -0.062015     -0.054520      0.116534
     6   Atom       -0.063064     -0.067258      0.130322
     7   Atom        0.041773      0.043702     -0.085475
     8   Atom        0.049201      0.042020     -0.091221
     9   Atom       -0.065860     -0.064103      0.129963
    10   Atom       -0.189755     -0.189545      0.379300
    11   Atom        0.076306      0.087384     -0.163690
    12   Atom       -0.197258     -0.187806      0.385064
    13   Atom       -0.015033      0.016698     -0.001665
    14   Atom        0.011685     -0.009116     -0.002569
    15   Atom       -0.002951      0.007513     -0.004561
    16   Atom       -0.024397      0.025381     -0.000984
    17   Atom       -0.006629      0.008179     -0.001549
    18   Atom       -0.001361      0.003350     -0.001990
    19   Atom        0.004931     -0.004299     -0.000632
    20   Atom        0.008510     -0.004458     -0.004052
    21   Atom        0.008315     -0.004472     -0.003843
 --------------------------------------------------------
                        XY            XZ            YZ
 --------------------------------------------------------
     1   Atom       -0.000740     -0.000265      0.000285
     2   Atom        0.001183     -0.027075      0.032092
     3   Atom        0.016260      0.005463     -0.003867
     4   Atom       -0.006472     -0.000020     -0.000980
     5   Atom       -0.001884     -0.004916     -0.003555
     6   Atom        0.001600      0.015374      0.003928
     7   Atom        0.001914     -0.007774      0.003786
     8   Atom        0.001531      0.000549      0.001451
     9   Atom       -0.001336      0.001394     -0.005690
    10   Atom       -0.001277     -0.013202      0.006808
    11   Atom       -0.005684     -0.002405     -0.004399
    12   Atom        0.000614     -0.001676      0.005091
    13   Atom       -0.044543      0.001112     -0.001792
    14   Atom       -0.020040      0.000465     -0.000337
    15   Atom       -0.006086      0.000240     -0.000068
    16   Atom        0.005312     -0.000174     -0.000369
    17   Atom       -0.002654     -0.000021      0.000341
    18   Atom        0.003390      0.000391     -0.000208
    19   Atom        0.006910     -0.000667     -0.000571
    20   Atom        0.003221     -0.004296     -0.001820
    21   Atom        0.003233      0.004698      0.002062
 --------------------------------------------------------


 ---------------------------------------------------------------------------------
              Anisotropic Spin Dipole Couplings in Principal Axis System
 ---------------------------------------------------------------------------------

       Atom             a.u.   MegaHertz   Gauss  10(-4) cm-1        Axes

              Baa    -0.0100    -1.339    -0.478    -0.447  0.0536  0.9984 -0.0167
     1 C(13)  Bbb     0.0037     0.501     0.179     0.167  0.9924 -0.0514  0.1119
              Bcc     0.0062     0.839     0.299     0.280 -0.1108  0.0226  0.9936
 
              Baa    -0.3767   -50.555   -18.039   -16.863 -0.3643  0.9306 -0.0354
     2 C(13)  Bbb    -0.3710   -49.782   -17.763   -16.605  0.9310  0.3649  0.0121
              Bcc     0.7477   100.336    35.803    33.469 -0.0242  0.0285  0.9993
 
              Baa    -0.1729   -23.204    -8.280    -7.740 -0.0227  0.0159  0.9996
     3 C(13)  Bbb     0.0686     9.203     3.284     3.070  0.8440 -0.5356  0.0277
              Bcc     0.1043    14.001     4.996     4.670  0.5358  0.8444 -0.0012
 
              Baa    -0.0952   -12.777    -4.559    -4.262  0.0005  0.0070  1.0000
     4 C(13)  Bbb     0.0406     5.451     1.945     1.818  0.5584  0.8295 -0.0061
              Bcc     0.0546     7.326     2.614     2.444  0.8296 -0.5584  0.0035
 
              Baa    -0.0626    -8.405    -2.999    -2.804  0.9705  0.2390  0.0314
     5 C(13)  Bbb    -0.0541    -7.260    -2.591    -2.422 -0.2395  0.9708  0.0133
              Bcc     0.1167    15.666     5.590     5.225 -0.0273 -0.0204  0.9994
 
              Baa    -0.0678    -9.099    -3.247    -3.035 -0.3427  0.9394  0.0080
     6 C(13)  Bbb    -0.0638    -8.563    -3.055    -2.856  0.9361  0.3422 -0.0811
              Bcc     0.1316    17.662     6.302     5.891  0.0789  0.0203  0.9967
 
              Baa    -0.0861   -11.549    -4.121    -3.852  0.0611 -0.0300  0.9977
     7 C(13)  Bbb     0.0412     5.526     1.972     1.843  0.8413 -0.5364 -0.0677
              Bcc     0.0449     6.023     2.149     2.009  0.5372  0.8434 -0.0075
 
              Baa    -0.0912   -12.243    -4.369    -4.084 -0.0038 -0.0108  0.9999
     8 C(13)  Bbb     0.0417     5.598     1.998     1.867 -0.2012  0.9795  0.0099
              Bcc     0.0495     6.645     2.371     2.217  0.9795  0.2011  0.0059
 
              Baa    -0.0666    -8.936    -3.189    -2.981  0.8734  0.4869  0.0079
     9 C(13)  Bbb    -0.0635    -8.528    -3.043    -2.844 -0.4869  0.8730  0.0292
              Bcc     0.1301    17.464     6.231     5.825  0.0073 -0.0293  0.9995
 
              Baa    -0.1910   -25.628    -9.145    -8.549  0.7715  0.6362  0.0103
    10 C(13)  Bbb    -0.1887   -25.322    -9.036    -8.447 -0.6358  0.7714 -0.0240
              Bcc     0.3797    50.950    18.180    16.995 -0.0232  0.0120  0.9997
 
              Baa    -0.1638   -21.979    -7.843    -7.332  0.0104  0.0177  0.9998
    11 C(13)  Bbb     0.0740     9.926     3.542     3.311  0.9225  0.3856 -0.0165
              Bcc     0.0898    12.053     4.301     4.020 -0.3858  0.9225 -0.0123
 
              Baa    -0.1973   -26.476    -9.447    -8.832  0.9978 -0.0663  0.0035
    12 C(13)  Bbb    -0.1878   -25.202    -8.993    -8.407  0.0663  0.9978 -0.0087
              Bcc     0.3851    51.679    18.440    17.238 -0.0029  0.0089  1.0000
 
              Baa    -0.0465   -24.785    -8.844    -8.267  0.8171  0.5764  0.0028
    13 H(1)   Bbb    -0.0018    -0.935    -0.334    -0.312 -0.0266  0.0329  0.9991
              Bcc     0.0482    25.720     9.178     8.579 -0.5758  0.8165 -0.0422
 
              Baa    -0.0213   -11.362    -4.054    -3.790  0.5193  0.8546  0.0025
    14 H(1)   Bbb    -0.0026    -1.377    -0.491    -0.459 -0.0198  0.0091  0.9998
              Bcc     0.0239    12.739     4.545     4.249  0.8544 -0.5192  0.0216
 
              Baa    -0.0058    -3.081    -1.099    -1.028  0.8985  0.4107 -0.1548
    15 H(1)   Bbb    -0.0045    -2.419    -0.863    -0.807  0.1362  0.0744  0.9879
              Bcc     0.0103     5.500     1.962     1.835 -0.4173  0.9087 -0.0109
 
              Baa    -0.0250   -13.317    -4.752    -4.442  0.9945 -0.1049  0.0056
    16 H(1)   Bbb    -0.0010    -0.527    -0.188    -0.176 -0.0041  0.0148  0.9999
              Bcc     0.0259    13.844     4.940     4.618  0.1050  0.9944 -0.0143
 
              Baa    -0.0071    -3.783    -1.350    -1.262  0.9852  0.1714 -0.0069
    17 H(1)   Bbb    -0.0016    -0.833    -0.297    -0.278  0.0125 -0.0316  0.9994
              Bcc     0.0087     4.616     1.647     1.540 -0.1711  0.9847  0.0333
 
              Baa    -0.0033    -1.752    -0.625    -0.585  0.8384 -0.4385 -0.3237
    18 H(1)   Bbb    -0.0018    -0.981    -0.350    -0.327  0.2871 -0.1497  0.9461
              Bcc     0.0051     2.733     0.975     0.912  0.4633  0.8862 -0.0004
 
              Baa    -0.0080    -4.268    -1.523    -1.423 -0.4702  0.8822  0.0259
    19 H(1)   Bbb    -0.0007    -0.377    -0.134    -0.126  0.0929  0.0203  0.9955
              Bcc     0.0087     4.644     1.657     1.549  0.8777  0.4704 -0.0914
 
              Baa    -0.0061    -3.264    -1.165    -1.089  0.0671  0.6752  0.7345
    20 H(1)   Bbb    -0.0046    -2.446    -0.873    -0.816 -0.3721  0.7000 -0.6095
              Bcc     0.0107     5.711     2.038     1.905  0.9258  0.2325 -0.2982
 
              Baa    -0.0063    -3.360    -1.199    -1.121 -0.0860 -0.6755  0.7323
    21 H(1)   Bbb    -0.0045    -2.418    -0.863    -0.807 -0.3942  0.6981  0.5977
              Bcc     0.0108     5.778     2.062     1.927  0.9150  0.2373  0.3263
 

 ---------------------------------------------------------------------------------

 Calling FoFJK, ICntrl=      2127 FMM=F ISym2X=0 I1Cent= 0 IOpClX= 1 NMat=1 NMatS=1 NMatT=0.
 ***** Axes restored to original set *****
 -------------------------------------------------------------------
 Center     Atomic                   Forces (Hartrees/Bohr)
 Number     Number              X              Y              Z
 -------------------------------------------------------------------
      1        6           0.009472237    0.006112702   -0.000081248
      2        6          -0.011686307   -0.045334822    0.000324494
      3        6           0.010423676    0.008036868    0.001241012
      4        6          -0.008267531   -0.038104689    0.004514513
      5        6          -0.026061716   -0.016212883   -0.001504105
      6        6           0.037732338   -0.030297165    0.004565901
      7        6           0.057032814    0.001765967    0.004625162
      8        6          -0.003943830    0.014959626   -0.001579057
      9        6          -0.005695120    0.049685908   -0.000248421
     10        6          -0.028640641   -0.028573015   -0.001580268
     11        6          -0.047885177    0.029848959   -0.003204726
     12        6           0.022730398    0.037213372   -0.000804496
     13        1           0.000400072    0.003399110   -0.000515426
     14        1           0.001151651   -0.000624227   -0.000223793
     15        1          -0.000644847   -0.000001476    0.001383072
     16        1           0.000429825   -0.000720276    0.000356002
     17        1          -0.000538564   -0.000559288   -0.000758668
     18        1           0.000594408   -0.000557943   -0.002689800
     19        1          -0.001564611    0.000356046   -0.003438267
     20        1          -0.002429697    0.004699234   -0.001497056
     21        1          -0.002609378    0.004907992    0.001115176
 -------------------------------------------------------------------
 Cartesian Forces:  Max     0.057032814 RMS     0.017906249

 GradGradGradGradGradGradGradGradGradGradGradGradGradGradGradGradGradGrad
 Berny optimization.
 FormGI is forming the generalized inverse of G from B-inverse, IUseBI=4.
 Internal  Forces:  Max     0.061197838 RMS     0.013513791
 Search for a local minimum.
 Step number   1 out of a maximum of  126
 All quantities printed in internal units (Hartrees-Bohrs-Radians)
 Mixed Optimization -- RFO/linear search
 Second derivative matrix not updated -- first step.
 ITU=  0
     Eigenvalues ---    0.00656   0.00825   0.01123   0.01174   0.01190
     Eigenvalues ---    0.01201   0.01203   0.01211   0.01212   0.01251
     Eigenvalues ---    0.01304   0.01337   0.01342   0.01409   0.01432
     Eigenvalues ---    0.01474   0.04677   0.06992   0.08870   0.09761
     Eigenvalues ---    0.15901   0.15951   0.15984   0.15992   0.15996
     Eigenvalues ---    0.15998   0.16000   0.22064   0.22217   0.22784
     Eigenvalues ---    0.23461   0.23712   0.24773   0.24854   0.28271
     Eigenvalues ---    0.30746   0.31848   0.34111   0.34269   0.34301
     Eigenvalues ---    0.34430   0.35126   0.35577   0.35606   0.35689
     Eigenvalues ---    0.35699   0.35779   0.35807   0.35917   0.36166
     Eigenvalues ---    0.36272   0.36452   0.36457   0.36906   0.38005
     Eigenvalues ---    0.38501   0.39155
 RFO step:  Lambda=-5.40352639D-02 EMin= 6.55993085D-03
 Linear search not attempted -- first point.
 Maximum step size (   0.300) exceeded in Quadratic search.
    -- Step size scaled by   0.831
 Iteration  1 RMS(Cart)=  0.04874955 RMS(Int)=  0.00024180
 Iteration  2 RMS(Cart)=  0.00026449 RMS(Int)=  0.00009931
 Iteration  3 RMS(Cart)=  0.00000007 RMS(Int)=  0.00009931
 Variable       Old X    -DE/DX   Delta X   Delta X   Delta X     New X
                                 (Linear)    (Quad)   (Total)
    R1        2.89588  -0.00982   0.00000  -0.02161  -0.02148   2.87440
    R2        2.84761   0.00205   0.00000   0.00666   0.00668   2.85430
    R3        2.06825   0.00206   0.00000   0.00431   0.00431   2.07256
    R4        2.06879   0.00208   0.00000   0.00436   0.00436   2.07316
    R5        2.73267  -0.03220   0.00000  -0.06141  -0.06136   2.67131
    R6        2.03381   0.00257   0.00000   0.00511   0.00511   2.03892
    R7        2.73372  -0.01615   0.00000  -0.03158  -0.03188   2.70184
    R8        2.73750  -0.03167   0.00000  -0.05982  -0.05988   2.67762
    R9        2.72922  -0.03744   0.00000  -0.07040  -0.07067   2.65855
   R10        2.71953  -0.04745   0.00000  -0.08762  -0.08762   2.63191
   R11        2.76693  -0.04534   0.00000  -0.08883  -0.08913   2.67780
   R12        2.77153  -0.04139   0.00000  -0.08326  -0.08310   2.68842
   R13        2.04384   0.00118   0.00000   0.00238   0.00238   2.04622
   R14        2.77877  -0.06120   0.00000  -0.12404  -0.12388   2.65489
   R15        2.04748  -0.00059   0.00000  -0.00120  -0.00120   2.04628
   R16        2.77380  -0.04236   0.00000  -0.08481  -0.08480   2.68899
   R17        2.76894  -0.03304   0.00000  -0.06608  -0.06601   2.70293
   R18        2.04570   0.00063   0.00000   0.00127   0.00127   2.04697
   R19        2.77003  -0.04710   0.00000  -0.09471  -0.09456   2.67547
   R20        2.04428   0.00081   0.00000   0.00164   0.00164   2.04592
   R21        2.77393  -0.05293   0.00000  -0.10724  -0.10704   2.66689
   R22        2.04702  -0.00049   0.00000  -0.00099  -0.00099   2.04603
   R23        2.04554   0.00067   0.00000   0.00136   0.00136   2.04691
    A1        1.85349  -0.01574   0.00000  -0.04004  -0.03987   1.81363
    A2        1.91927   0.00562   0.00000   0.01720   0.01730   1.93657
    A3        1.91580   0.00541   0.00000   0.01579   0.01585   1.93166
    A4        1.93590   0.00510   0.00000   0.01463   0.01475   1.95065
    A5        1.93272   0.00509   0.00000   0.01474   0.01485   1.94757
    A6        1.90621  -0.00543   0.00000  -0.02183  -0.02198   1.88423
    A7        1.87968   0.00676   0.00000   0.02190   0.02189   1.90156
    A8        2.20371  -0.00566   0.00000  -0.01979  -0.01979   2.18392
    A9        2.19955  -0.00109   0.00000  -0.00202  -0.00202   2.19753
   A10        1.88579   0.00166   0.00000   0.00025   0.00021   1.88600
   A11        2.33023   0.00250   0.00000   0.00815   0.00844   2.33868
   A12        2.06709  -0.00415   0.00000  -0.00838  -0.00863   2.05846
   A13        1.85505   0.00644   0.00000   0.01989   0.01974   1.87479
   A14        2.32622   0.00033   0.00000   0.00015   0.00038   2.32660
   A15        2.10041  -0.00672   0.00000  -0.01948  -0.01961   2.08080
   A16        1.95075   0.00089   0.00000  -0.00201  -0.00198   1.94877
   A17        2.17619  -0.00322   0.00000  -0.00585  -0.00592   2.17027
   A18        2.15594   0.00233   0.00000   0.00790   0.00793   2.16388
   A19        2.06230   0.00133   0.00000   0.00299   0.00298   2.06528
   A20        2.11549   0.00023   0.00000   0.00277   0.00263   2.11813
   A21        2.10111  -0.00137   0.00000  -0.00353  -0.00368   2.09743
   A22        2.11574   0.00534   0.00000   0.01504   0.01520   2.13093
   A23        2.08343  -0.00199   0.00000  -0.00429  -0.00450   2.07893
   A24        2.08083  -0.00319   0.00000  -0.00894  -0.00915   2.07167
   A25        2.02495  -0.00009   0.00000   0.00051   0.00038   2.02532
   A26        2.02469   0.00076   0.00000   0.00174   0.00167   2.02636
   A27        2.23353  -0.00067   0.00000  -0.00225  -0.00205   2.23148
   A28        2.10668  -0.00217   0.00000  -0.00683  -0.00676   2.09992
   A29        2.08426   0.00066   0.00000   0.00194   0.00187   2.08613
   A30        2.09131   0.00155   0.00000   0.00540   0.00533   2.09664
   A31        2.07983  -0.00178   0.00000  -0.00687  -0.00689   2.07294
   A32        2.10543   0.00192   0.00000   0.00744   0.00745   2.11288
   A33        2.09792  -0.00014   0.00000  -0.00056  -0.00056   2.09737
   A34        2.11577   0.00796   0.00000   0.02076   0.02100   2.13677
   A35        2.08384  -0.00358   0.00000  -0.00882  -0.00895   2.07489
   A36        2.08337  -0.00436   0.00000  -0.01183  -0.01196   2.07142
   A37        2.10238   0.00045   0.00000  -0.00128  -0.00111   2.10127
   A38        2.09381   0.00031   0.00000   0.00275   0.00266   2.09646
   A39        2.08690  -0.00075   0.00000  -0.00140  -0.00149   2.08541
    D1        0.00463   0.00008   0.00000   0.00158   0.00158   0.00621
    D2       -3.11399  -0.00022   0.00000  -0.00240  -0.00239  -3.11638
    D3        2.10030  -0.00001   0.00000   0.00493   0.00485   2.10515
    D4       -1.01831  -0.00031   0.00000   0.00095   0.00087  -1.01744
    D5       -2.08537   0.00023   0.00000  -0.00130  -0.00122  -2.08659
    D6        1.07920  -0.00008   0.00000  -0.00529  -0.00520   1.07400
    D7       -0.00254  -0.00018   0.00000  -0.00288  -0.00289  -0.00544
    D8        3.07814   0.00054   0.00000   0.00800   0.00808   3.08623
    D9       -2.08738  -0.00026   0.00000  -0.00747  -0.00746  -2.09483
   D10        0.99331   0.00047   0.00000   0.00340   0.00352   0.99683
   D11        2.07639  -0.00030   0.00000   0.00025   0.00015   2.07654
   D12       -1.12611   0.00043   0.00000   0.01112   0.01112  -1.11498
   D13       -0.00491   0.00003   0.00000   0.00028   0.00024  -0.00467
   D14       -3.13349  -0.00012   0.00000  -0.00183  -0.00186  -3.13536
   D15        3.11377   0.00025   0.00000   0.00396   0.00396   3.11773
   D16       -0.01481   0.00010   0.00000   0.00185   0.00186  -0.01295
   D17        0.00343  -0.00019   0.00000  -0.00233  -0.00233   0.00111
   D18       -3.11239  -0.00037   0.00000  -0.00389  -0.00385  -3.11625
   D19        3.13429  -0.00001   0.00000  -0.00046  -0.00048   3.13382
   D20        0.01847  -0.00020   0.00000  -0.00202  -0.00201   0.01646
   D21        3.13532  -0.00001   0.00000   0.00019   0.00021   3.13553
   D22       -0.01149   0.00022   0.00000   0.00278   0.00279  -0.00871
   D23        0.00780  -0.00021   0.00000  -0.00215  -0.00212   0.00568
   D24       -3.13902   0.00001   0.00000   0.00043   0.00046  -3.13856
   D25       -0.00043   0.00026   0.00000   0.00333   0.00336   0.00293
   D26        3.11575   0.00034   0.00000   0.00462   0.00464   3.12039
   D27       -3.09066  -0.00057   0.00000  -0.00644  -0.00638  -3.09704
   D28        0.02552  -0.00049   0.00000  -0.00514  -0.00510   0.02042
   D29       -3.09999  -0.00076   0.00000  -0.00862  -0.00855  -3.10854
   D30       -0.05735   0.00131   0.00000   0.01682   0.01693  -0.04042
   D31       -0.02615   0.00044   0.00000   0.00465   0.00461  -0.02154
   D32        3.01649   0.00251   0.00000   0.03009   0.03009   3.04658
   D33        3.10761   0.00030   0.00000   0.00297   0.00295   3.11056
   D34       -0.02835   0.00030   0.00000   0.00314   0.00313  -0.02522
   D35       -0.00528   0.00012   0.00000   0.00141   0.00141  -0.00387
   D36       -3.14124   0.00012   0.00000   0.00158   0.00159  -3.13965
   D37        0.00829  -0.00003   0.00000  -0.00066  -0.00067   0.00762
   D38        3.06339   0.00190   0.00000   0.02336   0.02336   3.08676
   D39       -3.03520  -0.00218   0.00000  -0.02625  -0.02621  -3.06141
   D40        0.01990  -0.00025   0.00000  -0.00223  -0.00217   0.01773
   D41        0.01162  -0.00019   0.00000  -0.00263  -0.00264   0.00898
   D42        3.10676   0.00083   0.00000   0.01012   0.01009   3.11685
   D43       -3.04361  -0.00217   0.00000  -0.02684  -0.02680  -3.07041
   D44        0.05153  -0.00115   0.00000  -0.01409  -0.01407   0.03746
   D45       -0.01293   0.00017   0.00000   0.00229   0.00229  -0.01064
   D46       -3.10789  -0.00083   0.00000  -0.01042  -0.01042  -3.11831
   D47        3.12224   0.00018   0.00000   0.00211   0.00210   3.12434
   D48        0.02728  -0.00083   0.00000  -0.01060  -0.01061   0.01667
   D49        0.01238   0.00006   0.00000  -0.00008  -0.00011   0.01227
   D50       -3.11411  -0.00035   0.00000  -0.00505  -0.00508  -3.11919
   D51       -3.12279   0.00006   0.00000   0.00011   0.00008  -3.12270
   D52        0.03391  -0.00035   0.00000  -0.00487  -0.00489   0.02902
   D53       -0.02265   0.00036   0.00000   0.00466   0.00466  -0.01798
   D54        3.09687   0.00087   0.00000   0.01049   0.01048   3.10735
   D55        3.12414   0.00012   0.00000   0.00206   0.00209   3.12623
   D56       -0.03952   0.00064   0.00000   0.00789   0.00790  -0.03163
   D57        0.01212  -0.00022   0.00000  -0.00339  -0.00341   0.00871
   D58        3.13867   0.00020   0.00000   0.00160   0.00156   3.14023
   D59       -3.10740  -0.00074   0.00000  -0.00925  -0.00925  -3.11665
   D60        0.01915  -0.00032   0.00000  -0.00427  -0.00427   0.01487
         Item               Value     Threshold  Converged?
 Maximum Force            0.061198     0.000450     NO 
 RMS     Force            0.013514     0.000300     NO 
 Maximum Displacement     0.181874     0.001800     NO 
 RMS     Displacement     0.048814     0.001200     NO 
 Predicted change in Energy=-2.880403D-02
 GradGradGradGradGradGradGradGradGradGradGradGradGradGradGradGradGradGrad

                          Input orientation:                          
 ---------------------------------------------------------------------
 Center     Atomic      Atomic             Coordinates (Angstroms)
 Number     Number       Type             X           Y           Z
 ---------------------------------------------------------------------
      1          6           0       -5.795390   -0.925604   -0.132409
      2          6           0       -4.312003   -1.253056   -0.055100
      3          6           0       -4.152709   -2.657368   -0.027038
      4          6           0       -6.466302   -2.278842   -0.136589
      5          6           0       -5.452075   -3.251901   -0.075675
      6          6           0       -7.798665   -2.684490   -0.135516
      7          6           0       -8.079951   -4.078588   -0.099283
      8          6           0       -5.694754   -4.647431   -0.035859
      9          6           0       -7.060955   -5.044781   -0.055910
     10          6           0       -3.030528   -3.519329    0.046678
     11          6           0       -3.245870   -4.918573    0.061547
     12          6           0       -4.537635   -5.485855    0.027062
     13          1           0       -3.517016   -0.524984   -0.009923
     14          1           0       -2.023791   -3.123272    0.088670
     15          1           0       -2.388555   -5.579413    0.085399
     16          1           0       -4.647203   -6.563408    0.039122
     17          1           0       -7.322612   -6.094732   -0.006035
     18          1           0       -9.110447   -4.406935   -0.046178
     19          1           0       -8.606745   -1.964954   -0.093536
     20          1           0       -6.108495   -0.319125    0.726085
     21          1           0       -6.020301   -0.360759   -1.045602
 ---------------------------------------------------------------------
                    Distance matrix (angstroms):
                    1          2          3          4          5
     1  C    0.000000
     2  C    1.521065   0.000000
     3  C    2.389249   1.413597   0.000000
     4  C    1.510428   2.387442   2.346912   0.000000
     5  C    2.352178   2.301210   1.429751   1.406844   0.000000
     6  C    2.665858   3.769918   3.647670   1.392747   2.414958
     7  C    3.893793   4.709885   4.177118   2.417507   2.754941
     8  C    3.724439   3.665263   2.517604   2.493119   1.417033
     9  C    4.309887   4.683366   3.762774   2.830290   2.409005
    10  C    3.795253   2.605482   1.416934   3.657449   2.439340
    11  C    4.741463   3.819197   2.437879   4.168767   2.768386
    12  C    4.733209   4.239605   2.855072   3.745860   2.416052
    13  H    2.316568   1.078951   2.225187   3.433708   3.344376
    14  H    4.370765   2.958766   2.182372   4.527660   3.434630
    15  H    5.771646   4.736746   3.415147   5.250815   3.850767
    16  H    5.756091   5.321755   3.937772   4.658057   3.409849
    17  H    5.391499   5.701579   4.675917   3.912969   3.403740
    18  H    4.807983   5.742133   5.257425   3.395358   3.836491
    19  H    2.997578   4.353514   4.508026   2.163764   3.407124
    20  H    1.096751   2.170221   3.140012   2.170880   3.110447
    21  H    1.097067   2.166926   3.130461   2.168931   3.101990
                    6          7          8          9         10
     6  C    0.000000
     7  C    1.422653   0.000000
     8  C    2.879151   2.452911   0.000000
     9  C    2.474172   1.404907   1.422953   0.000000
    10  C    4.844098   5.082396   2.894395   4.310669   0.000000
[...]
 0.02180453,0.00102289,-0.01079524,0.00031356,-0.00029501,0.04408162,0.
 60113475,-0.00015963,0.00036064,0.00720899,-0.00087446,0.00231365,0.00
 355159,-0.00645295,0.00326288,-0.06043430,0.00000814,-0.00007351,0.002
 93177,-0.00116398,-0.00008407,0.00546052,-0.00001255,-0.00007517,0.000
 54520,-0.00001697,0.00013343,-0.00009988,-0.00036417,0.00050177,-0.004
 58665,0.00021028,0.00000966,-0.00016743,0.01412738,-0.01066986,0.11961
 736,-0.00058521,0.00273946,-0.00008716,-0.00840369,0.01623609,-0.00071
 763,0.03468402,0.00037780,0.00073372,0.00121822,-0.00185751,0.00008542
 ,-0.00926843,-0.01129981,0.00016271,-0.00120826,-0.00453153,0.00008581
 ,-0.00371265,0.00772424,-0.00030220,-0.06022850,0.01665422,-0.00212977
 ,0.01351032,0.00327009,0.00015378,-0.13039382,0.01849655,-0.00242694,0
 .68047242,-0.00047261,0.00179799,-0.00006155,-0.00216458,0.02337663,-0
 .00053339,0.04739798,-0.07036736,0.00313820,0.00242493,-0.00196549,0.0
 0010740,-0.01091875,-0.01604845,-0.00001234,-0.00135517,-0.00634353,0.
 00011519,-0.00301293,0.00977192,-0.00030566,-0.01116218,0.03983686,-0.
 00114953,0.01754888,-0.00429401,0.00067761,-0.05939405,-0.27916833,0.0
 0392839,-0.05604422,0.62661740,-0.00000499,0.00002865,0.00004591,-0.00
 026664,-0.00005463,0.00380513,-0.00042392,0.00189914,0.00638702,-0.000
 02110,-0.00000648,-0.00025447,0.00015365,-0.00002115,-0.00484411,0.000
 00801,0.00003145,-0.00023298,-0.00003835,-0.00002423,0.00057551,-0.001
 44628,-0.00041710,0.00518586,-0.00019757,0.00030405,0.00452887,-0.0005
 0402,0.00599380,-0.05599105,0.01589766,-0.01374765,0.13050342,0.001183
 59,-0.00176927,0.00007646,0.00198533,-0.00518113,0.00019105,-0.0360376
 0,0.01522756,-0.00117887,-0.00168587,-0.00210375,-0.00012803,0.0246502
 5,0.03673676,-0.00043902,0.00214085,0.01147565,-0.00021820,0.00556688,
 -0.02207875,0.00055153,-0.19079016,0.05997624,-0.00492769,-0.05633406,
 0.02168468,-0.00208266,0.00580703,-0.08333373,0.00201224,-0.28548101,-
 0.02573917,-0.00536699,0.60591870,0.00072235,-0.00141138,0.00005556,0.
 00096371,-0.01139405,0.00029168,-0.00275785,0.01681797,-0.00062126,-0.
 00118460,-0.00538117,0.00022696,0.02399216,-0.03751424,0.00172660,-0.0
 0230814,-0.00428449,0.00003708,-0.00722419,0.00548121,-0.00019470,0.08
 488394,-0.17689584,0.00512780,0.00422850,0.01443612,-0.00018144,-0.029
 74076,-0.02942386,0.00012853,-0.09668201,-0.14790013,-0.00029614,0.033
 47073,0.70159948,0.00001253,-0.00001066,0.00003864,0.00004137,0.000132
 86,-0.00050230,-0.00073529,-0.00014966,-0.00550578,-0.00015041,0.00020
 294,0.00509423,-0.00012491,0.00205902,0.00689554,0.00012144,0.00040106
 ,-0.00030124,0.00018624,-0.00058629,0.00530171,-0.00554146,0.00447409,
 -0.05970992,-0.00165402,0.00027718,0.00255940,0.00068829,-0.00128010,0
 .00760027,-0.00361168,0.00156900,-0.05723950,0.01192859,-0.01345975,0.
 12100428,-0.00809330,-0.01864919,0.00025754,-0.21069646,-0.14475202,-0
 .00147948,0.00761976,0.00524325,0.00000638,-0.00427602,0.00233444,-0.0
 0018115,-0.00027007,0.00138419,-0.00017336,0.00039992,-0.00146115,0.00
 001395,-0.00034458,-0.00005330,-0.00000596,0.00048865,-0.00002532,0.00
 000051,-0.00012522,-0.00002951,0.00000442,0.00046737,-0.00029922,0.000
 08453,-0.00000232,-0.00029365,0.00001238,0.00000819,0.00020678,-0.0000
 0644,0.21464026,0.00761400,0.00939469,-0.00004021,-0.14286646,-0.19215
 996,0.00044922,-0.02334026,-0.00899391,-0.00033292,0.00314999,-0.00137
 364,0.00012639,0.00148205,-0.00540079,0.00029417,-0.00005665,0.0009333
 6,0.00000569,0.00017819,-0.00005450,0.00000443,-0.00160022,0.00031429,
 -0.00003787,0.00007155,-0.00048136,0.00000725,-0.00049731,0.00143037,-
 0.00010838,0.00028611,-0.00011258,0.00000553,-0.00005047,0.00019957,-0
 .00000478,0.15639062,0.19654157,-0.00039183,-0.00073554,-0.00037981,-0
 .00152391,0.00039527,-0.02022294,0.00070652,0.00042667,0.00251147,-0.0
 0019786,0.00010556,0.00034940,-0.00017656,0.00029243,0.00500265,-0.000
 02124,-0.00003195,0.00123359,-0.00001221,-0.00000076,-0.00006033,0.000
 03913,0.00000377,0.00048035,0.00000246,0.00000442,-0.00026498,0.000090
 38,-0.00010503,-0.00244427,-0.00000093,-0.00000880,-0.00020054,-0.0000
 0055,0.00000155,0.00006037,0.00147510,-0.00036585,0.01346570,-0.000214
 75,0.00022324,-0.00000887,0.00118342,-0.00078580,0.00010695,-0.0181168
 2,-0.01167287,-0.00024669,-0.00072092,-0.00090078,-0.00000557,-0.00099
 984,0.00422034,-0.00029168,-0.00025384,0.00039685,-0.00000124,0.000001
 91,0.00009421,-0.00000687,-0.00001673,0.00046300,-0.00000030,0.0001313
 1,-0.00012180,0.00003110,-0.30085564,-0.09208564,-0.00487904,-0.000759
 26,0.00095132,-0.00012014,0.00193099,-0.00019180,-0.00010020,-0.000151
 65,0.00078510,-0.00002820,0.31846451,0.00006554,-0.00006893,0.00000155
 ,-0.00054118,0.00078802,-0.00008563,0.01831416,0.01266278,0.00022329,0
 .00094566,0.00061722,0.00001770,0.00246936,-0.00270039,0.00028057,0.00
 010222,-0.00024255,-0.00000541,-0.00000856,-0.00007429,0.00000583,0.00
 058323,-0.00040144,0.00001457,-0.00019897,0.00018672,-0.00003265,-0.09
 028200,-0.09335525,-0.00086999,-0.02986453,-0.00596316,-0.00057300,0.0
 0068564,-0.00532017,0.00029323,-0.00035743,-0.00027226,0.00000157,0.09
 894029,0.09364336,-0.00000491,0.00000578,-0.00008564,0.00009999,-0.000
 08968,-0.00211408,-0.00097424,-0.00057210,0.00201669,-0.00005100,-0.00
 003062,0.00033763,-0.00024622,0.00032667,0.00609476,0.00000615,0.00000
 240,-0.00057487,-0.00000425,0.00000819,0.00017403,-0.00000248,0.000010
 48,-0.00043473,0.00003229,-0.00003058,-0.00093093,-0.00493770,-0.00092
 123,-0.03140370,0.00064118,0.00024627,0.00288719,-0.00012231,0.0002713
 7,0.00586390,-0.00000009,0.00003179,0.00017755,0.00544447,0.00084422,0
 .02131484,-0.00000516,-0.00000017,0.00001774,0.00027127,0.00006002,-0.
 00000210,0.00107929,-0.00194041,-0.00010680,0.00009178,0.00004176,0.00
 001723,0.00014446,-0.00079603,0.00003499,0.00001916,-0.00013194,-0.000
 00171,-0.00048191,-0.00016977,0.00000937,-0.00370489,-0.00376067,-0.00
 020066,-0.00022984,0.00133721,-0.00004802,0.00676683,-0.00452707,0.000
 20515,-0.22995005,0.13195683,-0.00834817,-0.01894342,0.01982771,-0.001
 07575,0.00000027,0.00001948,-0.00000229,0.00080139,0.00039697,0.000109
 02,0.24335176,-0.00002833,-0.00036657,-0.00000883,0.00127399,0.0004347
 9,0.00002997,-0.00236020,-0.00595167,0.00025572,0.00009158,-0.00002765
 ,-0.00001168,-0.00069371,-0.00013461,-0.00002579,-0.00000029,-0.000085
 61,0.00000721,-0.00017736,0.00005349,-0.00002272,-0.00300878,-0.000548
 19,0.00011877,-0.00009257,0.00053198,-0.00000690,0.02607676,-0.0145329
 7,0.00112596,0.13225971,-0.16129179,0.00655725,-0.01141895,0.01079830,
 -0.00048684,-0.00001973,-0.00007021,0.00000295,-0.00036639,0.00097922,
 -0.00012520,-0.14207615,0.16935911,0.00001850,-0.00000785,-0.00068086,
 -0.00003191,-0.00000239,0.00029270,-0.00009554,0.00026536,0.00691131,0
 .00001599,-0.00001298,-0.00059728,0.00003236,-0.00002828,-0.00043834,-
 0.00000506,0.00000354,0.00020692,0.00000941,-0.00002209,-0.00067670,-0
 .00021834,0.00009839,0.00742318,-0.00001232,0.00003055,0.00034443,-0.0
 0054977,0.00031734,0.00318966,-0.00836278,0.00655249,-0.03783505,-0.00
 029930,0.00033554,0.00324860,-0.00000133,0.00000395,0.00006908,0.00012
 809,-0.00010394,-0.00368038,0.00925984,-0.00730399,0.02620898,-0.00028
 041,0.00013955,-0.00000446,0.00015965,0.00000361,0.00001508,-0.0008020
 0,0.00020593,-0.00000769,0.00077943,0.00109618,-0.00001225,-0.00455162
 ,0.00248243,-0.00030134,0.00012565,0.00009885,0.00000278,0.00002200,-0
 .00037491,0.00001376,0.00734524,0.02489821,-0.00049316,0.00171887,0.00
 041201,0.00009444,-0.00482286,-0.00109491,-0.00026532,0.00096848,-0.02
 968232,0.00067673,-0.06147102,-0.02688372,-0.00013988,0.00000837,0.000
 04766,-0.00000206,-0.00017264,-0.00139546,0.00002272,0.00094397,0.0003
 5373,0.00012695,0.06020876,0.00026802,-0.00014563,0.00000471,0.0000173
 1,0.00002920,-0.00001065,0.00023476,0.00053602,-0.00002442,-0.00100551
 ,-0.00056382,-0.00000718,0.00372340,-0.00016795,0.00021560,0.00010173,
 0.00020669,-0.00000413,0.00033886,-0.00009752,0.00000755,-0.00468039,-
 0.01433724,0.00029796,-0.00119213,0.00094422,-0.00011054,-0.00204381,0
 .00146961,0.00006488,0.00146288,-0.00859116,0.00032677,-0.02831084,-0.
 33130017,0.00666881,-0.00003038,-0.00003895,0.00000121,0.00006836,-0.0
 0050672,0.00002112,-0.00033908,0.00084441,-0.00013377,0.03041534,0.351
 65704,-0.00000790,0.00000136,-0.00023340,0.00001472,-0.00001114,-0.000
 42132,-0.00000877,-0.00002483,-0.00070467,0.00003958,0.00004821,0.0002
 2182,-0.00033216,0.00018268,0.00457640,0.00000272,-0.00000406,-0.00007
 228,-0.00000367,-0.00001144,-0.00015348,0.00023752,0.00107517,0.002718
 62,0.00013336,-0.00006819,-0.00224999,-0.00024125,0.00008828,0.0062804
 6,-0.00009008,-0.00048793,0.00311356,-0.00010737,0.00670459,-0.0310605
 4,-0.00000014,0.00000324,0.00004244,-0.00001337,-0.00001715,0.00027166
 ,0.00014468,-0.00011624,-0.00421092,0.00027157,-0.00735229,0.02147130,
 0.00012298,-0.00002971,0.00002766,-0.00048195,-0.00007080,-0.00001099,
 0.00053629,-0.00140998,0.00003565,-0.00106259,0.00029844,-0.00001773,-
 0.00585121,-0.00064400,-0.00028527,-0.00288373,0.00276161,-0.00034203,
 0.00894610,0.02359246,-0.00041642,-0.00184528,-0.02976814,0.00062447,-
 0.07418355,-0.06405643,0.00051621,0.00013096,-0.00008097,0.00000841,0.
 00000470,0.00026870,-0.00000224,0.00196399,-0.00080190,0.00014285,0.00
 004929,-0.00017604,0.00000768,-0.00003735,0.00007077,-0.00000399,-0.00
 002475,0.00000966,-0.00000463,-0.00025679,0.00091072,-0.00003432,0.073
 77637,-0.00005655,-0.00002074,-0.00002329,-0.00020148,-0.00018643,-0.0
 0000070,0.00058495,-0.00014206,0.00003114,0.00030777,0.00050961,-0.000
 02103,-0.00184154,0.00135009,0.00005728,0.00373248,-0.00036611,0.00029
 282,-0.00776277,-0.01666335,0.00027138,-0.00016727,-0.00571132,0.00019
 130,-0.06278346,-0.31670706,0.00531799,0.00001396,0.00020052,-0.000007
 28,-0.00037514,-0.00009576,-0.00001145,0.00102070,0.00073234,-0.000058
 16,-0.00000275,-0.00005922,-0.00000055,-0.00004487,0.00001660,-0.00000
 043,-0.00006654,-0.00000756,0.00000190,-0.00079134,0.00022272,-0.00002
 149,0.06841300,0.33697877,0.00002855,-0.00002228,-0.00090004,-0.000007
 81,0.00000296,0.00000136,-0.00001352,-0.00002159,0.00049611,-0.0000178
 6,-0.00002178,-0.00067025,-0.00025514,0.00008767,0.00560792,-0.0003673
 0,0.00026635,0.00749523,0.00035636,0.00110293,0.00267190,-0.00010323,-
 0.00058469,0.00227445,0.00048429,0.00527699,-0.03396308,0.00000606,-0.
 00000962,-0.00011057,0.00001350,0.00000545,-0.00016155,0.00009787,-0.0
 0010602,-0.00270710,0.00000344,-0.00000507,-0.00007793,-0.00000116,0.0
 0000264,0.00004779,-0.00000272,0.00000392,0.00014018,0.00000753,0.0000
 2339,0.00019450,-0.00037375,-0.00591180,0.02409439,-0.00004030,0.00029
 408,-0.00002151,-0.00003190,-0.00013535,0.00000332,0.00002417,-0.00004
 491,0.00001542,0.00154417,-0.00112683,-0.00007974,0.00051750,0.0005622
 0,0.00001964,-0.00259978,0.00070770,-0.00014796,-0.30852048,-0.0786195
 6,-0.00522486,-0.00123466,0.00402832,-0.00034388,-0.01808347,-0.009324
 53,-0.00032169,0.00004091,0.00008060,-0.00000529,-0.00028774,0.0003164
 8,0.00000012,-0.00052062,-0.00095328,-0.00000194,-0.00003672,0.0000023
 1,0.00000455,-0.00002366,-0.00001413,-0.00000209,-0.00011919,-0.000040
 25,-0.00000102,-0.00000718,0.00006442,-0.00000413,0.00090275,0.0003160
 2,0.00013861,0.32774822,-0.00114205,0.00061549,-0.00003370,-0.00006452
 ,-0.00033157,0.00000589,-0.00015668,-0.00015220,-0.00001340,-0.0006584
 4,-0.00599566,0.00026926,0.00078056,-0.00086604,0.00002340,-0.03014924
 ,-0.00499275,-0.00060853,-0.07904044,-0.08342125,-0.00089179,0.0034439
 1,-0.00291735,0.00036200,0.02196390,0.00983781,0.00040727,-0.00008609,
 -0.00010662,0.00000453,0.00032248,-0.00011684,-0.00000318,0.00045001,0
 .00086879,0.00000139,-0.00016085,0.00007932,-0.00001137,-0.00000848,0.
 00001230,0.00000117,0.00010057,0.00004694,0.00000042,-0.00000974,-0.00
 002655,0.00000262,-0.00038602,0.00088359,-0.00014743,0.08437208,0.0856
 6571,0.00001324,0.00000480,0.00049770,0.00000201,0.00000402,-0.0000328
 0,0.00001835,-0.00001106,-0.00052109,-0.00009077,0.00025549,0.00563159
 ,0.00001485,0.00001797,-0.00075131,0.00060866,0.00019909,0.00241380,-0
 .00520353,-0.00087916,-0.03560487,-0.00032912,0.00037799,0.00803963,-0
 .00110104,-0.00041459,0.00295404,-0.00000130,0.00000910,0.00016736,-0.
 00000006,-0.00000285,-0.00058740,-0.00003717,-0.00003545,0.00044376,0.
 00000855,-0.00000704,-0.00021093,-0.00000220,0.00000098,0.00006806,-0.
 00000452,-0.00000332,-0.00004263,-0.00000228,0.00000454,0.00008942,0.0
 0015643,-0.00012873,-0.00466707,0.00585753,0.00072151,0.02530621,0.001
 72728,0.00016526,0.00012956,-0.00023390,-0.00005769,-0.00000399,-0.000
 43544,0.00169083,-0.00005872,-0.01702470,0.02279164,-0.00109271,-0.004
 08407,-0.00352961,-0.00024234,-0.21566402,0.13531777,-0.00805521,0.007
 84971,-0.00598937,0.00029728,-0.00043706,-0.00064700,0.00002131,0.0010
 6782,-0.00187768,-0.00007931,-0.00039513,-0.00039030,0.00001502,-0.000
 02936,-0.00014447,-0.00000306,0.00027723,0.00001359,0.00003613,0.00002
 758,-0.00008735,0.00000095,-0.00014919,0.00011162,-0.00000624,-0.00001
 579,0.00001619,-0.00000252,-0.00003739,0.00006164,-0.00000391,0.000210
 02,-0.00034150,0.00000692,0.00074613,0.00046897,0.00009202,0.22720754,
 0.00053997,0.00039107,-0.00007682,0.00016618,-0.00001959,0.00000380,-0
 .00035426,0.00071209,-0.00002166,-0.00732916,0.01043751,-0.00036868,-0
 .00271623,0.00024990,0.00012944,0.13426799,-0.17560547,0.00696553,0.02
 490591,-0.01493625,0.00107365,-0.00083542,-0.00018124,-0.00003331,-0.0
 0296340,-0.00443694,0.00017424,-0.00005840,-0.00004460,-0.00001530,-0.
 00001802,-0.00005732,0.00000636,0.00016271,0.00007207,-0.00002464,0.00
 004633,-0.00001912,0.00000350,-0.00004300,0.00003679,-0.00000237,0.000
 02304,-0.00000129,0.00000221,-0.00004930,0.00001699,-0.00000040,0.0011
 4724,-0.00090691,0.00005962,-0.00039019,0.00101168,-0.00011343,-0.1467
 6400,0.18304499,0.00011985,-0.00008745,-0.00334857,-0.00000929,-0.0000
 0209,-0.00003813,-0.00000862,0.00003216,0.00021172,-0.00035630,0.00042
 317,0.00325108,-0.00026357,0.00010861,0.00845612,-0.00802462,0.0069915
 6,-0.03547315,-0.00046102,0.00026296,0.00211474,0.00002497,-0.00002829
 ,-0.00064660,-0.00005254,0.00020402,0.00585414,0.00000691,-0.00002388,
 -0.00060337,-0.00000655,0.00000273,0.00022175,0.00003323,-0.00002893,-
 0.00110769,-0.00000245,0.00000002,0.00007375,-0.00000250,0.00000170,-0
 .00001544,-0.00000267,0.00000206,0.00006421,-0.00000118,0.00000254,0.0
 0005345,-0.00002985,0.00002018,0.00027337,0.00011321,-0.00009167,-0.00
 320082,0.00893408,-0.00775227,0.02427116,-0.06017205,0.03646543,0.0561
 7454,-0.00953245,0.01961323,0.02160372,-0.00361994,-0.00085962,-0.0001
 1756,0.00459423,-0.00789157,-0.01341890,-0.00130241,-0.00173891,0.0011
 5388,0.00076158,-0.00029613,0.00054270,0.00023467,-0.00006872,0.000520
 66,0.00015347,0.00031049,0.00054388,-0.00017103,-0.00046332,-0.0001130
 6,-0.00002063,0.00133049,-0.00152992,-0.00027170,-0.00024685,-0.000121
 69,-0.00008245,0.00020722,-0.00004778,0.00014957,-0.00068857,-0.000809
 13,-0.00002307,-0.00000943,0.00008616,-0.00000246,0.00010489,0.0001726
 4,0.00006152,-0.00003313,-0.00001583,-0.00000816,0.00002345,0.00000878
 ,-0.00000769,-0.00001983,-0.00003577,-0.00029362,0.00012913,-0.0002310
 1,0.06671170,0.03426519,-0.11846496,-0.11263425,0.00476099,-0.00435361
 ,-0.00253724,-0.00022143,0.00067259,-0.00110550,0.00737219,-0.01615228
 ,-0.02021729,-0.00163147,-0.00243552,0.00013837,0.00068709,0.00082218,
 0.00086677,0.00012214,-0.00042744,0.00112559,0.00041604,-0.00051226,0.
 00130387,-0.00019791,-0.00011223,-0.00011235,0.00078802,-0.00094583,0.
 00029291,0.00042046,0.00046251,0.00006434,-0.00045333,-0.00008991,-0.0
 0001241,0.00027653,0.00006701,0.00012468,0.00003948,-0.00001895,0.0000
 0413,0.00002264,-0.00001523,-0.00000887,0.00006467,-0.00007632,-0.0000
 2404,-0.00001970,-0.00001851,-0.00018534,-0.00004608,-0.00005026,-0.00
 007331,-0.00038869,0.00009589,-0.00077794,-0.04207679,0.13250528,0.052
 64348,-0.11067061,-0.19416174,0.00105185,0.00201237,0.00360781,-0.0004
 8872,0.00103340,-0.00046621,-0.00185249,0.00129648,0.00189574,-0.00028
 349,0.00053925,-0.00027316,0.00037155,-0.00006713,0.00073462,-0.000023
 32,-0.00037577,0.00010716,-0.00004386,0.00010654,-0.00033747,-0.000239
 10,0.00009553,-0.00004817,0.00017737,-0.00008493,-0.00039375,0.0000271
 1,0.00015603,0.00003841,-0.00005395,0.00003268,0.00000842,0.00058884,-
 0.00031642,0.00019620,0.00000476,-0.00000381,-0.00000467,0.00000838,0.
 00000881,0.00003649,-0.00001194,0.00000355,0.00003638,-0.00000735,-0.0
 0000210,-0.00001509,-0.00001562,-0.00003832,0.00000511,-0.00015275,-0.
 00013839,-0.00019358,-0.05885469,0.12103515,0.21343754,-0.05467109,0.0
 2795974,-0.05005165,-0.00829090,0.01856637,-0.02319259,-0.00363581,-0.
 00080585,-0.00000758,0.00376736,-0.00716298,0.01391973,-0.00125633,-0.
 00176462,-0.00112052,0.00081172,-0.00032557,-0.00052438,0.00026143,-0.
 00011595,-0.00050941,0.00017792,0.00028947,-0.00053281,-0.00019088,-0.
 00045224,0.00012816,-0.00009291,0.00139904,0.00148005,-0.00027616,-0.0
 0023417,0.00011660,-0.00008682,0.00021154,0.00003235,0.00013709,-0.000
 66374,0.00083999,-0.00001815,-0.00001377,-0.00008646,0.00000728,0.0000
 9622,-0.00017927,0.00005997,-0.00003215,0.00001876,-0.00000811,0.00002
 287,-0.00000942,-0.00001044,-0.00002011,0.00003611,-0.00031364,0.00013
 289,0.00021992,0.00284092,-0.00420003,0.00715395,0.06078757,0.02583318
 ,-0.10730729,0.10965353,0.00454152,-0.00427810,0.00315448,-0.00026148,
 0.00067454,0.00103585,0.00634143,-0.01517988,0.02146759,-0.00160564,-0
 .00246108,-0.00011895,0.00071006,0.00078164,-0.00083367,0.00018240,-0.
 00046180,-0.00109059,0.00048368,-0.00058088,-0.00127060,-0.00019142,-0
 .00011341,0.00010580,0.00079436,-0.00095472,-0.00022369,0.00042269,0.0
 0045262,-0.00006232,-0.00045129,-0.00009042,-0.00000627,0.00025236,0.0
 0007632,-0.00010372,0.00003925,-0.00001888,-0.00000138,0.00002162,-0.0
 0001487,0.00001247,0.00006354,-0.00007487,0.00003307,-0.00002892,-0.00
 000921,0.00018370,-0.00004911,-0.00004453,0.00007345,-0.00041983,0.000
 13978,0.00074082,-0.00379146,0.00904785,-0.01462231,-0.03288695,0.1204
 1719,-0.04639696,0.10779128,-0.21067352,-0.00192608,-0.00062448,0.0022
 6137,0.00032713,-0.00113512,-0.00044187,0.00163402,-0.00081032,0.00171
 867,0.00031567,-0.00052048,-0.00028500,-0.00040675,0.00004436,0.000727
 06,0.00002278,0.00040068,0.00011779,0.00004661,-0.00007831,-0.00029520
 ,0.00024179,-0.00011714,-0.00002942,-0.00020155,0.00018766,-0.00031818
 ,-0.00006507,-0.00018906,0.00005402,0.00007114,-0.00001625,0.00001494,
 -0.00060523,0.00028684,0.00019921,-0.00000735,0.00000373,-0.00000967,-
 0.00001100,-0.00000112,0.00002642,0.00000997,0.00000035,0.00003660,0.0
 0000919,0.00000306,-0.00002452,0.00001732,0.00003994,0.00000224,0.0001
 6750,0.00012892,-0.00021814,-0.00551161,0.01273273,-0.02421004,0.05226
 847,-0.11812727,0.23134725\\0.00004538,-0.00001664,0.00004684,-0.00001
 366,0.00000838,-0.00001202,0.00000452,0.00003767,0.00000760,0.00002072
 ,-0.00000101,-0.00000632,-0.00002620,0.00001743,0.00000870,-0.00003380
 ,-0.00000106,0.00000171,0.00000401,-0.00003520,-0.00003483,-0.00000976
 ,0.00001204,-0.00001427,-0.00003738,0.00000823,0.00002842,0.00002647,-
 0.00001725,-0.00002378,0.00001137,-0.00000132,-0.00001380,0.00002843,-
 0.00001548,0.00000715,-0.00000321,0.00000702,0.00000349,-0.00000307,0.
 00000060,0.00001037,0.00000086,0.00000396,0.00000967,0.00000844,0.0000
 0626,-0.00000037,0.00000305,0.00000262,-0.00000142,0.00000455,-0.00000
 663,0.00000574,-0.00000478,-0.00001129,0.00000776,-0.00001467,0.000003
 93,-0.00001484,-0.00001127,-0.00000224,-0.00001580\\\@


 THERE IS SOMETHING FASCINATING ABOUT SCIENCE.
 ONE GETS SUCH WHOLESALE CONJECTURE OUT OF SUCH TRIFLING INVESTMENTS.

                                                       -- MARK TWAIN
 Job cpu time:       0 days  0 hours 58 minutes 38.5 seconds.
 File lengths (MBytes):  RWF=    306 Int=      0 D2E=      0 Chk=      8 Scr=      1
 Normal termination of Gaussian 09 at Mon Oct 14 18:47:21 2019.
