 Entering Gaussian System, Link 0=g09
 Initial command:
 /usr/local/Cluster-Apps/gaussian/g09/l1.exe "/rds/user/am2145/hpc-work/scratch/46249556/Gau-226675.inp" -scrdir="/rds/user/am2145/hpc-work/scratch/46249556/"
 Entering Link 1 = /usr/local/Cluster-Apps/gaussian/g09/l1.exe PID=    226676.
  
 Copyright (c) 1988,1990,1992,1993,1995,1998,2003,2009,2013,
            Gaussian, Inc.  All Rights Reserved.
  
 This is part of the Gaussian(R) 09 program.  It is based on
 the Gaussian(R) 03 system (copyright 2003, Gaussian, Inc.),
 the Gaussian(R) 98 system (copyright 1998, Gaussian, Inc.),
 the Gaussian(R) 94 system (copyright 1995, Gaussian, Inc.),
 the Gaussian 92(TM) system (copyright 1992, Gaussian, Inc.),
 the Gaussian 90(TM) system (copyright 1990, Gaussian, Inc.),
 the Gaussian 88(TM) system (copyright 1988, Gaussian, Inc.),
 the Gaussian 86(TM) system (copyright 1986, Carnegie Mellon
 University), and the Gaussian 82(TM) system (copyright 1983,
 Carnegie Mellon University). Gaussian is a federally registered
 trademark of Gaussian, Inc.
  
 This software contains proprietary and confidential information,
 including trade secrets, belonging to Gaussian, Inc.
  
 This software is provided under written license and may be
 used, copied, transmitted, or stored only in accord with that
 written license.
  
 The following legend is applicable only to US Government
 contracts under FAR:
  
                    RESTRICTED RIGHTS LEGEND
  
 Use, reproduction and disclosure by the US Government is
 subject to restrictions as set forth in subparagraphs (a)
 and (c) of the Commercial Computer Software - Restricted
 Rights clause in FAR 52.227-19.
  
 Gaussian, Inc.
 340 Quinnipiac St., Bldg. 40, Wallingford CT 06492
  
  
 ---------------------------------------------------------------
 Warning -- This program may not be used in any manner that
 competes with the business of Gaussian, Inc. or will provide
 assistance to any competitor of Gaussian, Inc.  The licensee
 of this program is prohibited from giving any competitor of
 Gaussian, Inc. access to this program.  By using this program,
 the user acknowledges that Gaussian, Inc. is engaged in the
 business of creating and licensing software in the field of
 computational chemistry and represents and warrants to the
 licensee that it is not a competitor of Gaussian, Inc. and that
 it will not use this program in any manner prohibited above.
 ---------------------------------------------------------------
  

 Cite this work as:
 Gaussian 09, Revision D.01,
 M. J. Frisch, G. W. Trucks, H. B. Schlegel, G. E. Scuseria, 
 M. A. Robb, J. R. Cheeseman, G. Scalmani, V. Barone, B. Mennucci, 
 G. A. Petersson, H. Nakatsuji, M. Caricato, X. Li, H. P. Hratchian, 
 A. F. Izmaylov, J. Bloino, G. Zheng, J. L. Sonnenberg, M. Hada, 
 M. Ehara, K. Toyota, R. Fukuda, J. Hasegawa, M. Ishida, T. Nakajima, 
 Y. Honda, O. Kitao, H. Nakai, T. Vreven, J. A. Montgomery, Jr., 
 J. E. Peralta, F. Ogliaro, M. Bearpark, J. J. Heyd, E. Brothers, 
 K. N. Kudin, V. N. Staroverov, T. Keith, R. Kobayashi, J. Normand, 
 K. Raghavachari, A. Rendell, J. C. Burant, S. S. Iyengar, J. Tomasi, 
 M. Cossi, N. Rega, J. M. Millam, M. Klene, J. E. Knox, J. B. Cross, 
 V. Bakken, C. Adamo, J. Jaramillo, R. Gomperts, R. E. Stratmann, 
 O. Yazyev, A. J. Austin, R. Cammi, C. Pomelli, J. W. Ochterski, 
 R. L. Martin, K. Morokuma, V. G. Zakrzewski, G. A. Voth, 
 P. Salvador, J. J. Dannenberg, S. Dapprich, A. D. Daniels, 
 O. Farkas, J. B. Foresman, J. V. Ortiz, J. Cioslowski, 
 and D. J. Fox, Gaussian, Inc., Wallingford CT, 2013.
 
 ******************************************
 Gaussian 09:  ES64L-G09RevD.01 24-Apr-2013
                 7-Sep-2021 
 ******************************************
 %NProcShared=20
 Will use up to   20 processors via shared memory.
 %mem=32GB
 %Chk=ethanol_scan.chk
 ------------------------------------
 #n B3LYP/6-31G(d,p) Opt=ModRedundant
 ------------------------------------
 1/14=-1,18=120,19=15,26=3,38=1/1,3;
 2/9=110,12=2,17=6,18=5,40=1/2;
 3/5=1,6=6,7=101,11=2,16=1,25=1,30=1,71=1,74=-5/1,2,3;
 4//1;
 5/5=2,38=5/2;
 6/7=2,8=2,9=2,10=2,28=1/1;
 7//1,2,3,16;
 1/14=-1,18=20,19=15,26=3/3(2);
 2/9=110/2;
 99//99;
 2/9=110/2;
 3/5=1,6=6,7=101,11=2,16=1,25=1,30=1,71=1,74=-5/1,2,3;
 4/5=5,16=3,69=1/1;
 5/5=2,38=5/2;
 7//1,2,3,16;
 1/14=-1,18=20,19=15,26=3/3(-5);
 2/9=110/2;
 6/7=2,8=2,9=2,10=2,19=2,28=1/1;
 99/9=1/99;
 ------------
 ethanol_scan
 ------------
 Symbolic Z-matrix:
 Charge =  0 Multiplicity = 1
 C                     1.03718   0.13842   0.36225 
 C                     2.04981  -0.55127  -0.52673 
 O                     3.26361   0.18476  -0.50271 
 H                     1.40951   0.20761   1.38972 
 H                     0.08772  -0.40413   0.36662 
 H                     0.85736   1.16283   0.01969 
 H                     2.24614  -1.5665   -0.16922 
 H                     1.68657  -0.5984   -1.5577 
 H                     3.89144  -0.28137  -1.08072 
 
 The following ModRedundant input section has been read:
 A       2       3       9 S   7 10.000                                        
 

 GradGradGradGradGradGradGradGradGradGradGradGradGradGradGradGradGradGrad
 Berny optimization.
 Initialization pass.
                           ----------------------------
                           !    Initial Parameters    !
                           ! (Angstroms and Degrees)  !
 --------------------------                            --------------------------
 ! Name  Definition              Value          Derivative Info.                !
 --------------------------------------------------------------------------------
 ! R1    R(1,2)                  1.5137         estimate D2E/DX2                !
 ! R2    R(1,4)                  1.095          estimate D2E/DX2                !
 ! R3    R(1,5)                  1.0936         estimate D2E/DX2                !
 ! R4    R(1,6)                  1.095          estimate D2E/DX2                !
 ! R5    R(2,3)                  1.4197         estimate D2E/DX2                !
 ! R6    R(2,7)                  1.0941         estimate D2E/DX2                !
 ! R7    R(2,8)                  1.0941         estimate D2E/DX2                !
 ! R8    R(3,9)                  0.9724         estimate D2E/DX2                !
 ! A1    A(2,1,4)              110.6324         estimate D2E/DX2                !
 ! A2    A(2,1,5)              110.9231         estimate D2E/DX2                !
 ! A3    A(2,1,6)              110.6325         estimate D2E/DX2                !
 ! A4    A(4,1,5)              108.8331         estimate D2E/DX2                !
 ! A5    A(4,1,6)              106.8731         estimate D2E/DX2                !
 ! A6    A(5,1,6)              108.833          estimate D2E/DX2                !
 ! A7    A(1,2,3)              109.0133         estimate D2E/DX2                !
 ! A8    A(1,2,7)              110.5437         estimate D2E/DX2                !
 ! A9    A(1,2,8)              110.5437         estimate D2E/DX2                !
 ! A10   A(3,2,7)              108.7908         estimate D2E/DX2                !
 ! A11   A(3,2,8)              108.791          estimate D2E/DX2                !
 ! A12   A(7,2,8)              109.1178         estimate D2E/DX2                !
 ! A13   A(2,3,9)              107.0635         Scan                            !
 ! D1    D(4,1,2,3)            -59.1193         estimate D2E/DX2                !
 ! D2    D(4,1,2,7)             60.417          estimate D2E/DX2                !
 ! D3    D(4,1,2,8)           -178.6559         estimate D2E/DX2                !
 ! D4    D(5,1,2,3)           -179.9992         estimate D2E/DX2                !
 ! D5    D(5,1,2,7)            -60.4629         estimate D2E/DX2                !
 ! D6    D(5,1,2,8)             60.4643         estimate D2E/DX2                !
 ! D7    D(6,1,2,3)             59.1209         estimate D2E/DX2                !
 ! D8    D(6,1,2,7)            178.6573         estimate D2E/DX2                !
 ! D9    D(6,1,2,8)            -60.4156         estimate D2E/DX2                !
 ! D10   D(1,2,3,9)            179.9992         estimate D2E/DX2                !
 ! D11   D(7,2,3,9)             59.3811         estimate D2E/DX2                !
 ! D12   D(8,2,3,9)            -59.3825         estimate D2E/DX2                !
 --------------------------------------------------------------------------------
 Trust Radius=3.00D-01 FncErr=1.00D-07 GrdErr=1.00D-06
 Number of optimizations in scan=   8
 Number of steps in this run=     43 maximum allowed number of steps=    100.
 GradGradGradGradGradGradGradGradGradGradGradGradGradGradGradGradGradGrad

                          Input orientation:                          
 ---------------------------------------------------------------------
 Center     Atomic      Atomic             Coordinates (Angstroms)
 Number     Number       Type             X           Y           Z
 ---------------------------------------------------------------------
      1          6           0        1.037180    0.138420    0.362250
      2          6           0        2.049810   -0.551270   -0.526730
      3          8           0        3.263610    0.184760   -0.502710
      4          1           0        1.409510    0.207610    1.389720
      5          1           0        0.087720   -0.404130    0.366620
      6          1           0        0.857360    1.162830    0.019690
      7          1           0        2.246140   -1.566500   -0.169220
      8          1           0        1.686570   -0.598400   -1.557700
      9          1           0        3.891440   -0.281370   -1.080720
 ---------------------------------------------------------------------
                    Distance matrix (angstroms):
                    1          2          3          4          5
     1  C    0.000000
     2  C    1.513730   0.000000
     3  O    2.388994   1.419728   0.000000
     4  H    1.095039   2.158394   2.649434   0.000000
     5  H    1.093551   2.160908   3.344967   1.779912   0.000000
     6  H    1.095034   2.158391   2.649446   1.759061   1.779907
     7  H    2.156571   1.094098   2.052650   2.505536   2.509383
     8  H    2.156576   1.094104   2.052656   3.068175   2.509396
     9  H    3.225707   1.941997   0.972390   3.535838   4.071627
                    6          7          8          9
     6  H    0.000000
     7  H    3.068165   0.000000
     8  H    2.505530   1.782754   0.000000
     9  H    3.535853   2.278026   2.278041   0.000000
 Stoichiometry    C2H6O
 Framework group  C1[X(C2H6O)]
 Deg. of freedom    21
 Full point group                 C1      NOp   1
 Largest Abelian subgroup         C1      NOp   1
 Largest concise Abelian subgroup C1      NOp   1
                         Standard orientation:                         
 ---------------------------------------------------------------------
 Center     Atomic      Atomic             Coordinates (Angstroms)
 Number     Number       Type             X           Y           Z
 ---------------------------------------------------------------------
      1          6           0       -1.229190   -0.209832    0.000000
      2          6           0        0.086364    0.538964   -0.000001
      3          8           0        1.152321   -0.398780    0.000003
      4          1           0       -1.304345   -0.857829   -0.879524
      5          1           0       -2.073862    0.484706   -0.000017
      6          1           0       -1.304360   -0.857799    0.879538
      7          1           0        0.170203    1.167826   -0.891379
      8          1           0        0.170201    1.167838    0.891376
      9          1           0        1.980552    0.110706   -0.000011
 ---------------------------------------------------------------------
 Rotational constants (GHZ):     35.8671159      9.2977650      8.1350547
 Standard basis: 6-31G(d,p) (6D, 7F)
 There are    75 symmetry adapted cartesian basis functions of A   symmetry.
 There are    75 symmetry adapted basis functions of A   symmetry.
    75 basis functions,   126 primitive gaussians,    75 cartesian basis functions
    13 alpha electrons       13 beta electrons
       nuclear repulsion energy        81.8050857854 Hartrees.
 NAtoms=    9 NActive=    9 NUniq=    9 SFac= 1.00D+00 NAtFMM=   60 NAOKFM=F Big=F
 Integral buffers will be    131072 words long.
 Raffenetti 2 integral format.
 Two-electron integral symmetry is turned on.
 One-electron integrals computed using PRISM.
 NBasis=    75 RedAO= T EigKep=  5.57D-03  NBF=    75
 NBsUse=    75 1.00D-06 EigRej= -1.00D+00 NBFU=    75
 ExpMin= 1.61D-01 ExpMax= 5.48D+03 ExpMxC= 8.25D+02 IAcc=1 IRadAn=         1 AccDes= 0.00D+00
 Harris functional with IExCor=  402 and IRadAn=       1 diagonalized for initial guess.
 HarFok:  IExCor=  402 AccDes= 0.00D+00 IRadAn=         1 IDoV= 1 UseB2=F ITyADJ=14
 ICtDFT=  3500011 ScaDFX=  1.000000  1.000000  1.000000  1.000000
 FoFCou: FMM=F IPFlag=           0 FMFlag=      100000 FMFlg1=           0
         NFxFlg=           0 DoJE=T BraDBF=F KetDBF=T FulRan=T
         wScrn=  0.000000 ICntrl=     500 IOpCl=  0 I1Cent=   200000004 NGrid=           0
         NMat0=    1 NMatS0=      1 NMatT0=    0 NMatD0=    1 NMtDS0=    0 NMtDT0=    0
 Petite list used in FoFCou.
 Keep R1 ints in memory in canonical form, NReq=4994339.
 Requested convergence on RMS density matrix=1.00D-08 within 128 cycles.
 Requested convergence on MAX density matrix=1.00D-06.
 Requested convergence on             energy=1.00D-06.
 No special actions if energy rises.
 Integral accuracy reduced to 1.0D-05 until final iterations.
 Initial convergence to 1.0D-05 achieved.  Increase integral accuracy.
 SCF Done:  E(RB3LYP) =  -155.045479075     A.U. after   12 cycles
            NFock= 12  Conv=0.23D-08     -V/T= 2.0090

 **********************************************************************

            Population analysis using the SCF density.

 **********************************************************************

 Orbital symmetries:
       Occupied  (A) (A) (A) (A) (A) (A) (A) (A) (A) (A) (A) (A)
                 (A)
       Virtual   (A) (A) (A) (A) (A) (A) (A) (A) (A) (A) (A) (A)
                 (A) (A) (A) (A) (A) (A) (A) (A) (A) (A) (A) (A)
                 (A) (A) (A) (A) (A) (A) (A) (A) (A) (A) (A) (A)
                 (A) (A) (A) (A) (A) (A) (A) (A) (A) (A) (A) (A)
                 (A) (A) (A) (A) (A) (A) (A) (A) (A) (A) (A) (A)
                 (A) (A)
 The electronic state is 1-A.
 Alpha  occ. eigenvalues --  -19.13490 -10.22600 -10.17233  -1.00828  -0.74370
 Alpha  occ. eigenvalues --   -0.60564  -0.50690  -0.46168  -0.39712  -0.37974
 Alpha  occ. eigenvalues --   -0.36006  -0.32319  -0.25937
 Alpha virt. eigenvalues --    0.07617   0.12142   0.15717   0.16396   0.17560
 Alpha virt. eigenvalues --    0.19923   0.21621   0.24087   0.52077   0.55118
 Alpha virt. eigenvalues --    0.55739   0.58017   0.67050   0.67090   0.77731
 Alpha virt. eigenvalues --    0.83816   0.85598   0.87578   0.88899   0.91592
 Alpha virt. eigenvalues --    0.97524   1.00648   1.01125   1.13034   1.33321
 Alpha virt. eigenvalues --    1.35864   1.37160   1.59470   1.60688   1.65767
 Alpha virt. eigenvalues --    1.67460   1.87287   1.95093   1.97430   2.04474
 Alpha virt. eigenvalues --    2.04510   2.06878   2.08992   2.12004   2.27205
 Alpha virt. eigenvalues --    2.29944   2.34920   2.40887   2.45628   2.58736
 Alpha virt. eigenvalues --    2.66003   2.69765   2.73412   2.75706   2.80888
 Alpha virt. eigenvalues --    2.89863   2.89981   2.97655   3.18435   3.29455
 Alpha virt. eigenvalues --    3.38672   3.42899   3.47921   3.53112   3.87695
 Alpha virt. eigenvalues --    4.33238   4.58809
          Condensed to atoms (all electrons):
               1          2          3          4          5          6
     1  C    4.936738   0.383243  -0.055651   0.382181   0.369414   0.382182
     2  C    0.383243   4.674059   0.244517  -0.031263  -0.027624  -0.031263
     3  O   -0.055651   0.244517   8.148330   0.002542   0.002984   0.002541
     4  H    0.382181  -0.031263   0.002542   0.593114  -0.028287  -0.034158
     5  H    0.369414  -0.027624   0.002984  -0.028287   0.611814  -0.028288
     6  H    0.382182  -0.031263   0.002541  -0.034158  -0.028288   0.593112
     7  H   -0.042270   0.376264  -0.042361  -0.008136  -0.000299   0.006394
     8  H   -0.042270   0.376263  -0.042361   0.006394  -0.000298  -0.008136
     9  H    0.007059  -0.024271   0.278617  -0.000081  -0.000336  -0.000081
               7          8          9
     1  C   -0.042270  -0.042270   0.007059
     2  C    0.376264   0.376263  -0.024271
     3  O   -0.042361  -0.042361   0.278617
     4  H   -0.008136   0.006394  -0.000081
     5  H   -0.000299  -0.000298  -0.000336
     6  H    0.006394  -0.008136  -0.000081
     7  H    0.694316  -0.058870  -0.004939
     8  H   -0.058870   0.694319  -0.004939
     9  H   -0.004939  -0.004939   0.445367
 Mulliken charges:
               1
     1  C   -0.320625
     2  C    0.060073
     3  O   -0.539159
     4  H    0.117695
     5  H    0.100919
     6  H    0.117696
     7  H    0.079899
     8  H    0.079898
     9  H    0.303604
 Sum of Mulliken charges =   0.00000
 Mulliken charges with hydrogens summed into heavy atoms:
               1
     1  C    0.015685
     2  C    0.219870
     3  O   -0.235555
 Electronic spatial extent (au):  <R**2>=            193.3369
 Charge=              0.0000 electrons
 Dipole moment (field-independent basis, Debye):
    X=              0.2128    Y=              1.5326    Z=              0.0000  Tot=              1.5473
 Quadrupole moment (field-independent basis, Debye-Ang):
   XX=            -16.7028   YY=            -20.3754   ZZ=            -19.8913
   XY=              2.0319   XZ=             -0.0001   YZ=              0.0000
 Traceless Quadrupole moment (field-independent basis, Debye-Ang):
   XX=              2.2870   YY=             -1.3856   ZZ=             -0.9014
   XY=              2.0319   XZ=             -0.0001   YZ=              0.0000
 Octapole moment (field-independent basis, Debye-Ang**2):
  XXX=             15.3770  YYY=             -1.1032  ZZZ=              0.0000  XYY=              0.8750
  XXY=              2.6060  XXZ=             -0.0001  XZZ=              1.4843  YZZ=             -0.4639
  YYZ=              0.0000  XYZ=              0.0000
 Hexadecapole moment (field-independent basis, Debye-Ang**3):
 XXXX=           -132.2212 YYYY=            -55.8781 ZZZZ=            -32.4342 XXXY=              0.4549
 XXXZ=             -0.0002 YYYX=             -0.8003 YYYZ=              0.0000 ZZZX=             -0.0001
 ZZZY=              0.0000 XXYY=            -35.2444 XXZZ=            -32.3327 YYZZ=            -13.7254
 XXYZ=             -0.0001 YYXZ=              0.0000 ZZXY=              0.7487
 N-N= 8.180508578542D+01 E-N=-5.255926759593D+02  KE= 1.536685002643D+02
 Calling FoFJK, ICntrl=      2127 FMM=F ISym2X=0 I1Cent= 0 IOpClX= 0 NMat=1 NMatS=1 NMatT=0.
 ***** Axes restored to original set *****
 -------------------------------------------------------------------
 Center     Atomic                   Forces (Hartrees/Bohr)
 Number     Number              X              Y              Z
 -------------------------------------------------------------------
      1        6           0.000495558    0.004324355    0.002818789
      2        6           0.005258325    0.001637769   -0.000980222
      3        8           0.009193738    0.002826380   -0.001734642
      4        1          -0.000131662   -0.001738416   -0.000246892
      5        1          -0.000280965   -0.000210042   -0.000033170
      6        1          -0.000578126   -0.000963264   -0.001354500
      7        1          -0.004522793   -0.006128968    0.000048399
      8        1          -0.005743313   -0.004014719   -0.002980018
      9        1          -0.003690764    0.004266904    0.004462255
 -------------------------------------------------------------------
 Cartesian Forces:  Max     0.009193738 RMS     0.003484219

 GradGradGradGradGradGradGradGradGradGradGradGradGradGradGradGradGradGrad
 Berny optimization.
 FormGI is forming the generalized inverse of G from B-inverse, IUseBI=4.
 Internal  Forces:  Max     0.008428856 RMS     0.003117824
 Search for a local minimum.
 Step number   1 out of a maximum of   43 on scan point     1 out of     8
 All quantities printed in internal units (Hartrees-Bohrs-Radians)
 Mixed Optimization -- RFO/linear search
 Second derivative matrix not updated -- first step.
 ITU=  0
     Eigenvalues ---    0.00584   0.01431   0.05359   0.05653   0.05781
     Eigenvalues ---    0.05876   0.11372   0.13715   0.16000   0.16000
     Eigenvalues ---    0.16000   0.22035   0.30979   0.34237   0.34237
     Eigenvalues ---    0.34343   0.34343   0.34405   0.42501   0.52891
     Eigenvalues --- 1000.000001000.000001000.000001000.000001000.00000
     Eigenvalues --- 1000.000001000.000001000.000001000.000001000.00000
     Eigenvalues --- 1000.000001000.000001000.00000
 RFO step:  Lambda=-1.60056505D-03 EMin= 5.84331363D-03
 Linear search not attempted -- first point.
 Iteration  1 RMS(Cart)=  0.02446520 RMS(Int)=  0.00051741
 Iteration  2 RMS(Cart)=  0.00041809 RMS(Int)=  0.00033987
 Iteration  3 RMS(Cart)=  0.00000016 RMS(Int)=  0.00033987
 Iteration  1 RMS(Cart)=  0.00000000 RMS(Int)=  0.00000000
 Variable       Old X    -DE/DX   Delta X   Delta X   Delta X     New X
                                 (Linear)    (Quad)   (Total)
    R1        2.86053   0.00167   0.00000   0.00536   0.00536   2.86590
    R2        2.06932  -0.00039   0.00000  -0.00112  -0.00112   2.06820
    R3        2.06651   0.00035   0.00000   0.00101   0.00101   2.06752
    R4        2.06931  -0.00038   0.00000  -0.00111  -0.00111   2.06820
    R5        2.68290   0.00843   0.00000   0.01976   0.01976   2.70265
    R6        2.06755   0.00489   0.00000   0.01418   0.01418   2.08172
    R7        2.06756   0.00489   0.00000   0.01417   0.01417   2.08172
    R8        1.83755  -0.00708   0.00000  -0.01335  -0.01335   1.82420
    A1        1.93090  -0.00074   0.00000  -0.00265  -0.00267   1.92823
    A2        1.93597  -0.00011   0.00000  -0.00452  -0.00455   1.93143
    A3        1.93090  -0.00074   0.00000  -0.00265  -0.00267   1.92823
    A4        1.89950   0.00001   0.00000  -0.00360  -0.00363   1.89587
    A5        1.86529   0.00164   0.00000   0.01775   0.01775   1.88304
    A6        1.89949   0.00001   0.00000  -0.00360  -0.00362   1.89587
    A7        1.90264  -0.00675   0.00000  -0.02261  -0.02235   1.88030
    A8        1.92935  -0.00094   0.00000  -0.01896  -0.01905   1.91030
    A9        1.92935  -0.00094   0.00000  -0.01896  -0.01906   1.91030
   A10        1.89876   0.00541   0.00000   0.04630   0.04603   1.94479
   A11        1.89876   0.00541   0.00000   0.04629   0.04603   1.94479
   A12        1.90446  -0.00195   0.00000  -0.02972  -0.03117   1.87329
   A13        1.86861   0.00233   0.00000   0.00000   0.00000   1.86861
    D1       -1.03183  -0.00055   0.00000  -0.00934  -0.00934  -1.04117
    D2        1.05448   0.00129   0.00000   0.02187   0.02167   1.07615
    D3       -3.11813  -0.00240   0.00000  -0.04055  -0.04034   3.12471
    D4       -3.14158   0.00000   0.00000  -0.00001  -0.00001  -3.14159
    D5       -1.05528   0.00185   0.00000   0.03120   0.03100  -1.02427
    D6        1.05530  -0.00185   0.00000  -0.03121  -0.03101   1.02429
    D7        1.03185   0.00055   0.00000   0.00933   0.00932   1.04118
    D8        3.11816   0.00240   0.00000   0.04054   0.04033  -3.12469
    D9       -1.05445  -0.00129   0.00000  -0.02188  -0.02168  -1.07613
   D10        3.14158   0.00000   0.00000   0.00000   0.00000   3.14158
   D11        1.03640   0.00194   0.00000   0.00875   0.00953   1.04593
   D12       -1.03642  -0.00194   0.00000  -0.00874  -0.00953  -1.04595
         Item               Value     Threshold  Converged?
 Maximum Force            0.008429     0.000450     NO 
 RMS     Force            0.003139     0.000300     NO 
 Maximum Displacement     0.063140     0.001800     NO 
 RMS     Displacement     0.024349     0.001200     NO 
 Predicted change in Energy=-8.086246D-04
 GradGradGradGradGradGradGradGradGradGradGradGradGradGradGradGradGradGrad

                          Input orientation:                          
 ---------------------------------------------------------------------
 Center     Atomic      Atomic             Coordinates (Angstroms)
 Number     Number       Type             X           Y           Z
 ---------------------------------------------------------------------
      1          6           0        1.047607    0.141565    0.360241
      2          6           0        2.056089   -0.555720   -0.532360
      3          8           0        3.268950    0.201167   -0.493425
      4          1           0        1.421741    0.201101    1.387027
      5          1           0        0.097115   -0.400242    0.365540
      6          1           0        0.866286    1.162059    0.008781
      7          1           0        2.212728   -1.585609   -0.174150
      8          1           0        1.655640   -0.621802   -1.556468
      9          1           0        3.903184   -0.250570   -1.063984
 ---------------------------------------------------------------------
                    Distance matrix (angstroms):
                    1          2          3          4          5
     1  C    0.000000
     2  C    1.516568   0.000000
     3  O    2.380475   1.430183   0.000000
     4  H    1.094445   2.158523   2.635959   0.000000
     5  H    1.094084   2.160551   3.340666   1.777550   0.000000
     6  H    1.094445   2.158525   2.635967   1.769613   1.777551
     7  H    2.150863   1.101600   2.100026   2.501053   2.484387
     8  H    2.150862   1.101600   2.100025   3.065296   2.484392
     9  H    3.215043   1.946150   0.965327   3.516962   4.068428
                    6          7          8          9
     6  H    0.000000
     7  H    3.065298   0.000000
     8  H    2.501049   1.774845   0.000000
     9  H    3.516973   2.330618   2.330624   0.000000
 Stoichiometry    C2H6O
 Framework group  C1[X(C2H6O)]
 Deg. of freedom    21
 Full point group                 C1      NOp   1
 Largest Abelian subgroup         C1      NOp   1
 Largest concise Abelian subgroup C1      NOp   1
                         Standard orientation:                         
 ---------------------------------------------------------------------
 Center     Atomic      Atomic             Coordinates (Angstroms)
 Number     Number       Type             X           Y           Z
 ---------------------------------------------------------------------
      1          6           0       -1.220031   -0.223694    0.000000
      2          6           0        0.084314    0.550038    0.000000
      3          8           0        1.153955   -0.399325    0.000001
      4          1           0       -1.285094   -0.864551   -0.884805
      5          1           0       -2.074351    0.459796   -0.000008
      6          1           0       -1.285103   -0.864543    0.884809
      7          1           0        0.124411    1.201498   -0.887420
      8          1           0        0.124410    1.201494    0.887424
      9          1           0        1.978387    0.102839   -0.000007
 ---------------------------------------------------------------------
 Rotational constants (GHZ):     34.8972006      9.3587251      8.1313374
 Standard basis: 6-31G(d,p) (6D, 7F)
 There are    75 symmetry adapted cartesian basis functions of A   symmetry.
 There are    75 symmetry adapted basis functions of A   symmetry.
    75 basis functions,   126 primitive gaussians,    75 cartesian basis functions
    13 alpha electrons       13 beta electrons
       nuclear repulsion energy        81.6123027859 Hartrees.
 NAtoms=    9 NActive=    9 NUniq=    9 SFac= 1.00D+00 NAtFMM=   60 NAOKFM=F Big=F
 Integral buffers will be    131072 words long.
 Raffenetti 2 integral format.
 Two-electron integral symmetry is turned on.
 One-electron integrals computed using PRISM.
 NBasis=    75 RedAO= T EigKep=  5.75D-03  NBF=    75
 NBsUse=    75 1.00D-06 EigRej= -1.00D+00 NBFU=    75
 Initial guess from the checkpoint file:  "ethanol_scan.chk"
 B after Tr=     0.000000    0.000000    0.000000
         Rot=    0.999991   -0.000003    0.000000   -0.004238 Ang=  -0.49 deg.
 ExpMin= 1.61D-01 ExpMax= 5.48D+03 ExpMxC= 8.25D+02 IAcc=1 IRadAn=         1 AccDes= 0.00D+00
 Harris functional with IExCor=  402 and IRadAn=       1 diagonalized for initial guess.
 HarFok:  IExCor=  402 AccDes= 0.00D+00 IRadAn=         1 IDoV= 1 UseB2=F ITyADJ=14
 ICtDFT=  3500011 ScaDFX=  1.000000  1.000000  1.000000  1.000000
 FoFCou: FMM=F IPFlag=           0 FMFlag=      100000 FMFlg1=           0
         NFxFlg=           0 DoJE=T BraDBF=F KetDBF=T FulRan=T
         wScrn=  0.000000 ICntrl=     500 IOpCl=  0 I1Cent=   200000004 NGrid=           0
         NMat0=    1 NMatS0=      1 NMatT0=    0 NMatD0=    1 NMtDS0=    0 NMtDT0=    0
 Petite list used in FoFCou.
 Keep R1 ints in memory in canonical form, NReq=4994339.
 Requested convergence on RMS density matrix=1.00D-08 within 128 cycles.
 Requested convergence on MAX density matrix=1.00D-06.
 Requested convergence on             energy=1.00D-06.
 No special actions if energy rises.
 Integral accuracy reduced to 1.0D-05 until final iterations.
 Initial convergence to 1.0D-05 achieved.  Increase integral accuracy.
 SCF Done:  E(RB3LYP) =  -155.046144409     A.U. after   10 cycles
            NFock= 10  Conv=0.25D-08     -V/T= 2.0092
 Calling FoFJK, ICntrl=      2127 FMM=F ISym2X=0 I1Cent= 0 IOpClX= 0 NMat=1 NMatS=1 NMatT=0.
 ***** Axes restored to original set *****
 -------------------------------------------------------------------
 Center     Atomic                   Forces (Hartrees/Bohr)
 Number     Number              X              Y              Z
 -------------------------------------------------------------------
      1        6          -0.000567379    0.001774439    0.001466322
      2        6           0.000956185    0.002314404    0.001227479
      3        8          -0.003330473   -0.003726763   -0.001255993
      4        1          -0.000108453   -0.000348888   -0.000215351
      5        1          -0.000338510   -0.000091489    0.000072534
      6        1          -0.000100604   -0.000362271   -0.000196306
      7        1           0.001140714   -0.000180384   -0.000504383
      8        1           0.001101130   -0.000112036   -0.000602582
      9        1           0.001247390    0.000732987    0.000008280
 -------------------------------------------------------------------
 Cartesian Forces:  Max     0.003726763 RMS     0.001301197

 GradGradGradGradGradGradGradGradGradGradGradGradGradGradGradGradGradGrad
 Berny optimization.
 Using GEDIIS/GDIIS optimizer.
 FormGI is forming the generalized inverse of G from B-inverse, IUseBI=4.
 Internal  Forces:  Max     0.003382596 RMS     0.000928559
 Search for a local minimum.
 Step number   2 out of a maximum of   43 on scan point     1 out of     8
 All quantities printed in internal units (Hartrees-Bohrs-Radians)
 Mixed Optimization -- En-DIIS/RFO-DIIS
 Update second derivatives using D2CorX and points    1    2
 DE= -6.65D-04 DEPred=-8.09D-04 R= 8.23D-01
 TightC=F SS=  1.41D+00  RLast= 1.20D-01 DXNew= 5.0454D-01 3.5857D-01
 Trust test= 8.23D-01 RLast= 1.20D-01 DXMaxT set to 3.59D-01
 ITU=  1  0
 Use linear search instead of GDIIS.
     Eigenvalues ---    0.00584   0.01431   0.05451   0.05668   0.05724
     Eigenvalues ---    0.06093   0.12379   0.13622   0.15906   0.16000
     Eigenvalues ---    0.16005   0.22298   0.30658   0.33828   0.34237
     Eigenvalues ---    0.34269   0.34343   0.34431   0.45804   0.53065
     Eigenvalues --- 1000.000001000.000001000.000001000.000001000.00000
     Eigenvalues --- 1000.000001000.000001000.000001000.000001000.00000
     Eigenvalues --- 1000.000001000.000001000.00000
 RFO step:  Lambda=-4.40235020D-05 EMin= 5.84331363D-03
 Quartic linear search produced a step of -0.13931.
 Iteration  1 RMS(Cart)=  0.00491123 RMS(Int)=  0.00003489
 Iteration  2 RMS(Cart)=  0.00001543 RMS(Int)=  0.00003137
 Iteration  3 RMS(Cart)=  0.00000000 RMS(Int)=  0.00003137
 Iteration  1 RMS(Cart)=  0.00000000 RMS(Int)=  0.00000000
 Variable       Old X    -DE/DX   Delta X   Delta X   Delta X     New X
                                 (Linear)    (Quad)   (Total)
    R1        2.86590   0.00185  -0.00075   0.00603   0.00528   2.87118
    R2        2.06820  -0.00026   0.00016  -0.00084  -0.00068   2.06752
    R3        2.06752   0.00034  -0.00014   0.00102   0.00088   2.06840
    R4        2.06820  -0.00026   0.00015  -0.00084  -0.00068   2.06752
    R5        2.70265  -0.00338  -0.00275  -0.00355  -0.00630   2.69635
    R6        2.08172   0.00017  -0.00197   0.00278   0.00080   2.08253
    R7        2.08172   0.00017  -0.00197   0.00278   0.00080   2.08253
    R8        1.82420   0.00047   0.00186  -0.00146   0.00040   1.82460
    A1        1.92823  -0.00015   0.00037  -0.00097  -0.00060   1.92763
    A2        1.93143   0.00015   0.00063  -0.00053   0.00011   1.93154
    A3        1.92823  -0.00015   0.00037  -0.00098  -0.00060   1.92763
    A4        1.89587  -0.00008   0.00051  -0.00157  -0.00107   1.89480
    A5        1.88304   0.00031  -0.00247   0.00575   0.00328   1.88632
    A6        1.89587  -0.00008   0.00051  -0.00158  -0.00107   1.89480
    A7        1.88030   0.00080   0.00311  -0.00083   0.00225   1.88254
    A8        1.91030   0.00085   0.00265   0.00444   0.00710   1.91740
    A9        1.91030   0.00085   0.00265   0.00445   0.00710   1.91740
   A10        1.94479  -0.00104  -0.00641  -0.00051  -0.00690   1.93789
   A11        1.94479  -0.00104  -0.00641  -0.00051  -0.00690   1.93789
   A12        1.87329  -0.00035   0.00434  -0.00675  -0.00227   1.87102
   A13        1.86861   0.00250   0.00000   0.00000   0.00000   1.86861
    D1       -1.04117  -0.00010   0.00130  -0.00296  -0.00166  -1.04282
    D2        1.07615  -0.00038  -0.00302  -0.00146  -0.00446   1.07168
    D3        3.12471   0.00019   0.00562  -0.00446   0.00114   3.12585
    D4       -3.14159   0.00000   0.00000   0.00000   0.00000  -3.14159
    D5       -1.02427  -0.00028  -0.00432   0.00149  -0.00281  -1.02708
    D6        1.02429   0.00028   0.00432  -0.00150   0.00280   1.02709
    D7        1.04118   0.00010  -0.00130   0.00295   0.00166   1.04283
    D8       -3.12469  -0.00019  -0.00562   0.00445  -0.00115  -3.12585
    D9       -1.07613   0.00038   0.00302   0.00146   0.00446  -1.07168
   D10        3.14158   0.00000   0.00000   0.00000   0.00000   3.14158
   D11        1.04593  -0.00093  -0.00133  -0.00462  -0.00603   1.03990
   D12       -1.04595   0.00093   0.00133   0.00463   0.00603  -1.03992
         Item               Value     Threshold  Converged?
 Maximum Force            0.003383     0.000450     NO 
 RMS     Force            0.000833     0.000300     NO 
 Maximum Displacement     0.014195     0.001800     NO 
 RMS     Displacement     0.004914     0.001200     NO 
 Predicted change in Energy=-3.948957D-05
 GradGradGradGradGradGradGradGradGradGradGradGradGradGradGradGradGradGrad

                          Input orientation:                          
 ---------------------------------------------------------------------
 Center     Atomic      Atomic             Coordinates (Angstroms)
 Number     Number       Type             X           Y           Z
 ---------------------------------------------------------------------
      1          6           0        1.045504    0.143764    0.362622
      2          6           0        2.055948   -0.554698   -0.531591
      3          8           0        3.267287    0.198424   -0.494668
      4          1           0        1.419278    0.201471    1.389260
      5          1           0        0.094602   -0.398265    0.367928
      6          1           0        0.863345    1.163261    0.009824
      7          1           0        2.219990   -1.585262   -0.177346
      8          1           0        1.663152   -0.621890   -1.559043
      9          1           0        3.900235   -0.254855   -1.065786
 ---------------------------------------------------------------------
                    Distance matrix (angstroms):
                    1          2          3          4          5
     1  C    0.000000
     2  C    1.519364   0.000000
     3  O    2.382069   1.426849   0.000000
     4  H    1.094085   2.160280   2.639002   0.000000
     5  H    1.094549   2.163443   3.341563   1.776955   0.000000
     6  H    1.094085   2.160281   2.639007   1.771142   1.776955
     7  H    2.158822   1.102026   2.092620   2.507550   2.494706
     8  H    2.158823   1.102026   2.092620   3.070813   2.494710
     9  H    3.216946   1.943365   0.965537   3.520033   4.069269
                    6          7          8          9
     6  H    0.000000
     7  H    3.070813   0.000000
     8  H    2.507548   1.774046   0.000000
     9  H    3.520041   2.320029   2.320034   0.000000
 Stoichiometry    C2H6O
 Framework group  C1[X(C2H6O)]
 Deg. of freedom    21
 Full point group                 C1      NOp   1
 Largest Abelian subgroup         C1      NOp   1
 Largest concise Abelian subgroup C1      NOp   1
                         Standard orientation:                         
 ---------------------------------------------------------------------
 Center     Atomic      Atomic             Coordinates (Angstroms)
 Number     Number       Type             X           Y           Z
 ---------------------------------------------------------------------
      1          6           0       -1.222972   -0.221471    0.000000
      2          6           0        0.086949    0.548316    0.000000
      3          8           0        1.152336   -0.400815    0.000001
      4          1           0       -1.290798   -0.860367   -0.885570
      5          1           0       -2.074917    0.465718   -0.000006
      6          1           0       -1.290804   -0.860362    0.885573
      7          1           0        0.138045    1.200267   -0.887022
      8          1           0        0.138044    1.200266    0.887024
      9          1           0        1.977878    0.099927   -0.000006
 ---------------------------------------------------------------------
 Rotational constants (GHZ):     34.9724873      9.3461257      8.1262354
 Standard basis: 6-31G(d,p) (6D, 7F)
 There are    75 symmetry adapted cartesian basis functions of A   symmetry.
 There are    75 symmetry adapted basis functions of A   symmetry.
    75 basis functions,   126 primitive gaussians,    75 cartesian basis functions
    13 alpha electrons       13 beta electrons
       nuclear repulsion energy        81.6161631222 Hartrees.
 NAtoms=    9 NActive=    9 NUniq=    9 SFac= 1.00D+00 NAtFMM=   60 NAOKFM=F Big=F
 Integral buffers will be    131072 words long.
 Raffenetti 2 integral format.
 Two-electron integral symmetry is turned on.
 One-electron integrals computed using PRISM.
 NBasis=    75 RedAO= T EigKep=  5.76D-03  NBF=    75
 NBsUse=    75 1.00D-06 EigRej= -1.00D+00 NBFU=    75
 Initial guess from the checkpoint file:  "ethanol_scan.chk"
 B after Tr=     0.000000    0.000000    0.000000
         Rot=    0.999999    0.000000    0.000000    0.001533 Ang=   0.18 deg.
 Keep R1 ints in memory in canonical form, NReq=4994339.
 Requested convergence on RMS density matrix=1.00D-08 within 128 cycles.
 Requested convergence on MAX density matrix=1.00D-06.
 Requested convergence on             energy=1.00D-06.
 No special actions if energy rises.
 SCF Done:  E(RB3LYP) =  -155.046185711     A.U. after    8 cycles
            NFock=  8  Conv=0.24D-08     -V/T= 2.0092
 Calling FoFJK, ICntrl=      2127 FMM=F ISym2X=0 I1Cent= 0 IOpClX= 0 NMat=1 NMatS=1 NMatT=0.
 ***** Axes restored to original set *****
 -------------------------------------------------------------------
 Center     Atomic                   Forces (Hartrees/Bohr)
 Number     Number              X              Y              Z
 -------------------------------------------------------------------
      1        6          -0.000108137    0.000151777    0.000149415
      2        6           0.000306904    0.001305744    0.000786652
      3        8          -0.001249972   -0.001980284   -0.000876909
      4        1           0.000064129   -0.000146155   -0.000124397
      5        1          -0.000036875   -0.000029326   -0.000005643
      6        1           0.000062526   -0.000143361   -0.000128451
      7        1          -0.000076098   -0.000044114   -0.000020387
      8        1          -0.000066179   -0.000061342    0.000004261
      9        1           0.001103702    0.000947060    0.000215459
 -------------------------------------------------------------------
 Cartesian Forces:  Max     0.001980284 RMS     0.000637993

 GradGradGradGradGradGradGradGradGradGradGradGradGradGradGradGradGradGrad
 Berny optimization.
 Using GEDIIS/GDIIS optimizer.
 FormGI is forming the generalized inverse of G from B-inverse, IUseBI=4.
 Internal  Forces:  Max     0.002671627 RMS     0.000486861
 Search for a local minimum.
 Step number   3 out of a maximum of   43 on scan point     1 out of     8
 All quantities printed in internal units (Hartrees-Bohrs-Radians)
 Mixed Optimization -- En-DIIS/RFO-DIIS
 Swapping is turned off.
 Update second derivatives using D2CorX and points    1    2    3
 DE= -4.13D-05 DEPred=-3.95D-05 R= 1.05D+00
 TightC=F SS=  1.41D+00  RLast= 2.07D-02 DXNew= 6.0304D-01 6.2007D-02
 Trust test= 1.05D+00 RLast= 2.07D-02 DXMaxT set to 3.59D-01
 ITU=  1  1  0
     Eigenvalues ---    0.00584   0.01431   0.05419   0.05609   0.05732
     Eigenvalues ---    0.06084   0.12899   0.13642   0.15692   0.16000
     Eigenvalues ---    0.16070   0.22179   0.31837   0.33663   0.34237
     Eigenvalues ---    0.34249   0.34343   0.34426   0.41232   0.52808
     Eigenvalues --- 1000.000001000.000001000.000001000.000001000.00000
     Eigenvalues --- 1000.000001000.000001000.000001000.000001000.00000
     Eigenvalues --- 1000.000001000.000001000.00000
 En-DIIS/RFO-DIIS IScMMF=        0 using points:     3    2
 RFO step:  Lambda=-1.50130114D-06.
 DidBck=F Rises=F RFO-DIIS coefs:    1.04307   -0.04307
 Iteration  1 RMS(Cart)=  0.00061669 RMS(Int)=  0.00000080
 Iteration  2 RMS(Cart)=  0.00000042 RMS(Int)=  0.00000072
 Iteration  1 RMS(Cart)=  0.00000000 RMS(Int)=  0.00000000
 Variable       Old X    -DE/DX   Delta X   Delta X   Delta X     New X
                                 (Linear)    (Quad)   (Total)
    R1        2.87118  -0.00013   0.00023  -0.00047  -0.00024   2.87094
    R2        2.06752  -0.00010  -0.00003  -0.00031  -0.00034   2.06718
    R3        2.06840   0.00005   0.00004   0.00014   0.00018   2.06858
    R4        2.06752  -0.00010  -0.00003  -0.00031  -0.00034   2.06718
    R5        2.69635  -0.00068  -0.00027  -0.00155  -0.00182   2.69453
    R6        2.08253   0.00002   0.00003   0.00012   0.00015   2.08268
    R7        2.08253   0.00002   0.00003   0.00012   0.00015   2.08268
    R8        1.82460   0.00015   0.00002   0.00024   0.00026   1.82486
    A1        1.92763  -0.00018  -0.00003  -0.00117  -0.00120   1.92644
    A2        1.93154   0.00004   0.00000   0.00019   0.00019   1.93173
    A3        1.92763  -0.00018  -0.00003  -0.00117  -0.00120   1.92644
    A4        1.89480   0.00006  -0.00005   0.00034   0.00029   1.89509
    A5        1.88632   0.00021   0.00014   0.00156   0.00170   1.88801
    A6        1.89480   0.00006  -0.00005   0.00034   0.00029   1.89509
    A7        1.88254   0.00010   0.00010   0.00057   0.00067   1.88321
    A8        1.91740  -0.00006   0.00031  -0.00063  -0.00032   1.91708
    A9        1.91740  -0.00006   0.00031  -0.00063  -0.00032   1.91708
   A10        1.93789   0.00001  -0.00030   0.00072   0.00042   1.93831
   A11        1.93789   0.00001  -0.00030   0.00072   0.00042   1.93831
   A12        1.87102  -0.00002  -0.00010  -0.00078  -0.00088   1.87014
   A13        1.86861   0.00267   0.00000   0.00000   0.00000   1.86861
    D1       -1.04282  -0.00001  -0.00007  -0.00022  -0.00029  -1.04312
    D2        1.07168   0.00003  -0.00019   0.00063   0.00044   1.07212
    D3        3.12585  -0.00006   0.00005  -0.00107  -0.00102   3.12483
    D4       -3.14159   0.00000   0.00000   0.00000   0.00000  -3.14159
    D5       -1.02708   0.00005  -0.00012   0.00085   0.00073  -1.02635
    D6        1.02709  -0.00005   0.00012  -0.00085  -0.00073   1.02636
    D7        1.04283   0.00001   0.00007   0.00022   0.00029   1.04312
    D8       -3.12585   0.00006  -0.00005   0.00107   0.00102  -3.12483
    D9       -1.07168  -0.00003   0.00019  -0.00063  -0.00044  -1.07212
   D10        3.14158   0.00000   0.00000   0.00000   0.00000   3.14159
   D11        1.03990   0.00000  -0.00026  -0.00002  -0.00028   1.03962
   D12       -1.03992   0.00000   0.00026   0.00002   0.00028  -1.03963
         Item               Value     Threshold  Converged?
 Maximum Force            0.000685     0.000450     NO 
 RMS     Force            0.000146     0.000300     YES
 Maximum Displacement     0.001636     0.001800     YES
 RMS     Displacement     0.000617     0.001200     YES
 Predicted change in Energy=-1.296582D-06
 GradGradGradGradGradGradGradGradGradGradGradGradGradGradGradGradGradGrad

                          Input orientation:                          
 ---------------------------------------------------------------------
 Center     Atomic      Atomic             Coordinates (Angstroms)
 Number     Number       Type             X           Y           Z
 ---------------------------------------------------------------------
      1          6           0        1.045423    0.143894    0.362745
      2          6           0        2.056265   -0.554008   -0.531237
      3          8           0        3.266905    0.198419   -0.494518
      4          1           0        1.419818    0.200697    1.389014
      5          1           0        0.094555   -0.398386    0.367860
      6          1           0        0.863639    1.162920    0.008958
      7          1           0        2.219811   -1.584827   -0.177257
      8          1           0        1.663113   -0.621699   -1.558606
      9          1           0        3.899811   -0.255058   -1.065759
 ---------------------------------------------------------------------
                    Distance matrix (angstroms):
                    1          2          3          4          5
     1  C    0.000000
     2  C    1.519234   0.000000
     3  O    2.381776   1.425884   0.000000
     4  H    1.093904   2.159168   2.638072   0.000000
     5  H    1.094643   2.163539   3.341209   1.777070   0.000000
     6  H    1.093904   2.159168   2.638075   1.771938   1.777070
     7  H    2.158533   1.102106   2.092134   2.506249   2.494295
     8  H    2.158533   1.102106   2.092134   3.069852   2.494296
     9  H    3.216725   1.942613   0.965675   3.519089   4.068879
                    6          7          8          9
     6  H    0.000000
     7  H    3.069852   0.000000
     8  H    2.506248   1.773599   0.000000
     9  H    3.519094   2.319509   2.319513   0.000000
 Stoichiometry    C2H6O
 Framework group  C1[X(C2H6O)]
 Deg. of freedom    21
 Full point group                 C1      NOp   1
 Largest Abelian subgroup         C1      NOp   1
 Largest concise Abelian subgroup C1      NOp   1
                         Standard orientation:                         
 ---------------------------------------------------------------------
 Center     Atomic      Atomic             Coordinates (Angstroms)
 Number     Number       Type             X           Y           Z
 ---------------------------------------------------------------------
      1          6           0       -1.222985   -0.221459    0.000000
      2          6           0        0.087173    0.547669    0.000000
      3          8           0        1.152045   -0.400589    0.000001
      4          1           0       -1.290048   -0.859572   -0.885968
      5          1           0       -2.074824    0.466011   -0.000003
      6          1           0       -1.290051   -0.859569    0.885969
      7          1           0        0.137919    1.200087   -0.886799
      8          1           0        0.137919    1.200087    0.886800
      9          1           0        1.977597    0.100403   -0.000005
 ---------------------------------------------------------------------
 Rotational constants (GHZ):     35.0062020      9.3487093      8.1301705
 Standard basis: 6-31G(d,p) (6D, 7F)
 There are    75 symmetry adapted cartesian basis functions of A   symmetry.
 There are    75 symmetry adapted basis functions of A   symmetry.
    75 basis functions,   126 primitive gaussians,    75 cartesian basis functions
    13 alpha electrons       13 beta electrons
       nuclear repulsion energy        81.6355139814 Hartrees.
 NAtoms=    9 NActive=    9 NUniq=    9 SFac= 1.00D+00 NAtFMM=   60 NAOKFM=F Big=F
 Integral buffers will be    131072 words long.
 Raffenetti 2 integral format.
 Two-electron integral symmetry is turned on.
 One-electron integrals computed using PRISM.
 NBasis=    75 RedAO= T EigKep=  5.75D-03  NBF=    75
 NBsUse=    75 1.00D-06 EigRej= -1.00D+00 NBFU=    75
 Initial guess from the checkpoint file:  "ethanol_scan.chk"
 B after Tr=     0.000000    0.000000    0.000000
         Rot=    1.000000    0.000000    0.000000    0.000003 Ang=   0.00 deg.
 Keep R1 ints in memory in canonical form, NReq=4994339.
 Requested convergence on RMS density matrix=1.00D-08 within 128 cycles.
 Requested convergence on MAX density matrix=1.00D-06.
 Requested convergence on             energy=1.00D-06.
 No special actions if energy rises.
 SCF Done:  E(RB3LYP) =  -155.046187193     A.U. after    7 cycles
            NFock=  7  Conv=0.17D-08     -V/T= 2.0092
 Calling FoFJK, ICntrl=      2127 FMM=F ISym2X=0 I1Cent= 0 IOpClX= 0 NMat=1 NMatS=1 NMatT=0.
 ***** Axes restored to original set *****
 -------------------------------------------------------------------
 Center     Atomic                   Forces (Hartrees/Bohr)
 Number     Number              X              Y              Z
 -------------------------------------------------------------------
      1        6          -0.000061248    0.000001503    0.000025735
      2        6          -0.000172813    0.000777648    0.000611822
      3        8          -0.000743679   -0.001779045   -0.000940647
      4        1           0.000003098    0.000005012    0.000005062
      5        1           0.000031954    0.000004945   -0.000009445
      6        1           0.000001749    0.000007389    0.000001645
      7        1          -0.000041303   -0.000034737    0.000004599
      8        1          -0.000047266   -0.000024476   -0.000010177
      9        1           0.001029508    0.001041762    0.000311405
 -------------------------------------------------------------------
 Cartesian Forces:  Max     0.001779045 RMS     0.000539735

 GradGradGradGradGradGradGradGradGradGradGradGradGradGradGradGradGradGrad
 Berny optimization.
 Using GEDIIS/GDIIS optimizer.
 FormGI is forming the generalized inverse of G from B-inverse, IUseBI=4.
 Internal  Forces:  Max     0.002735849 RMS     0.000477400
 Search for a local minimum.
 Step number   4 out of a maximum of   43 on scan point     1 out of     8
 All quantities printed in internal units (Hartrees-Bohrs-Radians)
 Mixed Optimization -- En-DIIS/RFO-DIIS
 Swapping is turned off.
 Update second derivatives using D2CorX and points    1    2    3    4
 DE= -1.48D-06 DEPred=-1.30D-06 R= 1.14D+00
 TightC=F SS=  1.41D+00  RLast= 3.92D-03 DXNew= 6.0304D-01 1.1757D-02
 Trust test= 1.14D+00 RLast= 3.92D-03 DXMaxT set to 3.59D-01
 ITU=  1  1  1  0
     Eigenvalues ---    0.00584   0.01431   0.05365   0.05414   0.05737
     Eigenvalues ---    0.05921   0.12995   0.13645   0.15690   0.16000
     Eigenvalues ---    0.16450   0.22528   0.31767   0.33102   0.34237
     Eigenvalues ---    0.34320   0.34343   0.34978   0.36879   0.52936
     Eigenvalues --- 1000.000001000.000001000.000001000.000001000.00000
     Eigenvalues --- 1000.000001000.000001000.000001000.000001000.00000
     Eigenvalues --- 1000.000001000.000001000.00000
 En-DIIS/RFO-DIIS IScMMF=        0 using points:     4    3    2
 RFO step:  Lambda=-3.14256194D-07.
 DidBck=F Rises=F RFO-DIIS coefs:    1.17458   -0.18055    0.00597
 Iteration  1 RMS(Cart)=  0.00015361 RMS(Int)=  0.00000008
 Iteration  2 RMS(Cart)=  0.00000004 RMS(Int)=  0.00000007
 Iteration  1 RMS(Cart)=  0.00000000 RMS(Int)=  0.00000000
 Variable       Old X    -DE/DX   Delta X   Delta X   Delta X     New X
                                 (Linear)    (Quad)   (Total)
    R1        2.87094   0.00004  -0.00007   0.00026   0.00019   2.87113
    R2        2.06718   0.00001  -0.00006   0.00005  -0.00001   2.06717
    R3        2.06858  -0.00003   0.00003  -0.00011  -0.00008   2.06849
    R4        2.06718   0.00001  -0.00006   0.00005  -0.00001   2.06717
    R5        2.69453  -0.00016  -0.00028  -0.00031  -0.00059   2.69394
    R6        2.08268   0.00003   0.00002   0.00010   0.00012   2.08280
    R7        2.08268   0.00003   0.00002   0.00010   0.00012   2.08280
    R8        1.82486   0.00000   0.00004  -0.00004   0.00001   1.82487
    A1        1.92644   0.00001  -0.00021   0.00019  -0.00002   1.92642
    A2        1.93173  -0.00002   0.00003  -0.00022  -0.00018   1.93155
    A3        1.92644   0.00001  -0.00021   0.00019  -0.00002   1.92642
    A4        1.89509   0.00001   0.00006   0.00000   0.00006   1.89515
    A5        1.88801   0.00000   0.00028  -0.00016   0.00012   1.88813
    A6        1.89509   0.00001   0.00006   0.00000   0.00006   1.89515
    A7        1.88321  -0.00001   0.00010  -0.00006   0.00004   1.88326
    A8        1.91708  -0.00002  -0.00010  -0.00014  -0.00024   1.91683
    A9        1.91708  -0.00002  -0.00010  -0.00014  -0.00024   1.91683
   A10        1.93831   0.00003   0.00011   0.00027   0.00038   1.93869
   A11        1.93831   0.00003   0.00011   0.00027   0.00038   1.93869
   A12        1.87014  -0.00001  -0.00014  -0.00019  -0.00033   1.86981
   A13        1.86861   0.00274   0.00000   0.00000   0.00000   1.86861
    D1       -1.04312   0.00000  -0.00004  -0.00002  -0.00006  -1.04318
    D2        1.07212   0.00002   0.00010   0.00018   0.00028   1.07240
    D3        3.12483  -0.00002  -0.00019  -0.00022  -0.00041   3.12442
    D4       -3.14159   0.00000   0.00000   0.00000   0.00000  -3.14159
    D5       -1.02635   0.00002   0.00014   0.00020   0.00034  -1.02601
    D6        1.02636  -0.00002  -0.00014  -0.00020  -0.00035   1.02601
    D7        1.04312   0.00000   0.00004   0.00002   0.00006   1.04318
    D8       -3.12483   0.00002   0.00018   0.00022   0.00040  -3.12442
    D9       -1.07212  -0.00002  -0.00010  -0.00018  -0.00028  -1.07240
   D10        3.14159   0.00000   0.00000   0.00000   0.00000   3.14159
   D11        1.03962   0.00002  -0.00001   0.00006   0.00004   1.03967
   D12       -1.03963  -0.00002   0.00001  -0.00005  -0.00004  -1.03968
         Item               Value     Threshold  Converged?
 Maximum Force            0.000161     0.000450     YES
 RMS     Force            0.000034     0.000300     YES
 Maximum Displacement     0.000393     0.001800     YES
 RMS     Displacement     0.000154     0.001200     YES
 Predicted change in Energy=-9.412192D-08
 Optimization completed.
    -- Stationary point found.
                           ----------------------------
                           !   Optimized Parameters   !
                           ! (Angstroms and Degrees)  !
 --------------------------                            --------------------------
 ! Name  Definition              Value          Derivative Info.                !
 --------------------------------------------------------------------------------
 ! R1    R(1,2)                  1.5192         -DE/DX =    0.0                 !
 ! R2    R(1,4)                  1.0939         -DE/DX =    0.0                 !
 ! R3    R(1,5)                  1.0946         -DE/DX =    0.0                 !
 ! R4    R(1,6)                  1.0939         -DE/DX =    0.0                 !
 ! R5    R(2,3)                  1.4259         -DE/DX =   -0.0002              !
 ! R6    R(2,7)                  1.1021         -DE/DX =    0.0                 !
 ! R7    R(2,8)                  1.1021         -DE/DX =    0.0                 !
 ! R8    R(3,9)                  0.9657         -DE/DX =    0.0                 !
 ! A1    A(2,1,4)              110.3766         -DE/DX =    0.0                 !
 ! A2    A(2,1,5)              110.68           -DE/DX =    0.0                 !
 ! A3    A(2,1,6)              110.3766         -DE/DX =    0.0                 !
 ! A4    A(4,1,5)              108.5809         -DE/DX =    0.0                 !
 ! A5    A(4,1,6)              108.1752         -DE/DX =    0.0                 !
 ! A6    A(5,1,6)              108.5809         -DE/DX =    0.0                 !
 ! A7    A(1,2,3)              107.9002         -DE/DX =    0.0                 !
 ! A8    A(1,2,7)              109.8403         -DE/DX =    0.0                 !
 ! A9    A(1,2,8)              109.8403         -DE/DX =    0.0                 !
 ! A10   A(3,2,7)              111.0569         -DE/DX =    0.0                 !
 ! A11   A(3,2,8)              111.0569         -DE/DX =    0.0                 !
 ! A12   A(7,2,8)              107.1512         -DE/DX =    0.0                 !
 ! A13   A(2,3,9)              107.0635         -DE/DX =    0.0027              !
 ! D1    D(4,1,2,3)            -59.7662         -DE/DX =    0.0                 !
 ! D2    D(4,1,2,7)             61.428          -DE/DX =    0.0                 !
 ! D3    D(4,1,2,8)            179.0396         -DE/DX =    0.0                 !
 ! D4    D(5,1,2,3)           -179.9999         -DE/DX =    0.0                 !
 ! D5    D(5,1,2,7)            -58.8057         -DE/DX =    0.0                 !
 ! D6    D(5,1,2,8)             58.8059         -DE/DX =    0.0                 !
 ! D7    D(6,1,2,3)             59.7665         -DE/DX =    0.0                 !
 ! D8    D(6,1,2,7)           -179.0393         -DE/DX =    0.0                 !
 ! D9    D(6,1,2,8)            -61.4277         -DE/DX =    0.0                 !
 ! D10   D(1,2,3,9)            179.9997         -DE/DX =    0.0                 !
 ! D11   D(7,2,3,9)             59.566          -DE/DX =    0.0                 !
 ! D12   D(8,2,3,9)            -59.5667         -DE/DX =    0.0                 !
 --------------------------------------------------------------------------------
 Iteration  1 RMS(Cart)=  0.04581637 RMS(Int)=  0.00387429
 Iteration  2 RMS(Cart)=  0.00354361 RMS(Int)=  0.00000421
 Iteration  3 RMS(Cart)=  0.00000644 RMS(Int)=  0.00000000
 Iteration  4 RMS(Cart)=  0.00000000 RMS(Int)=  0.00000000
 Iteration  1 RMS(Cart)=  0.00000000 RMS(Int)=  0.00000000
 GradGradGradGradGradGradGradGradGradGradGradGradGradGradGradGradGradGrad

                          Input orientation:                          
 ---------------------------------------------------------------------
 Center     Atomic      Atomic             Coordinates (Angstroms)
 Number     Number       Type             X           Y           Z
 ---------------------------------------------------------------------
      1          6           0        1.043631    0.144409    0.363827
      2          6           0        2.036083   -0.572416   -0.535938
      3          8           0        3.257064    0.163133   -0.515154
      4          1           0        1.428694    0.201603    1.386115
      5          1           0        0.085565   -0.384707    0.381019
      6          1           0        0.872495    1.163866    0.006004
      7          1           0        2.188360   -1.603565   -0.177718
      8          1           0        1.631697   -0.640500   -1.558980
      9          1           0        3.985752   -0.179872   -1.047974
 ---------------------------------------------------------------------
                    Distance matrix (angstroms):
                    1          2          3          4          5
     1  C    0.000000
     2  C    1.519334   0.000000
     3  O    2.381647   1.425573   0.000000
     4  H    1.093900   2.159239   2.638037   0.000000
     5  H    1.094600   2.163462   3.340907   1.777069   0.000000
     6  H    1.093900   2.159239   2.638038   1.772009   1.777069
     7  H    2.158492   1.102170   2.092179   2.506252   2.493903
     8  H    2.158492   1.102170   2.092179   3.069842   2.493903
     9  H    3.279393   2.053651   0.965679   3.550895   4.158779
                    6          7          8          9
     6  H    0.000000
     7  H    3.069842   0.000000
     8  H    2.506251   1.773486   0.000000
     9  H    3.550898   2.452523   2.452525   0.000000
 Stoichiometry    C2H6O
 Framework group  C1[X(C2H6O)]
 Deg. of freedom    21
 Full point group                 C1      NOp   1
 Largest Abelian subgroup         C1      NOp   1
 Largest concise Abelian subgroup C1      NOp   1
                         Standard orientation:                         
 ---------------------------------------------------------------------
 Center     Atomic      Atomic             Coordinates (Angstroms)
 Number     Number       Type             X           Y           Z
 ---------------------------------------------------------------------
      1          6           0       -1.222980   -0.231321    0.000000
      2          6           0        0.077410    0.554405    0.000000
      3          8           0        1.154021   -0.380030    0.000000
      4          1           0       -1.281958   -0.870176   -0.886004
      5          1           0       -2.083306    0.445427   -0.000001
      6          1           0       -1.281959   -0.870176    0.886004
      7          1           0        0.119487    1.207623   -0.886743
      8          1           0        0.119486    1.207623    0.886743
      9          1           0        2.049506   -0.018585   -0.000003
 ---------------------------------------------------------------------
 Rotational constants (GHZ):     35.1132546      9.2944436      8.0947817
 Standard basis: 6-31G(d,p) (6D, 7F)
 There are    75 symmetry adapted cartesian basis functions of A   symmetry.
 There are    75 symmetry adapted basis functions of A   symmetry.
    75 basis functions,   126 primitive gaussians,    75 cartesian basis functions
    13 alpha electrons       13 beta electrons
       nuclear repulsion energy        81.5015904093 Hartrees.
 NAtoms=    9 NActive=    9 NUniq=    9 SFac= 1.00D+00 NAtFMM=   60 NAOKFM=F Big=F
 Integral buffers will be    131072 words long.
 Raffenetti 2 integral format.
 Two-electron integral symmetry is turned on.
 One-electron integrals computed using PRISM.
 NBasis=    75 RedAO= T EigKep=  5.85D-03  NBF=    75
 NBsUse=    75 1.00D-06 EigRej= -1.00D+00 NBFU=    75
 Initial guess from the checkpoint file:  "ethanol_scan.chk"
 B after Tr=     0.000000    0.000000    0.000000
         Rot=    0.999997    0.000000    0.000000   -0.002487 Ang=  -0.28 deg.
 ExpMin= 1.61D-01 ExpMax= 5.48D+03 ExpMxC= 8.25D+02 IAcc=1 IRadAn=         1 AccDes= 0.00D+00
 Harris functional with IExCor=  402 and IRadAn=       1 diagonalized for initial guess.
 HarFok:  IExCor=  402 AccDes= 0.00D+00 IRadAn=         1 IDoV= 1 UseB2=F ITyADJ=14
 ICtDFT=  3500011 ScaDFX=  1.000000  1.000000  1.000000  1.000000
 FoFCou: FMM=F IPFlag=           0 FMFlag=      100000 FMFlg1=           0
         NFxFlg=           0 DoJE=T BraDBF=F KetDBF=T FulRan=T
         wScrn=  0.000000 ICntrl=     500 IOpCl=  0 I1Cent=   200000004 NGrid=           0
         NMat0=    1 NMatS0=      1 NMatT0=    0 NMatD0=    1 NMtDS0=    0 NMtDT0=    0
 Petite list used in FoFCou.
 Keep R1 ints in memory in canonical form, NReq=4994339.
 Requested convergence on RMS density matrix=1.00D-08 within 128 cycles.
 Requested convergence on MAX density matrix=1.00D-06.
 Requested convergence on             energy=1.00D-06.
 No special actions if energy rises.
 Integral accuracy reduced to 1.0D-05 until final iterations.
 Initial convergence to 1.0D-05 achieved.  Increase integral accuracy.
 SCF Done:  E(RB3LYP) =  -155.044077953     A.U. after   10 cycles
            NFock= 10  Conv=0.33D-08     -V/T= 2.0094
 Calling FoFJK, ICntrl=      2127 FMM=F ISym2X=0 I1Cent= 0 IOpClX= 0 NMat=1 NMatS=1 NMatT=0.
 ***** Axes restored to original set *****
 -------------------------------------------------------------------
 Center     Atomic                   Forces (Hartrees/Bohr)
 Number     Number              X              Y              Z
 -------------------------------------------------------------------
      1        6           0.001737945    0.001467920    0.000323076
      2        6           0.009401380   -0.004711197   -0.007073625
      3        8          -0.000692584    0.013638850    0.009788564
      4        1          -0.000059497    0.000098144   -0.000009520
      5        1           0.000339417   -0.000403664   -0.000418239
      6        1          -0.000009648    0.000011929    0.000114135
      7        1          -0.000272639   -0.000035336   -0.000212387
      8        1          -0.000127116   -0.000287100    0.000148689
      9        1          -0.010317259   -0.009779547   -0.002660694
 -------------------------------------------------------------------
 Cartesian Forces:  Max     0.013638850 RMS     0.004936998

 GradGradGradGradGradGradGradGradGradGradGradGradGradGradGradGradGradGrad
 Berny optimization.
 FormGI is forming the generalized inverse of G from B-inverse, IUseBI=4.
 Internal  Forces:  Max     0.025871038 RMS     0.004773069
 Search for a local minimum.
 Step number   1 out of a maximum of   43 on scan point     2 out of     8
 All quantities printed in internal units (Hartrees-Bohrs-Radians)
 Mixed Optimization -- RFO/linear search
 Second derivative matrix not updated -- first step.
 ITU=  0
     Eigenvalues ---    0.00584   0.01431   0.05365   0.05413   0.05738
     Eigenvalues ---    0.05921   0.12993   0.13645   0.15690   0.16000
     Eigenvalues ---    0.16451   0.22528   0.31767   0.33102   0.34237
     Eigenvalues ---    0.34320   0.34343   0.34978   0.36879   0.52936
     Eigenvalues --- 1000.000001000.000001000.000001000.000001000.00000
     Eigenvalues --- 1000.000001000.000001000.000001000.000001000.00000
     Eigenvalues --- 1000.000001000.000001000.00000
 RFO step:  Lambda=-2.74860030D-04 EMin= 5.84331281D-03
 Linear search not attempted -- first point.
 Iteration  1 RMS(Cart)=  0.01046127 RMS(Int)=  0.00004277
 Iteration  2 RMS(Cart)=  0.00004868 RMS(Int)=  0.00001164
 Iteration  3 RMS(Cart)=  0.00000000 RMS(Int)=  0.00001164
 Iteration  1 RMS(Cart)=  0.00000000 RMS(Int)=  0.00000000
 Variable       Old X    -DE/DX   Delta X   Delta X   Delta X     New X
                                 (Linear)    (Quad)   (Total)
    R1        2.87113  -0.00075   0.00000  -0.00116  -0.00116   2.86996
    R2        2.06717  -0.00003   0.00000  -0.00067  -0.00067   2.06650
    R3        2.06849  -0.00011   0.00000  -0.00024  -0.00024   2.06826
    R4        2.06717  -0.00003   0.00000  -0.00067  -0.00067   2.06650
    R5        2.69394  -0.00733   0.00000  -0.02238  -0.02238   2.67156
    R6        2.08280  -0.00007   0.00000   0.00085   0.00085   2.08365
    R7        2.08280  -0.00007   0.00000   0.00085   0.00085   2.08365
    R8        1.82487  -0.00285   0.00000  -0.00522  -0.00522   1.81965
    A1        1.92642   0.00029   0.00000   0.00029   0.00029   1.92670
    A2        1.93155  -0.00104   0.00000  -0.00764  -0.00765   1.92390
    A3        1.92642   0.00029   0.00000   0.00029   0.00029   1.92670
    A4        1.89515   0.00032   0.00000   0.00180   0.00179   1.89695
    A5        1.88813  -0.00015   0.00000   0.00376   0.00376   1.89189
    A6        1.89515   0.00032   0.00000   0.00180   0.00179   1.89694
    A7        1.88326  -0.00360   0.00000  -0.01617  -0.01616   1.86710
    A8        1.91683   0.00083   0.00000   0.00235   0.00237   1.91920
    A9        1.91683   0.00083   0.00000   0.00235   0.00237   1.91920
   A10        1.93869   0.00127   0.00000   0.00745   0.00743   1.94612
   A11        1.93869   0.00127   0.00000   0.00745   0.00743   1.94612
   A12        1.86981  -0.00051   0.00000  -0.00311  -0.00314   1.86668
   A13        2.04314  -0.02587   0.00000   0.00000   0.00000   2.04314
    D1       -1.04318  -0.00009   0.00000  -0.00253  -0.00253  -1.04571
    D2        1.07240  -0.00027   0.00000  -0.00203  -0.00203   1.07037
    D3        3.12442   0.00009   0.00000  -0.00303  -0.00303   3.12139
    D4       -3.14159   0.00000   0.00000  -0.00001  -0.00001   3.14158
    D5       -1.02601  -0.00018   0.00000   0.00049   0.00049  -1.02552
    D6        1.02601   0.00018   0.00000  -0.00051  -0.00051   1.02550
    D7        1.04318   0.00009   0.00000   0.00251   0.00251   1.04569
    D8       -3.12442  -0.00009   0.00000   0.00301   0.00301  -3.12141
    D9       -1.07240   0.00027   0.00000   0.00202   0.00201  -1.07039
   D10        3.14159   0.00000   0.00000   0.00001   0.00001  -3.14159
   D11        1.03967   0.00051   0.00000   0.00294   0.00298   1.04264
   D12       -1.03968  -0.00051   0.00000  -0.00292  -0.00296  -1.04263
         Item               Value     Threshold  Converged?
 Maximum Force            0.007331     0.000450     NO 
 RMS     Force            0.001606     0.000300     NO 
 Maximum Displacement     0.030087     0.001800     NO 
 RMS     Displacement     0.010451     0.001200     NO 
 Predicted change in Energy=-1.376422D-04
 GradGradGradGradGradGradGradGradGradGradGradGradGradGradGradGradGradGrad

                          Input orientation:                          
 ---------------------------------------------------------------------
 Center     Atomic      Atomic             Coordinates (Angstroms)
 Number     Number       Type             X           Y           Z
 ---------------------------------------------------------------------
      1          6           0        1.050400    0.146677    0.362681
      2          6           0        2.036382   -0.575948   -0.538518
      3          8           0        3.241142    0.163172   -0.508711
      4          1           0        1.437399    0.201864    1.383967
      5          1           0        0.093194   -0.383774    0.378585
      6          1           0        0.880637    1.165126    0.002431
      7          1           0        2.186485   -1.608140   -0.181002
      8          1           0        1.630239   -0.645802   -1.561228
      9          1           0        3.973462   -0.171227   -1.037004
 ---------------------------------------------------------------------
                    Distance matrix (angstroms):
                    1          2          3          4          5
     1  C    0.000000
     2  C    1.518719   0.000000
     3  O    2.357742   1.413730   0.000000
     4  H    1.093544   2.158638   2.614807   0.000000
     5  H    1.094475   2.157310   3.316025   1.777822   0.000000
     6  H    1.093544   2.158636   2.614797   1.773838   1.777822
     7  H    2.160015   1.102619   2.087400   2.507264   2.488790
     8  H    2.160014   1.102619   2.087400   3.070814   2.488783
     9  H    3.256451   2.040727   0.962916   3.525891   4.135885
                    6          7          8          9
     6  H    0.000000
     7  H    3.070813   0.000000
     8  H    2.507268   1.772154   0.000000
     9  H    3.525880   2.447600   2.447596   0.000000
 Stoichiometry    C2H6O
 Framework group  C1[X(C2H6O)]
 Deg. of freedom    21
 Full point group                 C1      NOp   1
 Largest Abelian subgroup         C1      NOp   1
 Largest concise Abelian subgroup C1      NOp   1
                         Standard orientation:                         
 ---------------------------------------------------------------------
 Center     Atomic      Atomic             Coordinates (Angstroms)
 Number     Number       Type             X           Y           Z
 ---------------------------------------------------------------------
      1          6           0       -1.213928   -0.231805    0.000000
      2          6           0        0.083333    0.557891    0.000000
      3          8           0        1.138998   -0.382431   -0.000001
      4          1           0       -1.272225   -0.868836   -0.886923
      5          1           0       -2.071207    0.448597    0.000010
      6          1           0       -1.272214   -0.868847    0.886915
      7          1           0        0.125373    1.212772   -0.886078
      8          1           0        0.125373    1.212772    0.886076
      9          1           0        2.036481   -0.033530    0.000004
 ---------------------------------------------------------------------
 Rotational constants (GHZ):     34.8599336      9.4602562      8.2065398
 Standard basis: 6-31G(d,p) (6D, 7F)
 There are    75 symmetry adapted cartesian basis functions of A   symmetry.
 There are    75 symmetry adapted basis functions of A   symmetry.
    75 basis functions,   126 primitive gaussians,    75 cartesian basis functions
    13 alpha electrons       13 beta electrons
       nuclear repulsion energy        81.8473019277 Hartrees.
 NAtoms=    9 NActive=    9 NUniq=    9 SFac= 1.00D+00 NAtFMM=   60 NAOKFM=F Big=F
 Integral buffers will be    131072 words long.
 Raffenetti 2 integral format.
 Two-electron integral symmetry is turned on.
 One-electron integrals computed using PRISM.
 NBasis=    75 RedAO= T EigKep=  5.77D-03  NBF=    75
 NBsUse=    75 1.00D-06 EigRej= -1.00D+00 NBFU=    75
 Initial guess from the checkpoint file:  "ethanol_scan.chk"
 B after Tr=     0.000000    0.000000    0.000000
         Rot=    0.999999   -0.000001    0.000000    0.001429 Ang=  -0.16 deg.
 ExpMin= 1.61D-01 ExpMax= 5.48D+03 ExpMxC= 8.25D+02 IAcc=1 IRadAn=         1 AccDes= 0.00D+00
 Harris functional with IExCor=  402 and IRadAn=       1 diagonalized for initial guess.
 HarFok:  IExCor=  402 AccDes= 0.00D+00 IRadAn=         1 IDoV= 1 UseB2=F ITyADJ=14
 ICtDFT=  3500011 ScaDFX=  1.000000  1.000000  1.000000  1.000000
 FoFCou: FMM=F IPFlag=           0 FMFlag=      100000 FMFlg1=           0
         NFxFlg=           0 DoJE=T BraDBF=F KetDBF=T FulRan=T
         wScrn=  0.000000 ICntrl=     500 IOpCl=  0 I1Cent=   200000004 NGrid=           0
         NMat0=    1 NMatS0=      1 NMatT0=    0 NMatD0=    1 NMtDS0=    0 NMtDT0=    0
 Petite list used in FoFCou.
 Keep R1 ints in memory in canonical form, NReq=4994339.
 Requested convergence on RMS density matrix=1.00D-08 within 128 cycles.
 Requested convergence on MAX density matrix=1.00D-06.
 Requested convergence on             energy=1.00D-06.
 No special actions if energy rises.
 Integral accuracy reduced to 1.0D-05 until final iterations.
 Initial convergence to 1.0D-05 achieved.  Increase integral accuracy.
 SCF Done:  E(RB3LYP) =  -155.044191585     A.U. after    9 cycles
            NFock=  9  Conv=0.61D-08     -V/T= 2.0092
 Calling FoFJK, ICntrl=      2127 FMM=F ISym2X=0 I1Cent= 0 IOpClX= 0 NMat=1 NMatS=1 NMatT=0.
 ***** Axes restored to original set *****
 -------------------------------------------------------------------
 Center     Atomic                   Forces (Hartrees/Bohr)
 Number     Number              X              Y              Z
 -------------------------------------------------------------------
      1        6          -0.000929550   -0.000886106   -0.000243379
      2        6           0.004557674   -0.005539301   -0.005698833
      3        8           0.004635853    0.016368926    0.009544726
      4        1           0.000050905    0.000187354    0.000021414
      5        1          -0.000353515    0.000186219    0.000272417
      6        1           0.000094215    0.000112326    0.000129048
      7        1          -0.000220754   -0.000050415    0.000041105
      8        1          -0.000214554   -0.000061083    0.000056430
      9        1          -0.007620274   -0.010317921   -0.004122927
 -------------------------------------------------------------------
 Cartesian Forces:  Max     0.016368926 RMS     0.004899428

 GradGradGradGradGradGradGradGradGradGradGradGradGradGradGradGradGradGrad
 Berny optimization.
 Using GEDIIS/GDIIS optimizer.
 FormGI is forming the generalized inverse of G from B-inverse, IUseBI=4.
 Internal  Forces:  Max     0.024509030 RMS     0.004280043
 Search for a local minimum.
 Step number   2 out of a maximum of   43 on scan point     2 out of     8
 All quantities printed in internal units (Hartrees-Bohrs-Radians)
 Mixed Optimization -- En-DIIS/RFO-DIIS
 Update second derivatives using D2CorX and points    1    2
 DE= -1.14D-04 DEPred=-1.38D-04 R= 8.26D-01
 TightC=F SS=  1.41D+00  RLast= 3.26D-02 DXNew= 6.0304D-01 9.7719D-02
 Trust test= 8.26D-01 RLast= 3.26D-02 DXMaxT set to 3.59D-01
 ITU=  1  0
 Use linear search instead of GDIIS.
     Eigenvalues ---    0.00584   0.01431   0.05344   0.05499   0.05791
     Eigenvalues ---    0.05993   0.12744   0.13576   0.15993   0.16000
     Eigenvalues ---    0.16470   0.25364   0.31265   0.33826   0.34237
     Eigenvalues ---    0.34343   0.34443   0.34997   0.38264   0.52611
     Eigenvalues --- 1000.000001000.000001000.000001000.000001000.00000
     Eigenvalues --- 1000.000001000.000001000.000001000.000001000.00000
     Eigenvalues --- 1000.000001000.000001000.00000
 RFO step:  Lambda=-8.23502564D-06 EMin= 5.84331289D-03
 Quartic linear search produced a step of -0.15215.
 Iteration  1 RMS(Cart)=  0.00228537 RMS(Int)=  0.00000414
 Iteration  2 RMS(Cart)=  0.00000314 RMS(Int)=  0.00000313
 Iteration  3 RMS(Cart)=  0.00000000 RMS(Int)=  0.00000313
 Iteration  1 RMS(Cart)=  0.00000000 RMS(Int)=  0.00000000
 Variable       Old X    -DE/DX   Delta X   Delta X   Delta X     New X
                                 (Linear)    (Quad)   (Total)
    R1        2.86996   0.00065   0.00018   0.00161   0.00179   2.87175
    R2        2.06650   0.00005   0.00010   0.00001   0.00011   2.06661
    R3        2.06826   0.00022   0.00004   0.00051   0.00055   2.06880
    R4        2.06650   0.00005   0.00010   0.00001   0.00011   2.06661
    R5        2.67156   0.00074   0.00341  -0.00257   0.00084   2.67240
    R6        2.08365   0.00003  -0.00013   0.00021   0.00008   2.08372
    R7        2.08365   0.00003  -0.00013   0.00021   0.00008   2.08372
    R8        1.81965   0.00005   0.00079  -0.00089  -0.00009   1.81955
    A1        1.92670  -0.00006  -0.00004  -0.00060  -0.00064   1.92606
    A2        1.92390   0.00067   0.00116   0.00288   0.00404   1.92794
    A3        1.92670  -0.00006  -0.00004  -0.00059  -0.00064   1.92606
    A4        1.89695  -0.00021  -0.00027  -0.00003  -0.00030   1.89664
    A5        1.89189  -0.00015  -0.00057  -0.00169  -0.00226   1.88962
    A6        1.89694  -0.00021  -0.00027  -0.00003  -0.00030   1.89664
    A7        1.86710   0.00118   0.00246   0.00209   0.00455   1.87165
    A8        1.91920  -0.00045  -0.00036  -0.00178  -0.00215   1.91705
    A9        1.91920  -0.00045  -0.00036  -0.00178  -0.00215   1.91705
   A10        1.94612  -0.00022  -0.00113   0.00161   0.00048   1.94660
   A11        1.94612  -0.00022  -0.00113   0.00161   0.00048   1.94660
   A12        1.86668   0.00013   0.00048  -0.00185  -0.00137   1.86531
   A13        2.04314  -0.02451   0.00000   0.00000   0.00000   2.04314
    D1       -1.04571   0.00013   0.00038   0.00143   0.00182  -1.04389
    D2        1.07037   0.00032   0.00031   0.00363   0.00393   1.07431
    D3        3.12139  -0.00006   0.00046  -0.00076  -0.00030   3.12110
[...]
                                 (Linear)    (Quad)   (Total)
    R1        2.88419   0.00007  -0.00002   0.00017   0.00014   2.88433
    R2        2.06769  -0.00001   0.00000  -0.00003  -0.00003   2.06765
    R3        2.07145   0.00001   0.00000   0.00006   0.00006   2.07151
    R4        2.06769  -0.00001   0.00000  -0.00003  -0.00003   2.06765
    R5        2.60486   0.00038   0.00004   0.00090   0.00094   2.60579
    R6        2.08459  -0.00001   0.00001  -0.00010  -0.00010   2.08450
    R7        2.08459  -0.00001   0.00001  -0.00010  -0.00010   2.08450
    R8        1.77273   0.00017   0.00003   0.00019   0.00022   1.77295
    A1        1.92662   0.00006   0.00000   0.00040   0.00040   1.92702
    A2        1.92796  -0.00009  -0.00002  -0.00065  -0.00067   1.92729
    A3        1.92662   0.00006   0.00000   0.00040   0.00040   1.92702
    A4        1.89581   0.00000   0.00001  -0.00013  -0.00012   1.89569
    A5        1.89012  -0.00003   0.00000   0.00011   0.00011   1.89023
    A6        1.89581   0.00000   0.00001  -0.00013  -0.00012   1.89569
    A7        1.94344   0.00006  -0.00017   0.00042   0.00025   1.94369
    A8        1.90802  -0.00006   0.00001  -0.00028  -0.00027   1.90776
    A9        1.90802  -0.00006   0.00001  -0.00028  -0.00027   1.90776
   A10        1.92302   0.00002   0.00008  -0.00001   0.00007   1.92309
   A11        1.92302   0.00002   0.00008  -0.00001   0.00007   1.92309
   A12        1.85620   0.00002  -0.00002   0.00015   0.00013   1.85634
   A13        3.09034  -0.00985   0.00000   0.00000   0.00000   3.09034
    D1       -1.04455  -0.00002   0.00000  -0.00033  -0.00033  -1.04487
    D2        1.08435   0.00000   0.00000  -0.00026  -0.00026   1.08410
    D3        3.10974  -0.00004   0.00000  -0.00039  -0.00039   3.10934
    D4        3.14159   0.00000   0.00000   0.00000   0.00000   3.14159
    D5       -1.01269   0.00002   0.00000   0.00007   0.00007  -1.01262
    D6        1.01269  -0.00002   0.00000  -0.00007  -0.00007   1.01262
    D7        1.04455   0.00002   0.00000   0.00033   0.00033   1.04487
    D8       -3.10974   0.00004   0.00000   0.00039   0.00040  -3.10935
    D9       -1.08435   0.00000   0.00000   0.00026   0.00026  -1.08410
   D10       -3.14158   0.00000   0.00000   0.00000   0.00000  -3.14158
   D11        1.02142   0.00002   0.00004   0.00008   0.00012   1.02154
   D12       -1.02139  -0.00002  -0.00004  -0.00008  -0.00012  -1.02151
         Item               Value     Threshold  Converged?
 Maximum Force            0.000379     0.000450     YES
 RMS     Force            0.000081     0.000300     YES
 Maximum Displacement     0.001384     0.001800     YES
 RMS     Displacement     0.000507     0.001200     YES
 Predicted change in Energy=-3.062558D-07
 Optimization completed.
    -- Stationary point found.
                           ----------------------------
                           !   Optimized Parameters   !
                           ! (Angstroms and Degrees)  !
 --------------------------                            --------------------------
 ! Name  Definition              Value          Derivative Info.                !
 --------------------------------------------------------------------------------
 ! R1    R(1,2)                  1.5262         -DE/DX =    0.0001              !
 ! R2    R(1,4)                  1.0942         -DE/DX =    0.0                 !
 ! R3    R(1,5)                  1.0962         -DE/DX =    0.0                 !
 ! R4    R(1,6)                  1.0942         -DE/DX =    0.0                 !
 ! R5    R(2,3)                  1.3784         -DE/DX =    0.0004              !
 ! R6    R(2,7)                  1.1031         -DE/DX =    0.0                 !
 ! R7    R(2,8)                  1.1031         -DE/DX =    0.0                 !
 ! R8    R(3,9)                  0.9381         -DE/DX =    0.0002              !
 ! A1    A(2,1,4)              110.3874         -DE/DX =    0.0001              !
 ! A2    A(2,1,5)              110.4641         -DE/DX =   -0.0001              !
 ! A3    A(2,1,6)              110.3874         -DE/DX =    0.0001              !
 ! A4    A(4,1,5)              108.6219         -DE/DX =    0.0                 !
 ! A5    A(4,1,6)              108.2957         -DE/DX =    0.0                 !
 ! A6    A(5,1,6)              108.6219         -DE/DX =    0.0                 !
 ! A7    A(1,2,3)              111.3508         -DE/DX =    0.0001              !
 ! A8    A(1,2,7)              109.3218         -DE/DX =   -0.0001              !
 ! A9    A(1,2,8)              109.3218         -DE/DX =   -0.0001              !
 ! A10   A(3,2,7)              110.1811         -DE/DX =    0.0                 !
 ! A11   A(3,2,8)              110.1811         -DE/DX =    0.0                 !
 ! A12   A(7,2,8)              106.3525         -DE/DX =    0.0                 !
 ! A13   A(2,3,9)              177.0635         -DE/DX =   -0.0099              !
 ! D1    D(4,1,2,3)            -59.8481         -DE/DX =    0.0                 !
 ! D2    D(4,1,2,7)             62.1288         -DE/DX =    0.0                 !
 ! D3    D(4,1,2,8)            178.1749         -DE/DX =    0.0                 !
 ! D4    D(5,1,2,3)            179.9999         -DE/DX =    0.0                 !
 ! D5    D(5,1,2,7)            -58.0231         -DE/DX =    0.0                 !
 ! D6    D(5,1,2,8)             58.023          -DE/DX =    0.0                 !
 ! D7    D(6,1,2,3)             59.848          -DE/DX =    0.0                 !
 ! D8    D(6,1,2,7)           -178.175          -DE/DX =    0.0                 !
 ! D9    D(6,1,2,8)            -62.1289         -DE/DX =    0.0                 !
 ! D10   D(1,2,3,9)           -179.999          -DE/DX =    0.0                 !
 ! D11   D(7,2,3,9)             58.5231         -DE/DX =    0.0                 !
 ! D12   D(8,2,3,9)            -58.5211         -DE/DX =    0.0                 !
 --------------------------------------------------------------------------------
 GradGradGradGradGradGradGradGradGradGradGradGradGradGradGradGradGradGrad

 Summary of Optimized Potential Surface Scan
                           1         2         3         4         5
     Eigenvalues --  -155.04619-155.04420-155.03792-155.02855-155.01765
           R1           1.51923   1.51967   1.52003   1.52035   1.52107
           R2           1.09390   1.09360   1.09336   1.09347   1.09348
           R3           1.09464   1.09476   1.09505   1.09511   1.09545
           R4           1.09390   1.09360   1.09336   1.09347   1.09348
           R5           1.42588   1.41417   1.40559   1.39883   1.39257
           R6           1.10211   1.10266   1.10307   1.10346   1.10376
           R7           1.10211   1.10266   1.10307   1.10346   1.10376
           R8           0.96568   0.96287   0.95947   0.95530   0.95012
           A1         110.37661 110.35534 110.31697 110.32231 110.30229
           A2         110.67996 110.46264 110.32434 110.20113 110.15585
           A3         110.37664 110.35526 110.31686 110.32227 110.30229
           A4         108.58090 108.66973 108.75265 108.83225 108.86947
           A5         108.17524 108.26751 108.32397 108.28090 108.29428
           A6         108.58089 108.66972 108.75264 108.83226 108.86948
           A7         107.90022 107.23744 106.86165 106.90479 107.45224
           A8         109.84034 109.83888 109.83427 109.78477 109.71256
           A9         109.84035 109.83888 109.83425 109.78476 109.71255
           A10        111.05690 111.53207 111.83979 111.95142 111.83220
           A11        111.05689 111.53209 111.83985 111.95147 111.83225
           A12        107.15117 106.87417 106.64728 106.47639 106.30005
           A13        107.06349 117.06349 127.06349 137.06349 147.06349
           D1         -59.76624 -59.81047 -59.82109 -59.79750 -59.79295
           D2          61.42797  61.55324  61.68328  61.83960  61.99288
           D3         179.03957 178.82578 178.67449 178.56534 178.42117
           D4        -179.99989 179.99958 179.99956 179.99986-179.99998
           D5         -58.80568 -58.63671 -58.49607 -58.36305 -58.21415
           D6          58.80592  58.63583  58.49514  58.36270  58.21414
           D7          59.76645  59.80969  59.82030  59.79723  59.79297
           D8        -179.03934-178.82659-178.67533-178.56567-178.42120
           D9         -61.42774 -61.55405 -61.68413 -61.83992 -61.99291
           D10        179.99965-179.99970-179.99943-179.99938-179.99932
           D11         59.56598  59.70790  59.77341  59.74110  59.54672
           D12        -59.56668 -59.70728 -59.77225 -59.73984 -59.54533
                           6         7         8
     Eigenvalues --  -155.00711-154.99895-154.99484
           R1           1.52233   1.52417   1.52625
           R2           1.09359   1.09384   1.09417
           R3           1.09581   1.09607   1.09616
           R4           1.09359   1.09384   1.09417
           R5           1.38646   1.38128   1.37843
           R6           1.10389   1.10370   1.10312
           R7           1.10389   1.10370   1.10312
           R8           0.94471   0.94030   0.93809
           A1         110.30014 110.33021 110.38739
           A2         110.19407 110.30727 110.46407
           A3         110.30015 110.33021 110.38738
           A4         108.84274 108.75321 108.62188
           A5         108.31276 108.31311 108.29568
           A6         108.84274 108.75321 108.62188
           A7         108.48194 109.85288 111.35082
           A8         109.59581 109.45010 109.32177
           A9         109.59580 109.45009 109.32176
           A10        111.47304 110.90394 110.18105
           A11        111.47309 110.90398 110.18106
           A12        106.19386 106.20563 106.35254
           A13        157.06349 167.06349 177.06349
           D1         -59.80302 -59.82241 -59.84814
           D2          62.11404  62.17039  62.12881
           D3         178.27987 178.18474 178.17491
           D4        -179.99995-180.00000 179.99994
           D5         -58.08289 -58.00719 -58.02311
           D6          58.08294  58.00716  58.02299
           D7          59.80310  59.82242  59.84803
           D8        -178.27984-178.18478-178.17502
           D9         -62.11401 -62.17043 -62.12892
           D10       -179.99923-179.99912-179.99901
           D11         59.23846  58.87795  58.52308
           D12        -59.23690 -58.87617 -58.52111
                          Input orientation:                          
 ---------------------------------------------------------------------
 Center     Atomic      Atomic             Coordinates (Angstroms)
 Number     Number       Type             X           Y           Z
 ---------------------------------------------------------------------
      1          6           0        1.082359    0.152764    0.354044
      2          6           0        1.978923   -0.661305   -0.574877
      3          8           0        3.231367   -0.096356   -0.685722
      4          1           0        1.521092    0.208590    1.354849
      5          1           0        0.091176   -0.308877    0.431627
      6          1           0        0.964357    1.171784   -0.026597
      7          1           0        2.059279   -1.693036   -0.192847
      8          1           0        1.504949   -0.734005   -1.568323
      9          1           0        4.095837    0.252393   -0.790953
 ---------------------------------------------------------------------
                    Distance matrix (angstroms):
                    1          2          3          4          5
     1  C    0.000000
     2  C    1.526247   0.000000
     3  O    2.400294   1.378430   0.000000
     4  H    1.094173   2.165680   2.679918   0.000000
     5  H    1.096163   2.168143   3.339825   1.778980   0.000000
     6  H    1.094173   2.165680   2.679917   1.773722   1.778980
     7  H    2.158805   1.103119   2.041102   2.510217   2.485818
     8  H    2.158805   1.103119   2.041103   3.071430   2.485817
     9  H    3.225212   2.315785   0.938088   3.351969   4.224575
                    6          7          8          9
     6  H    0.000000
     7  H    3.071430   0.000000
     8  H    2.510217   1.766057   0.000000
     9  H    3.351967   2.879234   2.879234   0.000000
 Stoichiometry    C2H6O
 Framework group  C1[X(C2H6O)]
 Deg. of freedom    21
 Full point group                 C1      NOp   1
 Largest Abelian subgroup         C1      NOp   1
 Largest concise Abelian subgroup C1      NOp   1
                         Standard orientation:                         
 ---------------------------------------------------------------------
 Center     Atomic      Atomic             Coordinates (Angstroms)
 Number     Number       Type             X           Y           Z
 ---------------------------------------------------------------------
      1          6           0       -1.219350   -0.269264    0.000000
      2          6           0        0.062987    0.558408    0.000000
      3          8           0        1.180850   -0.248099    0.000000
      4          1           0       -1.260236   -0.908810   -0.886861
      5          1           0       -2.098271    0.385772    0.000001
      6          1           0       -1.260234   -0.908811    0.886860
      7          1           0        0.070694    1.219523   -0.883028
      8          1           0        0.070694    1.219523    0.883028
      9          1           0        1.968728   -0.757271    0.000001
 ---------------------------------------------------------------------
 Rotational constants (GHZ):     35.7358851      9.2270945      8.0732518

 **********************************************************************

            Population analysis using the SCF density.

 **********************************************************************

 Orbital symmetries:
       Occupied  (A) (A) (A) (A) (A) (A) (A) (A) (A) (A) (A) (A)
                 (A)
       Virtual   (A) (A) (A) (A) (A) (A) (A) (A) (A) (A) (A) (A)
                 (A) (A) (A) (A) (A) (A) (A) (A) (A) (A) (A) (A)
                 (A) (A) (A) (A) (A) (A) (A) (A) (A) (A) (A) (A)
                 (A) (A) (A) (A) (A) (A) (A) (A) (A) (A) (A) (A)
                 (A) (A) (A) (A) (A) (A) (A) (A) (A) (A) (A) (A)
                 (A) (A)
 The electronic state is 1-A.
 Alpha  occ. eigenvalues --  -19.09998 -10.24106 -10.16605  -0.98758  -0.74467
 Alpha  occ. eigenvalues --   -0.63229  -0.51344  -0.45285  -0.40641  -0.37158
 Alpha  occ. eigenvalues --   -0.35620  -0.24828  -0.24608
 Alpha virt. eigenvalues --    0.07227   0.11615   0.15989   0.16355   0.17981
 Alpha virt. eigenvalues --    0.20230   0.24696   0.24893   0.48910   0.53913
 Alpha virt. eigenvalues --    0.55726   0.59485   0.65990   0.67271   0.83626
 Alpha virt. eigenvalues --    0.83934   0.87533   0.88568   0.89413   0.93302
 Alpha virt. eigenvalues --    1.00359   1.00486   1.01519   1.24843   1.31260
 Alpha virt. eigenvalues --    1.31508   1.45308   1.61182   1.67784   1.77307
 Alpha virt. eigenvalues --    1.78336   1.86576   1.88309   1.93107   1.98112
 Alpha virt. eigenvalues --    2.05348   2.06473   2.06937   2.10421   2.13365
 Alpha virt. eigenvalues --    2.27731   2.33576   2.37030   2.43640   2.54636
 Alpha virt. eigenvalues --    2.57918   2.71424   2.76999   2.80010   2.85743
 Alpha virt. eigenvalues --    2.89340   3.01346   3.01933   3.18408   3.29650
 Alpha virt. eigenvalues --    3.37701   3.46012   3.54424   3.63015   4.19572
 Alpha virt. eigenvalues --    4.47959   4.77490
          Condensed to atoms (all electrons):
               1          2          3          4          5          6
     1  C    5.009208   0.378355  -0.067705   0.378248   0.343900   0.378248
     2  C    0.378355   4.559849   0.279755  -0.030638  -0.024859  -0.030638
     3  O   -0.067705   0.279755   8.167354   0.003340   0.004183   0.003340
     4  H    0.378248  -0.030638   0.003340   0.605340  -0.027780  -0.034550
     5  H    0.343900  -0.024859   0.004183  -0.027780   0.637731  -0.027780
     6  H    0.378248  -0.030638   0.003340  -0.034550  -0.027780   0.605340
     7  H   -0.052361   0.379867  -0.047400  -0.008302   0.001763   0.006492
     8  H   -0.052361   0.379867  -0.047400   0.006492   0.001763  -0.008302
     9  H    0.002749  -0.030012   0.333096   0.000202  -0.000136   0.000202
               7          8          9
     1  C   -0.052361  -0.052361   0.002749
     2  C    0.379867   0.379867  -0.030012
     3  O   -0.047400  -0.047400   0.333096
     4  H   -0.008302   0.006492   0.000202
     5  H    0.001763   0.001763  -0.000136
     6  H    0.006492  -0.008302   0.000202
     7  H    0.699021  -0.060200   0.001573
     8  H   -0.060200   0.699021   0.001573
     9  H    0.001573   0.001573   0.347970
 Mulliken charges:
               1
     1  C   -0.318281
     2  C    0.138454
     3  O   -0.628564
     4  H    0.107648
     5  H    0.091216
     6  H    0.107649
     7  H    0.079548
     8  H    0.079548
     9  H    0.342783
 Sum of Mulliken charges =   0.00000
 Mulliken charges with hydrogens summed into heavy atoms:
               1
     1  C   -0.011768
     2  C    0.297549
     3  O   -0.285781
 Electronic spatial extent (au):  <R**2>=            194.0622
 Charge=              0.0000 electrons
 Dipole moment (field-independent basis, Debye):
    X=              0.4912    Y=             -0.2890    Z=              0.0000  Tot=              0.5699
 Quadrupole moment (field-independent basis, Debye-Ang):
   XX=            -16.5239   YY=            -18.8087   ZZ=            -19.8970
   XY=             -2.2488   XZ=              0.0000   YZ=              0.0000
 Traceless Quadrupole moment (field-independent basis, Debye-Ang):
   XX=              1.8859   YY=             -0.3988   ZZ=             -1.4871
   XY=             -2.2488   XZ=              0.0000   YZ=              0.0000
 Octapole moment (field-independent basis, Debye-Ang**2):
  XXX=             17.7498  YYY=             -2.4247  ZZZ=              0.0000  XYY=              4.3006
  XXY=             -5.7970  XXZ=              0.0000  XZZ=              1.7502  YZZ=             -0.6695
  YYZ=              0.0000  XYZ=              0.0000
 Hexadecapole moment (field-independent basis, Debye-Ang**3):
 XXXX=           -129.2684 YYYY=            -56.0693 ZZZZ=            -32.6022 XXXY=            -17.9468
 XXXZ=              0.0000 YYYX=             -5.0388 YYYZ=              0.0000 ZZZX=              0.0000
 ZZZY=              0.0000 XXYY=            -30.1263 XXZZ=            -32.3699 YYZZ=            -13.8653
 XXYZ=              0.0000 YYXZ=              0.0000 ZZXY=             -0.1212
 N-N= 8.192278660244D+01 E-N=-5.258632541299D+02  KE= 1.535860943445D+02
 1\1\GINC-CPU-E-328\Scan\RB3LYP\6-31G(d,p)\C2H6O1\AM2145\07-Sep-2021\0\
 \#n B3LYP/6-31G(d,p) Opt=ModRedundant\\ethanol_scan\\0,1\C,1.082358949
 3,0.1527635971,0.3540441142\C,1.978922918,-0.6613052628,-0.5748771663\
 O,3.2313667578,-0.0963564712,-0.6857223195\H,1.5210922818,0.2085901067
 ,1.3548489007\H,0.0911764986,-0.3088769922,0.431627069\H,0.9643573997,
 1.1717835714,-0.0265969469\H,2.059279396,-1.6930356655,-0.1928470357\H
 ,1.5049487822,-0.7340054605,-1.5683232415\H,4.0958370144,0.2523925808,
 -0.7909533792\\Version=ES64L-G09RevD.01\State=1-A\HF=-155.0461872,-155
 .0441999,-155.0379213,-155.0285499,-155.0176464,-155.0071101,-154.9989
 516,-154.9948417\RMSD=1.740e-09,4.002e-09,6.170e-09,4.738e-09,3.707e-0
 9,9.082e-09,2.373e-09,1.718e-09\PG=C01 [X(C2H6O1)]\\@


 ... THE UNIVERSE IS NOT ONLY QUEERER THAN WE SUPPOSE,
 BUT QUEERER THAN WE CAN SUPPOSE ... 

                                   -- J. B. S. HALDANE
 Job cpu time:       0 days  0 hours 46 minutes 41.3 seconds.
 File lengths (MBytes):  RWF=      5 Int=      0 D2E=      0 Chk=      2 Scr=      1
 Normal termination of Gaussian 09 at Tue Sep  7 23:58:27 2021.
