 Entering Gaussian System, Link 0=g09
 Initial command:
 /usr/local/Cluster-Apps/gaussian/g09/l1.exe "/rds/user/am2145/hpc-work/scratch/42233006/Gau-107042.inp" -scrdir="/rds/user/am2145/hpc-work/scratch/42233006/"
 Entering Link 1 = /usr/local/Cluster-Apps/gaussian/g09/l1.exe PID=    107043.
  
 Copyright (c) 1988,1990,1992,1993,1995,1998,2003,2009,2013,
            Gaussian, Inc.  All Rights Reserved.
  
 This is part of the Gaussian(R) 09 program.  It is based on
 the Gaussian(R) 03 system (copyright 2003, Gaussian, Inc.),
 the Gaussian(R) 98 system (copyright 1998, Gaussian, Inc.),
 the Gaussian(R) 94 system (copyright 1995, Gaussian, Inc.),
 the Gaussian 92(TM) system (copyright 1992, Gaussian, Inc.),
 the Gaussian 90(TM) system (copyright 1990, Gaussian, Inc.),
 the Gaussian 88(TM) system (copyright 1988, Gaussian, Inc.),
 the Gaussian 86(TM) system (copyright 1986, Carnegie Mellon
 University), and the Gaussian 82(TM) system (copyright 1983,
 Carnegie Mellon University). Gaussian is a federally registered
 trademark of Gaussian, Inc.
  
 This software contains proprietary and confidential information,
 including trade secrets, belonging to Gaussian, Inc.
  
 This software is provided under written license and may be
 used, copied, transmitted, or stored only in accord with that
 written license.
  
 The following legend is applicable only to US Government
 contracts under FAR:
  
                    RESTRICTED RIGHTS LEGEND
  
 Use, reproduction and disclosure by the US Government is
 subject to restrictions as set forth in subparagraphs (a)
 and (c) of the Commercial Computer Software - Restricted
 Rights clause in FAR 52.227-19.
  
 Gaussian, Inc.
 340 Quinnipiac St., Bldg. 40, Wallingford CT 06492
  
  
 ---------------------------------------------------------------
 Warning -- This program may not be used in any manner that
 competes with the business of Gaussian, Inc. or will provide
 assistance to any competitor of Gaussian, Inc.  The licensee
 of this program is prohibited from giving any competitor of
 Gaussian, Inc. access to this program.  By using this program,
 the user acknowledges that Gaussian, Inc. is engaged in the
 business of creating and licensing software in the field of
 computational chemistry and represents and warrants to the
 licensee that it is not a competitor of Gaussian, Inc. and that
 it will not use this program in any manner prohibited above.
 ---------------------------------------------------------------
  

 Cite this work as:
 Gaussian 09, Revision D.01,
 M. J. Frisch, G. W. Trucks, H. B. Schlegel, G. E. Scuseria, 
 M. A. Robb, J. R. Cheeseman, G. Scalmani, V. Barone, B. Mennucci, 
 G. A. Petersson, H. Nakatsuji, M. Caricato, X. Li, H. P. Hratchian, 
 A. F. Izmaylov, J. Bloino, G. Zheng, J. L. Sonnenberg, M. Hada, 
 M. Ehara, K. Toyota, R. Fukuda, J. Hasegawa, M. Ishida, T. Nakajima, 
 Y. Honda, O. Kitao, H. Nakai, T. Vreven, J. A. Montgomery, Jr., 
 J. E. Peralta, F. Ogliaro, M. Bearpark, J. J. Heyd, E. Brothers, 
 K. N. Kudin, V. N. Staroverov, T. Keith, R. Kobayashi, J. Normand, 
 K. Raghavachari, A. Rendell, J. C. Burant, S. S. Iyengar, J. Tomasi, 
 M. Cossi, N. Rega, J. M. Millam, M. Klene, J. E. Knox, J. B. Cross, 
 V. Bakken, C. Adamo, J. Jaramillo, R. Gomperts, R. E. Stratmann, 
 O. Yazyev, A. J. Austin, R. Cammi, C. Pomelli, J. W. Ochterski, 
 R. L. Martin, K. Morokuma, V. G. Zakrzewski, G. A. Voth, 
 P. Salvador, J. J. Dannenberg, S. Dapprich, A. D. Daniels, 
 O. Farkas, J. B. Foresman, J. V. Ortiz, J. Cioslowski, 
 and D. J. Fox, Gaussian, Inc., Wallingford CT, 2013.
 
 ******************************************
 Gaussian 09:  ES64L-G09RevD.01 24-Apr-2013
                16-Jun-2021 
 ******************************************
 %nprocshared=20
 Will use up to   20 processors via shared memory.
 %mem=32GB
 %chk=ethane_3_rigid.chk
 ----------------
 # b3lyp/6-31g(d)
 ----------------
 1/38=1/1;
 2/12=2,17=6,18=5,40=1/2;
 3/5=1,6=6,7=1,11=2,16=1,25=1,30=1,74=-5/1,2,3;
 4//1;
 5/5=2,38=5/2;
 6/7=2,8=2,9=2,10=2,28=1/1;
 99/5=1,9=1/99;
 -----------------
 ethane_scan_rigid
 -----------------
 Symbolic Z-matrix:
 Charge =  0 Multiplicity = 1
 C                     0.        0.       -0.91537 
 C                     0.        0.        0.91537 
 H                     1.0185    0.        1.31351 
 H                    -0.50925  -0.88205   1.31351 
 H                    -0.50925   0.88204   1.31351 
 H                     0.50925  -0.88204  -1.31351 
 H                     0.50925   0.88205  -1.31351 
 H                    -1.0185    0.       -1.31351 
 
                          Input orientation:                          
 ---------------------------------------------------------------------
 Center     Atomic      Atomic             Coordinates (Angstroms)
 Number     Number       Type             X           Y           Z
 ---------------------------------------------------------------------
      1          6           0        0.000000    0.000000   -0.915370
      2          6           0        0.000000    0.000000    0.915370
      3          1           0        1.018496    0.000000    1.313512
      4          1           0       -0.509246   -0.882045    1.313512
      5          1           0       -0.509249    0.882044    1.313511
      6          1           0        0.509249   -0.882044   -1.313511
      7          1           0        0.509246    0.882045   -1.313512
      8          1           0       -1.018496    0.000000   -1.313512
 ---------------------------------------------------------------------
                    Distance matrix (angstroms):
                    1          2          3          4          5
     1  C    0.000000
     2  C    1.830740   0.000000
     3  H    2.450561   1.093550   0.000000
     4  H    2.450561   1.093550   1.764086   0.000000
     5  H    2.450560   1.093550   1.764088   1.764089   0.000000
     6  H    1.093550   2.450560   2.817549   2.817549   3.324243
     7  H    1.093550   2.450561   2.817551   3.324243   2.817549
     8  H    1.093550   2.450561   3.324243   2.817551   2.817549
                    6          7          8
     6  H    0.000000
     7  H    1.764089   0.000000
     8  H    1.764088   1.764086   0.000000
 This structure is nearly, but not quite of a higher symmetry.
 Consider Symm=Loose if the higher symmetry is desired.
 Stoichiometry    C2H6
 Framework group  CI[X(C2H6)]
 Deg. of freedom     9
 Full point group                 CI      NOp   2
 Largest Abelian subgroup         CI      NOp   2
 Largest concise Abelian subgroup CI      NOp   2
                         Standard orientation:                         
 ---------------------------------------------------------------------
 Center     Atomic      Atomic             Coordinates (Angstroms)
 Number     Number       Type             X           Y           Z
 ---------------------------------------------------------------------
      1          6           0        0.000000    0.000000   -0.915370
      2          6           0        0.000000    0.000000    0.915370
      3          1           0        1.018496    0.000000    1.313512
      4          1           0       -0.509246   -0.882045    1.313512
      5          1           0       -0.509249    0.882044    1.313511
      6          1           0        0.509249   -0.882044   -1.313511
      7          1           0        0.509246    0.882045   -1.313512
      8          1           0       -1.018496    0.000000   -1.313512
 ---------------------------------------------------------------------
 Rotational constants (GHZ):     80.5678459     15.0058116     15.0058058
 Standard basis: 6-31G(d) (6D, 7F)
 There are    21 symmetry adapted cartesian basis functions of AG  symmetry.
 There are    21 symmetry adapted cartesian basis functions of AU  symmetry.
 There are    21 symmetry adapted basis functions of AG  symmetry.
 There are    21 symmetry adapted basis functions of AU  symmetry.
    42 basis functions,    80 primitive gaussians,    42 cartesian basis functions
     9 alpha electrons        9 beta electrons
       nuclear repulsion energy        39.0046777793 Hartrees.
 NAtoms=    8 NActive=    8 NUniq=    4 SFac= 4.00D+00 NAtFMM=   60 NAOKFM=F Big=F
 Integral buffers will be    131072 words long.
 Raffenetti 2 integral format.
 Two-electron integral symmetry is turned on.
 One-electron integrals computed using PRISM.
 NBasis=    42 RedAO= T EigKep=  9.52D-03  NBF=    21    21
 NBsUse=    42 1.00D-06 EigRej= -1.00D+00 NBFU=    21    21
 ExpMin= 1.61D-01 ExpMax= 3.05D+03 ExpMxC= 4.57D+02 IAcc=1 IRadAn=         1 AccDes= 0.00D+00
 Harris functional with IExCor=  402 and IRadAn=       1 diagonalized for initial guess.
 HarFok:  IExCor=  402 AccDes= 0.00D+00 IRadAn=         1 IDoV= 1 UseB2=F ITyADJ=14
 ICtDFT=  3500011 ScaDFX=  1.000000  1.000000  1.000000  1.000000
 FoFCou: FMM=F IPFlag=           0 FMFlag=      100000 FMFlg1=           0
         NFxFlg=           0 DoJE=T BraDBF=F KetDBF=T FulRan=T
         wScrn=  0.000000 ICntrl=     500 IOpCl=  0 I1Cent=   200000004 NGrid=           0
         NMat0=    1 NMatS0=      1 NMatT0=    0 NMatD0=    1 NMtDS0=    0 NMtDT0=    0
 Petite list used in FoFCou.
 Initial guess orbital symmetries:
       Occupied  (AG) (AU) (AG) (AU) (AU) (AU) (AG) (AG) (AG)
       Virtual   (AU) (AG) (AU) (AU) (AU) (AG) (AG) (AU) (AU) (AU)
                 (AG) (AG) (AG) (AG) (AG) (AG) (AU) (AU) (AU) (AG)
                 (AU) (AU) (AU) (AG) (AG) (AG) (AU) (AU) (AG) (AG)
                 (AU) (AG) (AU)
 The electronic state of the initial guess is 1-AG.
 Keep R1 ints in memory in symmetry-blocked form, NReq=1296204.
 Requested convergence on RMS density matrix=1.00D-08 within 128 cycles.
 Requested convergence on MAX density matrix=1.00D-06.
 Requested convergence on             energy=1.00D-06.
 No special actions if energy rises.
 Integral accuracy reduced to 1.0D-05 until final iterations.
 Initial convergence to 1.0D-05 achieved.  Increase integral accuracy.
 SCF Done:  E(RB3LYP) =  -79.8011213560     A.U. after   10 cycles
            NFock= 10  Conv=0.79D-09     -V/T= 2.0142

 **********************************************************************

            Population analysis using the SCF density.

 **********************************************************************

 Orbital symmetries:
       Occupied  (AG) (AU) (AG) (AU) (AU) (AU) (AG) (AG) (AG)
       Virtual   (AU) (AG) (AU) (AU) (AU) (AG) (AG) (AU) (AU) (AU)
                 (AG) (AG) (AG) (AG) (AG) (AG) (AU) (AU) (AU) (AG)
                 (AU) (AU) (AU) (AG) (AG) (AG) (AU) (AU) (AG) (AG)
                 (AU) (AG) (AU)
 The electronic state is 1-AG.
 Alpha  occ. eigenvalues --  -10.18893 -10.18888  -0.70599  -0.63274  -0.40938
 Alpha  occ. eigenvalues --   -0.40938  -0.36060  -0.36060  -0.31997
 Alpha virt. eigenvalues --    0.09676   0.10979   0.17463   0.17474   0.17474
 Alpha virt. eigenvalues --    0.18714   0.18714   0.50456   0.50456   0.58379
 Alpha virt. eigenvalues --    0.60498   0.66076   0.66076   0.88188   0.88922
 Alpha virt. eigenvalues --    0.88922   0.91530   0.91530   0.96982   1.05656
 Alpha virt. eigenvalues --    1.36295   1.58842   1.58842   1.70971   1.86608
 Alpha virt. eigenvalues --    1.86608   2.24745   2.24745   2.28397   2.28397
 Alpha virt. eigenvalues --    2.40820   4.10343   4.28094
          Condensed to atoms (all electrons):
               1          2          3          4          5          6
     1  C    5.043100   0.333863  -0.019720  -0.019722  -0.019722   0.378146
     2  C    0.333863   5.043100   0.378147   0.378146   0.378146  -0.019722
     3  H   -0.019720   0.378147   0.561727  -0.035257  -0.035256  -0.001005
     4  H   -0.019722   0.378146  -0.035257   0.561729  -0.035258  -0.001005
     5  H   -0.019722   0.378146  -0.035256  -0.035258   0.561728   0.001625
     6  H    0.378146  -0.019722  -0.001005  -0.001005   0.001625   0.561728
     7  H    0.378146  -0.019722  -0.001005   0.001625  -0.001005  -0.035258
     8  H    0.378147  -0.019720   0.001625  -0.001005  -0.001005  -0.035256
               7          8
     1  C    0.378146   0.378147
     2  C   -0.019722  -0.019720
     3  H   -0.001005   0.001625
     4  H    0.001625  -0.001005
     5  H   -0.001005  -0.001005
     6  H   -0.035258  -0.035256
     7  H    0.561729  -0.035257
     8  H   -0.035257   0.561727
 Mulliken charges:
               1
     1  C   -0.452238
     2  C   -0.452238
     3  H    0.150745
     4  H    0.150747
     5  H    0.150747
     6  H    0.150747
     7  H    0.150747
     8  H    0.150745
 Sum of Mulliken charges =   0.00000
 Mulliken charges with hydrogens summed into heavy atoms:
               1
     1  C    0.000000
     2  C    0.000000
 Electronic spatial extent (au):  <R**2>=            127.7769
 Charge=              0.0000 electrons
 Dipole moment (field-independent basis, Debye):
    X=              0.0000    Y=              0.0000    Z=              0.0000  Tot=              0.0000
 Quadrupole moment (field-independent basis, Debye-Ang):
   XX=            -14.8559   YY=            -14.8559   ZZ=            -14.2397
   XY=              0.0000   XZ=              0.0000   YZ=              0.0000
 Traceless Quadrupole moment (field-independent basis, Debye-Ang):
   XX=             -0.2054   YY=             -0.2054   ZZ=              0.4108
   XY=              0.0000   XZ=              0.0000   YZ=              0.0000
 Octapole moment (field-independent basis, Debye-Ang**2):
  XXX=              0.0000  YYY=              0.0000  ZZZ=              0.0000  XYY=              0.0000
  XXY=              0.0000  XXZ=              0.0000  XZZ=              0.0000  YZZ=              0.0000
  YYZ=              0.0000  XYZ=              0.0000
 Hexadecapole moment (field-independent basis, Debye-Ang**3):
 XXXX=            -28.6291 YYYY=            -28.6291 ZZZZ=           -116.2438 XXXY=              0.0000
 XXXZ=              1.4543 YYYX=              0.0000 YYYZ=              0.0000 ZZZX=              0.0001
 ZZZY=              0.0000 XXYY=             -9.5431 XXZZ=            -22.6217 YYZZ=            -22.6217
 XXYZ=              0.0000 YYXZ=             -1.4543 ZZXY=              0.0000
 N-N= 3.900467777932D+01 E-N=-2.615705564130D+02  KE= 7.867997132306D+01
 Symmetry AG   KE= 4.061254696770D+01
 Symmetry AU   KE= 3.806742435537D+01
 1\1\GINC-CPU-E-328\SP\RB3LYP\6-31G(d)\C2H6\AM2145\16-Jun-2021\0\\# b3l
 yp/6-31g(d)\\ethane_scan_rigid\\0,1\C,0,0.,0.,-0.91537\C,0,0.,0.,0.915
 37\H,0,1.018496,0.,1.313512\H,0,-0.509246,-0.882045,1.313512\H,0,-0.50
 9249,0.882044,1.313511\H,0,0.509249,-0.882044,-1.313511\H,0,0.509246,0
 .882045,-1.313512\H,0,-1.018496,0.,-1.313512\\Version=ES64L-G09RevD.01
 \State=1-AG\HF=-79.8011214\RMSD=7.938e-10\Dipole=0.,0.,0.\Quadrupole=-
 0.1527167,-0.1526948,0.3054115,-0.0000045,0.0000231,-0.0000033\PG=CI [
 X(C2H6)]\\@


 If your ship doesn't come in, swim out to it!
                          -- Jonathan Winters
 Job cpu time:       0 days  0 hours  1 minutes 45.5 seconds.
 File lengths (MBytes):  RWF=      5 Int=      0 D2E=      0 Chk=      1 Scr=      1
 Normal termination of Gaussian 09 at Wed Jun 16 17:39:56 2021.
