 Entering Gaussian System, Link 0=g03
 Input=C12H28O4TiFreq.gau
 Output=C12H28O4TiFreq.g03
 Initial command:
 /opt//g03/l1.exe /scratch/Gau-10748.inp -scrdir=/scratch/
 Entering Link 1 = /opt//g03/l1.exe PID=     10752.
  
 Copyright (c) 1988,1990,1992,1993,1995,1998,2003,2004,2007, Gaussian, Inc.
                  All Rights Reserved.
  
 This is the Gaussian(R) 03 program.  It is based on the
 the Gaussian(R) 98 system (copyright 1998, Gaussian, Inc.),
 the Gaussian(R) 94 system (copyright 1995, Gaussian, Inc.),
 the Gaussian 92(TM) system (copyright 1992, Gaussian, Inc.),
 the Gaussian 90(TM) system (copyright 1990, Gaussian, Inc.),
 the Gaussian 88(TM) system (copyright 1988, Gaussian, Inc.),
 the Gaussian 86(TM) system (copyright 1986, Carnegie Mellon
 University), and the Gaussian 82(TM) system (copyright 1983,
 Carnegie Mellon University). Gaussian is a federally registered
 trademark of Gaussian, Inc.
  
 This software contains proprietary and confidential information,
 including trade secrets, belonging to Gaussian, Inc.
  
 This software is provided under written license and may be
 used, copied, transmitted, or stored only in accord with that
 written license.
  
 The following legend is applicable only to US Government
 contracts under FAR:
  
                    RESTRICTED RIGHTS LEGEND
  
 Use, reproduction and disclosure by the US Government is
 subject to restrictions as set forth in subparagraphs (a)
 and (c) of the Commercial Computer Software - Restricted
 Rights clause in FAR 52.227-19.
  
 Gaussian, Inc.
 340 Quinnipiac St., Bldg. 40, Wallingford CT 06492
  
  
 ---------------------------------------------------------------
 Warning -- This program may not be used in any manner that
 competes with the business of Gaussian, Inc. or will provide
 assistance to any competitor of Gaussian, Inc.  The licensee
 of this program is prohibited from giving any competitor of
 Gaussian, Inc. access to this program.  By using this program,
 the user acknowledges that Gaussian, Inc. is engaged in the
 business of creating and licensing software in the field of
 computational chemistry and represents and warrants to the
 licensee that it is not a competitor of Gaussian, Inc. and that
 it will not use this program in any manner prohibited above.
 ---------------------------------------------------------------
  

 Cite this work as:
 Gaussian 03, Revision E.01,
 M. J. Frisch, G. W. Trucks, H. B. Schlegel, G. E. Scuseria, 
 M. A. Robb, J. R. Cheeseman, J. A. Montgomery, Jr., T. Vreven, 
 K. N. Kudin, J. C. Burant, J. M. Millam, S. S. Iyengar, J. Tomasi, 
 V. Barone, B. Mennucci, M. Cossi, G. Scalmani, N. Rega, 
 G. A. Petersson, H. Nakatsuji, M. Hada, M. Ehara, K. Toyota, 
 R. Fukuda, J. Hasegawa, M. Ishida, T. Nakajima, Y. Honda, O. Kitao, 
 H. Nakai, M. Klene, X. Li, J. E. Knox, H. P. Hratchian, J. B. Cross, 
 V. Bakken, C. Adamo, J. Jaramillo, R. Gomperts, R. E. Stratmann, 
 O. Yazyev, A. J. Austin, R. Cammi, C. Pomelli, J. W. Ochterski, 
 P. Y. Ayala, K. Morokuma, G. A. Voth, P. Salvador, J. J. Dannenberg, 
 V. G. Zakrzewski, S. Dapprich, A. D. Daniels, M. C. Strain, 
 O. Farkas, D. K. Malick, A. D. Rabuck, K. Raghavachari, 
 J. B. Foresman, J. V. Ortiz, Q. Cui, A. G. Baboul, S. Clifford, 
 J. Cioslowski, B. B. Stefanov, G. Liu, A. Liashenko, P. Piskorz, 
 I. Komaromi, R. L. Martin, D. J. Fox, T. Keith, M. A. Al-Laham, 
 C. Y. Peng, A. Nanayakkara, M. Challacombe, P. M. W. Gill, 
 B. Johnson, W. Chen, M. W. Wong, C. Gonzalez, and J. A. Pople, 
 Gaussian, Inc., Wallingford CT, 2004.
 
 ******************************************
 Gaussian 03:  AM64L-G03RevE.01 11-Sep-2007
                 3-Dec-2011 
 ******************************************
 %NProcShared=8
 Will use up to    8 processors via shared memory.
 %Mem=500MW
 ----------------------------------------------------------------------
 #p uB971/6-311+G(d,p) Opt=(Tight, NewEstmFC, MaxCyc = 200) Freq=(Hinde
 redRotor) GFInput Population=None Integral(Grid=UltraFine) Guess=Mix N
 oSymmetry
 ----------------------------------------------------------------------
 1/6=200,7=10,10=7,14=-1,18=20,26=3,38=1/1,3;
 2/9=110,15=1,17=6,18=5,40=1/2;
 3/5=4,6=6,7=111,11=2,16=1,24=10,25=1,30=1,74=-20,75=5/1,2,3;
 4/7=2,9=2,13=1/1;
 5/5=2,38=5/2;
 7/29=1,30=1/1,2,3,16;
 1/6=200,10=7,14=-1,18=20/3(2);
 2/9=110,15=1/2;
 99/8=20/99;
 2/9=110,15=1/2;
 3/5=4,6=6,7=111,11=2,16=1,25=1,30=1,74=-20,75=5/1,2,3;
 4/5=5,7=2,9=2,16=3/1;
 5/5=2,38=5/2;
 7/30=1/1,2,3,16;
 1/6=200,14=-1,18=20/3(-5);
 2/9=110,15=1/2;
 99/8=20,9=1/99;
 Leave Link    1 at Sat Dec  3 20:07:51 2011, MaxMem=  524288000 cpu:       1.2
 (Enter /opt//g03/l101.exe)
 ----------------------------------
 Title : Titanium Tetraisopropoxide
 ----------------------------------
 Symbolic Z-matrix:
 Charge =  0 Multiplicity = 1
 O                     0.38959   1.26289   0.8793 
 Ti                   -0.88325   0.17833   0.20204 
 O                    -2.11306   1.20646  -0.61812 
 O                    -1.62942  -0.78439   1.52479 
 O                    -0.18547  -0.95079  -1.01521 
 C                    -2.2829   -1.03337   2.75071 
 C                     0.29153  -2.22512  -1.39736 
 C                    -2.93856   1.47742  -1.73372 
 C                     1.02687   2.52197   0.9419 
 C                    -3.79954  -0.92953   2.55959 
 C                    -1.76286  -0.08182   3.83343 
 C                     1.31818   2.8655    2.40602 
 C                     2.29705   2.49872   0.0852 
 C                     1.82259  -2.23678  -1.3455 
 C                    -0.24779  -2.56531  -2.79014 
 C                    -4.39363   1.15057  -1.38356 
 C                    -2.75343   2.93886  -2.15333 
 H                    -2.03311  -2.06573   3.04028 
 H                    -0.09493  -2.9643   -0.67748 
 H                    -2.61663   0.82684  -2.56271 
 H                     0.33577   3.2764    0.53177 
 H                    -4.32384  -1.17148   3.49102 
 H                    -4.13462  -1.62327   1.78242 
 H                    -4.07508   0.08737   2.25788 
 H                    -0.67501  -0.1592    3.92091 
 H                    -2.2097   -0.32301   4.80453 
 H                    -2.01598   0.95507   3.58327 
 H                     0.39265   2.86547   2.98996 
 H                     1.78016   3.85603   2.48629 
 H                     2.00038   2.12551   2.839 
 H                     2.05571   2.2436   -0.95146 
 H                     2.99877   1.75042   0.47007 
 H                     2.78926   3.47788   0.09655 
 H                     2.17385  -1.98019  -0.34129 
 H                     2.23044  -1.50477  -2.05137 
 H                     2.21028  -3.22799  -1.60668 
 H                     0.11597  -1.83785  -3.52422 
 H                    -1.3419   -2.54267  -2.79224 
 H                     0.07947  -3.56501  -3.0973 
 H                    -4.48836   0.10406  -1.07738 
 H                    -5.04626   1.32025  -2.24739 
 H                    -4.73572   1.78461  -0.558 
 H                    -3.35901   3.16616  -3.0379 
 H                    -1.70397   3.13795  -2.39116 
 H                    -3.05797   3.60714  -1.3403 
 
                    Isotopes and Nuclear Properties:
 (Nuclear quadrupole moments (NQMom) in fm**2, nuclear magnetic moments (NMagM)
  in nuclear magnetons)

  Atom         1           2           3           4           5           6           7           8           9          10
 IAtWgt=          16          48          16          16          16          12          12          12          12          12
 AtmWgt=  15.9949146  47.9479467  15.9949146  15.9949146  15.9949146  12.0000000  12.0000000  12.0000000  12.0000000  12.0000000
 NucSpn=           0           0           0           0           0           0           0           0           0           0
 AtZEff=   0.0000000   0.0000000   0.0000000   0.0000000   0.0000000   0.0000000   0.0000000   0.0000000   0.0000000   0.0000000
 NQMom=    0.0000000   0.0000000   0.0000000   0.0000000   0.0000000   0.0000000   0.0000000   0.0000000   0.0000000   0.0000000
 NMagM=    0.0000000   0.0000000   0.0000000   0.0000000   0.0000000   0.0000000   0.0000000   0.0000000   0.0000000   0.0000000

  Atom        11          12          13          14          15          16          17          18          19          20
 IAtWgt=          12          12          12          12          12          12          12           1           1           1
 AtmWgt=  12.0000000  12.0000000  12.0000000  12.0000000  12.0000000  12.0000000  12.0000000   1.0078250   1.0078250   1.0078250
 NucSpn=           0           0           0           0           0           0           0           1           1           1
 AtZEff=   0.0000000   0.0000000   0.0000000   0.0000000   0.0000000   0.0000000   0.0000000   0.0000000   0.0000000   0.0000000
 NQMom=    0.0000000   0.0000000   0.0000000   0.0000000   0.0000000   0.0000000   0.0000000   0.0000000   0.0000000   0.0000000
 NMagM=    0.0000000   0.0000000   0.0000000   0.0000000   0.0000000   0.0000000   0.0000000   2.7928460   2.7928460   2.7928460

  Atom        21          22          23          24          25          26          27          28          29          30
 IAtWgt=           1           1           1           1           1           1           1           1           1           1
 AtmWgt=   1.0078250   1.0078250   1.0078250   1.0078250   1.0078250   1.0078250   1.0078250   1.0078250   1.0078250   1.0078250
 NucSpn=           1           1           1           1           1           1           1           1           1           1
 AtZEff=   0.0000000   0.0000000   0.0000000   0.0000000   0.0000000   0.0000000   0.0000000   0.0000000   0.0000000   0.0000000
 NQMom=    0.0000000   0.0000000   0.0000000   0.0000000   0.0000000   0.0000000   0.0000000   0.0000000   0.0000000   0.0000000
 NMagM=    2.7928460   2.7928460   2.7928460   2.7928460   2.7928460   2.7928460   2.7928460   2.7928460   2.7928460   2.7928460

  Atom        31          32          33          34          35          36          37          38          39          40
 IAtWgt=           1           1           1           1           1           1           1           1           1           1
 AtmWgt=   1.0078250   1.0078250   1.0078250   1.0078250   1.0078250   1.0078250   1.0078250   1.0078250   1.0078250   1.0078250
 NucSpn=           1           1           1           1           1           1           1           1           1           1
 AtZEff=   0.0000000   0.0000000   0.0000000   0.0000000   0.0000000   0.0000000   0.0000000   0.0000000   0.0000000   0.0000000
 NQMom=    0.0000000   0.0000000   0.0000000   0.0000000   0.0000000   0.0000000   0.0000000   0.0000000   0.0000000   0.0000000
 NMagM=    2.7928460   2.7928460   2.7928460   2.7928460   2.7928460   2.7928460   2.7928460   2.7928460   2.7928460   2.7928460

  Atom        41          42          43          44          45
 IAtWgt=           1           1           1           1           1
 AtmWgt=   1.0078250   1.0078250   1.0078250   1.0078250   1.0078250
 NucSpn=           1           1           1           1           1
 AtZEff=   0.0000000   0.0000000   0.0000000   0.0000000   0.0000000
 NQMom=    0.0000000   0.0000000   0.0000000   0.0000000   0.0000000
 NMagM=    2.7928460   2.7928460   2.7928460   2.7928460   2.7928460
 Leave Link  101 at Sat Dec  3 20:07:54 2011, MaxMem=  524288000 cpu:       0.4
 (Enter /opt//g03/l103.exe)

 GradGradGradGradGradGradGradGradGradGradGradGradGradGradGradGradGradGrad
 Berny optimization.
 Initialization pass.
                           ----------------------------
                           !    Initial Parameters    !
                           ! (Angstroms and Degrees)  !
 --------------------------                            --------------------------
 ! Name  Definition              Value          Derivative Info.                !
 --------------------------------------------------------------------------------
 ! R1    R(1,2)                  1.8042         estimate D2E/DX2                !
 ! R2    R(1,9)                  1.4126         estimate D2E/DX2                !
 ! R3    R(2,3)                  1.8006         estimate D2E/DX2                !
 ! R4    R(2,4)                  1.7981         estimate D2E/DX2                !
 ! R5    R(2,5)                  1.801          estimate D2E/DX2                !
 ! R6    R(3,8)                  1.414          estimate D2E/DX2                !
 ! R7    R(4,6)                  1.4113         estimate D2E/DX2                !
 ! R8    R(5,7)                  1.4133         estimate D2E/DX2                !
 ! R9    R(6,10)                 1.5322         estimate D2E/DX2                !
 ! R10   R(6,11)                 1.5324         estimate D2E/DX2                !
 ! R11   R(6,18)                 1.1009         estimate D2E/DX2                !
 ! R12   R(7,14)                 1.532          estimate D2E/DX2                !
 ! R13   R(7,15)                 1.5318         estimate D2E/DX2                !
 ! R14   R(7,19)                 1.1018         estimate D2E/DX2                !
 ! R15   R(8,16)                 1.5319         estimate D2E/DX2                !
 ! R16   R(8,17)                 1.5317         estimate D2E/DX2                !
 ! R17   R(8,20)                 1.1019         estimate D2E/DX2                !
 ! R18   R(9,12)                 1.5318         estimate D2E/DX2                !
 ! R19   R(9,13)                 1.5323         estimate D2E/DX2                !
 ! R20   R(9,21)                 1.1023         estimate D2E/DX2                !
 ! R21   R(10,22)                1.0959         estimate D2E/DX2                !
 ! R22   R(10,23)                1.0943         estimate D2E/DX2                !
 ! R23   R(10,24)                1.0959         estimate D2E/DX2                !
 ! R24   R(11,25)                1.0941         estimate D2E/DX2                !
 ! R25   R(11,26)                1.0958         estimate D2E/DX2                !
 ! R26   R(11,27)                1.0963         estimate D2E/DX2                !
 ! R27   R(12,28)                1.0943         estimate D2E/DX2                !
 ! R28   R(12,29)                1.0959         estimate D2E/DX2                !
 ! R29   R(12,30)                1.0957         estimate D2E/DX2                !
 ! R30   R(13,31)                1.0945         estimate D2E/DX2                !
 ! R31   R(13,32)                1.0957         estimate D2E/DX2                !
 ! R32   R(13,33)                1.096          estimate D2E/DX2                !
 ! R33   R(14,34)                1.0944         estimate D2E/DX2                !
 ! R34   R(14,35)                1.0956         estimate D2E/DX2                !
 ! R35   R(14,36)                1.0959         estimate D2E/DX2                !
 ! R36   R(15,37)                1.0956         estimate D2E/DX2                !
 ! R37   R(15,38)                1.0943         estimate D2E/DX2                !
 ! R38   R(15,39)                1.0958         estimate D2E/DX2                !
 ! R39   R(16,40)                1.0945         estimate D2E/DX2                !
 ! R40   R(16,41)                1.0959         estimate D2E/DX2                !
 ! R41   R(16,42)                1.0957         estimate D2E/DX2                !
 ! R42   R(17,43)                1.0958         estimate D2E/DX2                !
 ! R43   R(17,44)                1.0943         estimate D2E/DX2                !
 ! R44   R(17,45)                1.0956         estimate D2E/DX2                !
 ! A1    A(2,1,9)              150.545          estimate D2E/DX2                !
 ! A2    A(1,2,3)              108.0347         estimate D2E/DX2                !
 ! A3    A(1,2,4)              109.7835         estimate D2E/DX2                !
 ! A4    A(1,2,5)              110.9319         estimate D2E/DX2                !
 ! A5    A(3,2,4)              110.9381         estimate D2E/DX2                !
 ! A6    A(3,2,5)              108.3457         estimate D2E/DX2                !
 ! A7    A(4,2,5)              108.8025         estimate D2E/DX2                !
 ! A8    A(2,3,8)              150.1716         estimate D2E/DX2                !
 ! A9    A(2,4,6)              157.7539         estimate D2E/DX2                !
 ! A10   A(2,5,7)              151.499          estimate D2E/DX2                !
 ! A11   A(4,6,10)             109.7564         estimate D2E/DX2                !
 ! A12   A(4,6,11)             110.3071         estimate D2E/DX2                !
 ! A13   A(4,6,18)             106.7886         estimate D2E/DX2                !
 ! A14   A(10,6,11)            112.4566         estimate D2E/DX2                !
 ! A15   A(10,6,18)            108.7209         estimate D2E/DX2                !
 ! A16   A(11,6,18)            108.6297         estimate D2E/DX2                !
 ! A17   A(5,7,14)             109.573          estimate D2E/DX2                !
 ! A18   A(5,7,15)             109.1029         estimate D2E/DX2                !
 ! A19   A(5,7,19)             108.0508         estimate D2E/DX2                !
 ! A20   A(14,7,15)            112.393          estimate D2E/DX2                !
 ! A21   A(14,7,19)            108.8637         estimate D2E/DX2                !
 ! A22   A(15,7,19)            108.7586         estimate D2E/DX2                !
 ! A23   A(3,8,16)             109.4691         estimate D2E/DX2                !
 ! A24   A(3,8,17)             109.1721         estimate D2E/DX2                !
 ! A25   A(3,8,20)             108.0511         estimate D2E/DX2                !
 ! A26   A(16,8,17)            112.3955         estimate D2E/DX2                !
 ! A27   A(16,8,20)            108.8754         estimate D2E/DX2                !
 ! A28   A(17,8,20)            108.7795         estimate D2E/DX2                !
 ! A29   A(1,9,12)             109.1503         estimate D2E/DX2                !
 ! A30   A(1,9,13)             109.6141         estimate D2E/DX2                !
 ! A31   A(1,9,21)             108.1024         estimate D2E/DX2                !
 ! A32   A(12,9,13)            112.3431         estimate D2E/DX2                !
 ! A33   A(12,9,21)            108.7459         estimate D2E/DX2                !
 ! A34   A(13,9,21)            108.7896         estimate D2E/DX2                !
 ! A35   A(6,10,22)            110.646          estimate D2E/DX2                !
 ! A36   A(6,10,23)            110.409          estimate D2E/DX2                !
 ! A37   A(6,10,24)            110.2493         estimate D2E/DX2                !
 ! A38   A(22,10,23)           108.4906         estimate D2E/DX2                !
 ! A39   A(22,10,24)           108.5759         estimate D2E/DX2                !
 ! A40   A(23,10,24)           108.4051         estimate D2E/DX2                !
 ! A41   A(6,11,25)            110.4877         estimate D2E/DX2                !
 ! A42   A(6,11,26)            110.5534         estimate D2E/DX2                !
 ! A43   A(6,11,27)            110.3493         estimate D2E/DX2                !
 ! A44   A(25,11,26)           108.603          estimate D2E/DX2                !
 ! A45   A(25,11,27)           108.3436         estimate D2E/DX2                !
 ! A46   A(26,11,27)           108.4359         estimate D2E/DX2                !
 ! A47   A(9,12,28)            110.4365         estimate D2E/DX2                !
 ! A48   A(9,12,29)            110.6629         estimate D2E/DX2                !
 ! A49   A(9,12,30)            110.1608         estimate D2E/DX2                !
 ! A50   A(28,12,29)           108.5095         estimate D2E/DX2                !
 ! A51   A(28,12,30)           108.4035         estimate D2E/DX2                !
 ! A52   A(29,12,30)           108.6039         estimate D2E/DX2                !
 ! A53   A(9,13,31)            110.5057         estimate D2E/DX2                !
 ! A54   A(9,13,32)            110.174          estimate D2E/DX2                !
 ! A55   A(9,13,33)            110.6675         estimate D2E/DX2                !
 ! A56   A(31,13,32)           108.344          estimate D2E/DX2                !
 ! A57   A(31,13,33)           108.4864         estimate D2E/DX2                !
 ! A58   A(32,13,33)           108.5965         estimate D2E/DX2                !
 ! A59   A(7,14,34)            110.4906         estimate D2E/DX2                !
 ! A60   A(7,14,35)            110.1897         estimate D2E/DX2                !
 ! A61   A(7,14,36)            110.632          estimate D2E/DX2                !
 ! A62   A(34,14,35)           108.3636         estimate D2E/DX2                !
 ! A63   A(34,14,36)           108.4939         estimate D2E/DX2                !
 ! A64   A(35,14,36)           108.6058         estimate D2E/DX2                !
 ! A65   A(7,15,37)            110.1726         estimate D2E/DX2                !
 ! A66   A(7,15,38)            110.4357         estimate D2E/DX2                !
 ! A67   A(7,15,39)            110.629          estimate D2E/DX2                !
 ! A68   A(37,15,38)           108.4766         estimate D2E/DX2                !
 ! A69   A(37,15,39)           108.5884         estimate D2E/DX2                !
 ! A70   A(38,15,39)           108.4763         estimate D2E/DX2                !
 ! A71   A(8,16,40)            110.4976         estimate D2E/DX2                !
 ! A72   A(8,16,41)            110.6377         estimate D2E/DX2                !
 ! A73   A(8,16,42)            110.2008         estimate D2E/DX2                !
 ! A74   A(40,16,41)           108.4827         estimate D2E/DX2                !
 ! A75   A(40,16,42)           108.3906         estimate D2E/DX2                !
 ! A76   A(41,16,42)           108.5653         estimate D2E/DX2                !
 ! A77   A(8,17,43)            110.6248         estimate D2E/DX2                !
 ! A78   A(8,17,44)            110.4278         estimate D2E/DX2                !
 ! A79   A(8,17,45)            110.1873         estimate D2E/DX2                !
 ! A80   A(43,17,44)           108.4691         estimate D2E/DX2                !
 ! A81   A(43,17,45)           108.5956         estimate D2E/DX2                !
 ! A82   A(44,17,45)           108.4739         estimate D2E/DX2                !
 ! D1    D(9,1,2,3)            -15.6688         estimate D2E/DX2                !
 ! D2    D(9,1,2,4)           -136.7672         estimate D2E/DX2                !
 ! D3    D(9,1,2,5)            102.9473         estimate D2E/DX2                !
 ! D4    D(2,1,9,12)           137.4332         estimate D2E/DX2                !
 ! D5    D(2,1,9,13)           -99.1338         estimate D2E/DX2                !
 ! D6    D(2,1,9,21)            19.3059         estimate D2E/DX2                !
 ! D7    D(1,2,3,8)            133.2817         estimate D2E/DX2                !
 ! D8    D(4,2,3,8)           -106.3404         estimate D2E/DX2                !
 ! D9    D(5,2,3,8)             13.0299         estimate D2E/DX2                !
 ! D10   D(1,2,4,6)             54.5469         estimate D2E/DX2                !
 ! D11   D(3,2,4,6)            -64.7872         estimate D2E/DX2                !
 ! D12   D(5,2,4,6)            176.1167         estimate D2E/DX2                !
 ! D13   D(1,2,5,7)            101.8408         estimate D2E/DX2                !
 ! D14   D(3,2,5,7)           -139.7311         estimate D2E/DX2                !
 ! D15   D(4,2,5,7)            -19.0259         estimate D2E/DX2                !
 ! D16   D(2,3,8,16)           106.56           estimate D2E/DX2                !
 ! D17   D(2,3,8,17)          -130.0218         estimate D2E/DX2                !
 ! D18   D(2,3,8,20)           -11.8714         estimate D2E/DX2                !
 ! D19   D(2,4,6,10)            85.1472         estimate D2E/DX2                !
 ! D20   D(2,4,6,11)           -39.3024         estimate D2E/DX2                !
 ! D21   D(2,4,6,18)          -157.1701         estimate D2E/DX2                !
 ! D22   D(2,5,7,14)           -99.5634         estimate D2E/DX2                !
 ! D23   D(2,5,7,15)           136.9992         estimate D2E/DX2                !
 ! D24   D(2,5,7,19)            18.9122         estimate D2E/DX2                !
 ! D25   D(4,6,10,22)          177.0629         estimate D2E/DX2                !
 ! D26   D(4,6,10,23)           56.9431         estimate D2E/DX2                !
 ! D27   D(4,6,10,24)          -62.8147         estimate D2E/DX2                !
 ! D28   D(11,6,10,22)         -59.7437         estimate D2E/DX2                !
 ! D29   D(11,6,10,23)        -179.8635         estimate D2E/DX2                !
 ! D30   D(11,6,10,24)          60.3787         estimate D2E/DX2                !
 ! D31   D(18,6,10,22)          60.5905         estimate D2E/DX2                !
 ! D32   D(18,6,10,23)         -59.5293         estimate D2E/DX2                !
 ! D33   D(18,6,10,24)        -179.2871         estimate D2E/DX2                !
 ! D34   D(4,6,11,25)          -55.3167         estimate D2E/DX2                !
 ! D35   D(4,6,11,26)         -175.5682         estimate D2E/DX2                !
 ! D36   D(4,6,11,27)           64.4788         estimate D2E/DX2                !
 ! D37   D(10,6,11,25)        -178.2014         estimate D2E/DX2                !
 ! D38   D(10,6,11,26)          61.5471         estimate D2E/DX2                !
 ! D39   D(10,6,11,27)         -58.4058         estimate D2E/DX2                !
 ! D40   D(18,6,11,25)          61.4118         estimate D2E/DX2                !
 ! D41   D(18,6,11,26)         -58.8397         estimate D2E/DX2                !
 ! D42   D(18,6,11,27)        -178.7926         estimate D2E/DX2                !
 ! D43   D(5,7,14,34)           57.9423         estimate D2E/DX2                !
 ! D44   D(5,7,14,35)          -61.7776         estimate D2E/DX2                !
 ! D45   D(5,7,14,36)          178.1104         estimate D2E/DX2                !
 ! D46   D(15,7,14,34)         179.4197         estimate D2E/DX2                !
 ! D47   D(15,7,14,35)          59.6998         estimate D2E/DX2                !
 ! D48   D(15,7,14,36)         -60.4122         estimate D2E/DX2                !
 ! D49   D(19,7,14,34)         -60.0278         estimate D2E/DX2                !
 ! D50   D(19,7,14,35)        -179.7477         estimate D2E/DX2                !
 ! D51   D(19,7,14,36)          60.1402         estimate D2E/DX2                !
 ! D52   D(5,7,15,37)           61.8608         estimate D2E/DX2                !
 ! D53   D(5,7,15,38)          -57.9537         estimate D2E/DX2                !
 ! D54   D(5,7,15,39)         -178.0619         estimate D2E/DX2                !
 ! D55   D(14,7,15,37)         -59.8847         estimate D2E/DX2                !
 ! D56   D(14,7,15,38)        -179.6992         estimate D2E/DX2                !
 ! D57   D(14,7,15,39)          60.1926         estimate D2E/DX2                !
 ! D58   D(19,7,15,37)         179.5023         estimate D2E/DX2                !
 ! D59   D(19,7,15,38)          59.6878         estimate D2E/DX2                !
 ! D60   D(19,7,15,39)         -60.4204         estimate D2E/DX2                !
 ! D61   D(3,8,16,40)          -57.837          estimate D2E/DX2                !
 ! D62   D(3,8,16,41)         -177.9993         estimate D2E/DX2                !
 ! D63   D(3,8,16,42)           61.9282         estimate D2E/DX2                !
 ! D64   D(17,8,16,40)        -179.3312         estimate D2E/DX2                !
 ! D65   D(17,8,16,41)          60.5064         estimate D2E/DX2                !
 ! D66   D(17,8,16,42)         -59.566          estimate D2E/DX2                !
 ! D67   D(20,8,16,40)          60.0805         estimate D2E/DX2                !
 ! D68   D(20,8,16,41)         -60.0819         estimate D2E/DX2                !
 ! D69   D(20,8,16,42)         179.8457         estimate D2E/DX2                !
 ! D70   D(3,8,17,43)          178.1596         estimate D2E/DX2                !
 ! D71   D(3,8,17,44)           58.0682         estimate D2E/DX2                !
 ! D72   D(3,8,17,45)          -61.7472         estimate D2E/DX2                !
 ! D73   D(16,8,17,43)         -60.1768         estimate D2E/DX2                !
 ! D74   D(16,8,17,44)         179.7318         estimate D2E/DX2                !
 ! D75   D(16,8,17,45)          59.9164         estimate D2E/DX2                !
 ! D76   D(20,8,17,43)          60.4668         estimate D2E/DX2                !
 ! D77   D(20,8,17,44)         -59.6246         estimate D2E/DX2                !
 ! D78   D(20,8,17,45)        -179.44           estimate D2E/DX2                !
 ! D79   D(1,9,12,28)          -57.7408         estimate D2E/DX2                !
 ! D80   D(1,9,12,29)         -177.9132         estimate D2E/DX2                !
 ! D81   D(1,9,12,30)           61.9759         estimate D2E/DX2                !
 ! D82   D(13,9,12,28)        -179.5383         estimate D2E/DX2                !
 ! D83   D(13,9,12,29)          60.2893         estimate D2E/DX2                !
 ! D84   D(13,9,12,30)         -59.8216         estimate D2E/DX2                !
 ! D85   D(21,9,12,28)          59.9821         estimate D2E/DX2                !
 ! D86   D(21,9,12,29)         -60.1903         estimate D2E/DX2                !
 ! D87   D(21,9,12,30)         179.6988         estimate D2E/DX2                !
 ! D88   D(1,9,13,31)           58.0566         estimate D2E/DX2                !
 ! D89   D(1,9,13,32)          -61.6385         estimate D2E/DX2                !
 ! D90   D(1,9,13,33)          178.2483         estimate D2E/DX2                !
 ! D91   D(12,9,13,31)         179.5896         estimate D2E/DX2                !
 ! D92   D(12,9,13,32)          59.8944         estimate D2E/DX2                !
 ! D93   D(12,9,13,33)         -60.2187         estimate D2E/DX2                !
 ! D94   D(21,9,13,31)         -59.956          estimate D2E/DX2                !
 ! D95   D(21,9,13,32)        -179.6512         estimate D2E/DX2                !
 ! D96   D(21,9,13,33)          60.2357         estimate D2E/DX2                !
 --------------------------------------------------------------------------------
 Trust Radius=3.00D-01 FncErr=1.00D-07 GrdErr=1.00D-06
 Number of steps in this run= 200 maximum allowed number of steps= 270.
 GradGradGradGradGradGradGradGradGradGradGradGradGradGradGradGradGradGrad

 Leave Link  103 at Sat Dec  3 20:07:57 2011, MaxMem=  524288000 cpu:       0.2
 (Enter /opt//g03/l202.exe)
                          Input orientation:                          
 ---------------------------------------------------------------------
 Center     Atomic     Atomic              Coordinates (Angstroms)
 Number     Number      Type              X           Y           Z
 ---------------------------------------------------------------------
    1          8             0        0.389590    1.262890    0.879300
    2         22             0       -0.883250    0.178330    0.202040
    3          8             0       -2.113060    1.206460   -0.618120
    4          8             0       -1.629420   -0.784390    1.524790
    5          8             0       -0.185470   -0.950790   -1.015210
    6          6             0       -2.282900   -1.033370    2.750710
    7          6             0        0.291530   -2.225120   -1.397360
    8          6             0       -2.938560    1.477420   -1.733720
    9          6             0        1.026870    2.521970    0.941900
   10          6             0       -3.799540   -0.929530    2.559590
   11          6             0       -1.762860   -0.081820    3.833430
   12          6             0        1.318180    2.865500    2.406020
   13          6             0        2.297050    2.498720    0.085200
   14          6             0        1.822590   -2.236780   -1.345500
   15          6             0       -0.247790   -2.565310   -2.790140
   16          6             0       -4.393630    1.150570   -1.383560
   17          6             0       -2.753430    2.938860   -2.153330
   18          1             0       -2.033110   -2.065730    3.040280
   19          1             0       -0.094930   -2.964300   -0.677480
   20          1             0       -2.616630    0.826840   -2.562710
   21          1             0        0.335770    3.276400    0.531770
   22          1             0       -4.323840   -1.171480    3.491020
   23          1             0       -4.134620   -1.623270    1.782420
   24          1             0       -4.075080    0.087370    2.257880
   25          1             0       -0.675010   -0.159200    3.920910
   26          1             0       -2.209700   -0.323010    4.804530
   27          1             0       -2.015980    0.955070    3.583270
   28          1             0        0.392650    2.865470    2.989960
   29          1             0        1.780160    3.856030    2.486290
   30          1             0        2.000380    2.125510    2.839000
   31          1             0        2.055710    2.243600   -0.951460
   32          1             0        2.998770    1.750420    0.470070
   33          1             0        2.789260    3.477880    0.096550
   34          1             0        2.173850   -1.980190   -0.341290
   35          1             0        2.230440   -1.504770   -2.051370
   36          1             0        2.210280   -3.227990   -1.606680
   37          1             0        0.115970   -1.837850   -3.524220
   38          1             0       -1.341900   -2.542670   -2.792240
   39          1             0        0.079470   -3.565010   -3.097300
   40          1             0       -4.488360    0.104060   -1.077380
   41          1             0       -5.046260    1.320250   -2.247390
   42          1             0       -4.735720    1.784610   -0.558000
   43          1             0       -3.359010    3.166160   -3.037900
   44          1             0       -1.703970    3.137950   -2.391160
   45          1             0       -3.057970    3.607140   -1.340300
 ---------------------------------------------------------------------
                    Distance matrix (angstroms):
                    1          2          3          4          5
     1  O    0.000000
     2  Ti   1.804182   0.000000
     3  O    2.916969   1.800596   0.000000
     4  O    2.946933   1.798129   2.964701   0.000000
     5  O    2.969889   1.800974   2.920105   2.926479   0.000000
     6  C    3.989635   3.150072   4.049037   1.411349   4.311402
     7  C    4.166415   3.116851   4.262043   3.782157   1.413324
     8  C    4.236801   3.107909   1.414013   4.177023   3.740584
     9  C    1.412560   3.112652   3.744782   4.281081   4.166547
    10  C    5.017857   3.910261   4.183839   2.408588   5.083419
    11  C    3.894633   3.745449   4.647430   2.416864   5.172289
    12  C    2.400315   4.113965   4.865310   4.773532   5.341334
    13  C    2.407545   3.938549   4.649050   5.316803   4.390094
    14  C    4.387586   3.943248   5.279614   4.718514   2.407315
    15  C    5.340989   4.109077   4.735309   4.868182   2.400195
    16  C    5.292669   3.972675   2.406246   4.454596   4.718051
    17  C    4.678065   4.082385   2.401698   5.352995   4.797824
    18  H    4.649626   3.796523   4.908921   2.025218   4.593894
    19  H    4.530724   3.357250   4.633747   3.457840   2.043644
    20  H    4.590744   3.327013   2.044291   4.503144   3.386040
    21  H    2.043990   3.345560   3.406416   4.619316   4.531443
    22  H    5.913008   4.947427   5.237096   3.357946   6.122166
    23  H    5.441877   4.039155   4.225715   2.654453   4.886179
    24  H    4.818258   3.797701   3.656947   2.697895   5.188445
    25  H    3.522372   3.739958   4.953363   2.653894   5.023101
    26  H    4.967778   4.815986   5.635047   3.362483   6.193625
    27  H    3.632213   3.649537   4.210024   2.722589   5.303686
    28  H    2.650124   4.076903   4.695651   4.422326   5.562324
    29  H    3.352682   5.083014   5.640456   5.838083   6.263363
    30  H    2.679400   4.365821   5.451304   4.834265   5.394117
    31  H    2.662598   3.772716   4.308761   5.374079   3.902702
    32  H    2.685698   4.196831   5.254603   5.381249   4.431927
    33  H    3.358168   4.938166   5.450032   6.303297   5.449601
    34  H    3.897562   3.781571   5.348735   4.401938   2.660869
    35  H    4.431422   4.195920   5.317045   5.310969   2.686474
    36  H    5.446376   4.944129   6.271592   5.524544   3.357841
    37  H    5.392629   4.352980   4.762543   5.445059   2.678222
    38  H    5.564221   4.071844   4.401984   4.670221   2.651273
    39  H    6.262439   5.081837   5.806931   5.658257   3.352527
    40  H    5.381996   3.826127   2.658619   3.966632   4.430738
    41  H    6.271200   4.963299   3.357251   5.507599   5.504831
    42  H    5.348535   4.242561   2.686302   4.537276   5.328811
    43  H    5.746207   5.055069   3.353826   6.278253   5.577805
    44  H    4.312163   4.019654   2.653616   5.543011   4.573497
    45  H    4.723114   4.343381   2.679116   5.434614   5.397376
                    6          7          8          9         10
     6  C    0.000000
     7  C    5.025380   0.000000
     8  C    5.181126   4.924979   0.000000
     9  C    5.183321   5.343007   4.896393   0.000000
    10  C    1.532157   5.837196   4.996719   6.150122   0.000000
    11  C    1.532374   6.014600   5.899717   4.787824   2.547419
    12  C    5.318625   6.436934   6.097872   1.531836   6.373139
    13  C    6.368402   5.341794   5.635879   1.532264   7.419159
    14  C    5.923021   1.531982   6.050995   5.339576   6.969001
    15  C    6.098322   1.531807   4.969903   6.436870   6.626486
    16  C    5.130006   5.774617   1.531885   6.055603   4.497576
    17  C    6.328477   6.042347   1.531716   4.903561   6.186308
    18  H    1.100915   5.012186   6.013720   5.900311   2.154597
    19  H    4.502021   1.101801   5.378731   5.829235   5.323819
    20  H    5.639520   4.373774   1.101870   5.332059   5.542749
    21  H    5.509559   5.830113   4.369212   1.102266   6.237202
    22  H    2.175447   6.805002   6.019434   6.983529   1.095898
    23  H    2.171275   5.483067   4.838190   6.673115   1.094325
    24  H    2.170449   6.146192   4.376847   5.804220   1.095918
    25  H    2.172292   5.786728   6.306903   4.354259   3.494179
    26  H    2.174430   6.952526   6.820667   5.786986   2.816951
    27  H    2.172164   6.343886   5.421659   4.323303   2.789395
    28  H    4.734634   6.721079   5.944476   2.171354   5.671129
    29  H    6.362752   7.367438   6.762587   2.175386   7.351191
    30  H    5.322857   6.308320   6.761872   2.168845   6.561281
    31  H    6.577852   4.824999   5.112895   2.172743   7.528624
    32  H    6.391154   5.159589   6.339015   2.169401   7.600345
    33  H    7.288535   6.402705   6.337164   2.175867   8.300850
    34  H    5.506319   2.172189   6.326979   4.819915   6.723123
    35  H    6.606998   2.169333   5.976029   5.159737   7.612655
    36  H    6.632637   2.175124   6.976215   6.399825   7.665420
    37  H    6.765834   2.168947   4.850470   6.307456   7.291708
    38  H    5.821320   2.171318   4.453191   6.723500   6.106087
    39  H    6.796265   2.174873   6.032740   7.366412   7.347985
    40  H    4.562025   5.326802   2.172275   6.351499   3.843219
    41  H    6.177110   6.464070   2.175077   6.964094   5.451869
    42  H    4.990481   6.485037   2.169439   6.000070   4.238202
    43  H    7.232017   6.714441   2.174743   5.957326   6.949866
    44  H    6.646345   5.807941   2.171129   4.352724   6.741345
    45  H    6.234696   6.725895   2.169042   4.803327   6.028303
                   11         12         13         14         15
    11  C    0.000000
    12  C    4.496332   0.000000
    13  C    6.098466   2.545372   0.000000
    14  C    6.657373   6.353077   4.969605   0.000000
    15  C    7.234282   7.677632   6.355170   2.545857   0.000000
    16  C    5.971325   7.065881   6.981401   7.079335   5.742318
    17  C    6.778424   6.113188   5.541849   6.955559   6.081089
    18  H    2.153606   5.995870   6.951042   5.842153   6.118067
    19  H    5.607048   6.744733   6.012307   2.156947   2.155433
    20  H    6.516532   6.657863   5.826737   5.529380   4.143647
    21  H    5.155856   2.155639   2.156578   6.010818   6.745458
    22  H    2.804144   7.021882   8.300974   7.893376   7.616424
    23  H    3.493988   7.090202   7.825454   6.756377   6.074800
    24  H    2.803096   6.068542   7.151167   7.291676   6.867850
    25  H    1.094101   3.926386   5.532662   6.187844   7.142134
    26  H    1.095844   5.325916   7.109503   7.598996   8.158187
    27  H    1.096262   4.018990   5.763816   7.015362   7.492658
    28  H    3.747557   1.094345   3.492689   6.846451   7.956952
    29  H    5.465752   1.095910   2.806189   7.197691   8.554934
    30  H    4.474726   1.095652   2.794765   6.047415   7.664547
    31  H    6.548605   3.493334   1.094530   4.503712   5.640255
    32  H    6.110844   2.795655   1.095668   4.536238   6.308300
    33  H    6.881681   2.805840   1.095972   5.972545   7.353693
    34  H    6.043987   5.635654   4.500856   1.094376   3.493361
    35  H    7.252731   6.308709   4.538425   1.095643   2.795022
    36  H    7.434986   7.350389   5.972034   1.095909   2.807460
    37  H    7.794142   7.663847   6.049038   2.796161   1.095624
    38  H    7.080430   7.959035   6.851075   3.492939   1.094346
    39  H    7.972566   8.554086   7.198249   2.805613   1.095831
    40  H    5.619516   7.312697   7.288880   6.736432   5.295424
    41  H    7.051446   8.034184   7.794483   7.787616   6.198183
    42  H    5.621932   6.826671   7.098134   7.733251   6.636699
    43  H    7.766096   7.183507   6.495402   7.674956   6.526165
    44  H    7.008274   5.676315   4.748593   6.512891   5.899730
    45  H    6.484845   5.808238   5.651273   7.613888   6.935293
                   16         17         18         19         20
    16  C    0.000000
    17  C    2.545738   0.000000
    18  H    5.957097   7.248335   0.000000
    19  H    5.992456   6.640260   4.287856   0.000000
    20  H    2.157064   2.155675   6.332531   4.928063   0.000000
    21  H    5.527646   4.106927   6.359447   6.371352   4.928774
    22  H    5.399844   7.156799   2.500059   6.202764   6.599659
    23  H    4.217191   6.181492   2.488840   4.916153   5.214162
    24  H    3.806830   5.416320   3.068816   5.811250   5.090381
    25  H    6.609163   7.128408   2.500960   5.417589   6.839553
    26  H    6.725581   7.703717   2.486129   6.442135   7.467528
    27  H    5.510067   6.114559   3.069261   6.099663   6.176592
    28  H    6.706492   6.029647   5.495778   6.904641   6.636560
    29  H    7.772447   6.551390   7.065067   7.748697   7.348480
    30  H    7.724240   6.941441   5.820313   6.531625   7.223697
    31  H    6.555563   5.005567   7.157008   5.641147   5.141410
    32  H    7.644825   6.432917   6.818269   5.754688   6.448525
    33  H    7.694219   6.006156   7.915328   7.100659   6.582046
    34  H    7.349815   7.194347   5.398226   2.495768   5.980203
    35  H    7.167643   6.677964   6.664641   3.070040   5.402959
    36  H    7.926739   7.935193   6.399332   2.499388   6.376104
    37  H    5.818038   5.738445   6.911088   3.068761   3.936010
    38  H    4.993742   5.696297   5.892668   2.490967   3.609878
    39  H    6.721772   7.156586   6.661886   2.499359   5.181032
    40  H    1.094488   3.493385   5.262259   5.373731   2.496395
    41  H    1.095865   2.808169   6.964437   6.733324   2.499196
    42  H    1.095711   2.794073   5.922570   6.641036   3.070298
    43  H    2.805331   1.095836   8.128650   7.335417   2.499870
    44  H    3.492736   1.094334   7.529088   6.539355   2.490704
    45  H    2.796533   1.095610   7.240254   7.238975   3.069061
                   21         22         23         24         25
    21  H    0.000000
    22  H    7.088918   0.000000
    23  H    6.749465   1.777423   0.000000
    24  H    5.710076   1.779668   1.776484   0.000000
    25  H    4.930648   3.810968   4.322678   3.793012   0.000000
    26  H    6.139352   2.629600   3.811711   3.183313   1.778452
    27  H    4.497883   3.139577   3.792036   2.597971   1.775894
    28  H    2.492949   6.228427   6.488691   5.311722   3.339939
    29  H    2.498476   7.971459   8.093379   6.966980   4.920169
    30  H    3.069004   7.161776   7.266907   6.434511   3.680780
    31  H    2.494963   8.490999   7.794034   7.248157   6.080318
    32  H    3.069852   8.443000   7.999331   7.483405   5.389954
    33  H    2.499925   9.150692   8.763789   7.955254   6.313101
    34  H    5.636711   7.586869   6.665908   7.076695   5.440437
    35  H    5.755169   8.589980   7.431418   7.801547   6.776454
    36  H    7.098862   8.538765   7.370134   8.089016   6.949577
    37  H    6.531073   8.328839   6.802499   7.396219   7.672905
    38  H    6.908342   7.088828   5.438023   6.315940   7.154862
    39  H    7.748595   8.277928   6.733541   7.699228   7.837350
    40  H    5.993775   4.745982   3.359651   3.360809   6.292364
    41  H    6.365257   6.297615   5.072945   4.770811   7.703540
    42  H    5.397504   5.030177   4.177623   3.353543   6.350464
    43  H    5.138686   7.897646   6.839276   6.167414   8.166205
    44  H    3.566963   7.748222   6.782038   6.044979   7.195289
    45  H    3.889924   6.912256   6.186093   5.135192   6.895226
                   26         27         28         29         30
    26  H    0.000000
    27  H    1.778340   0.000000
    28  H    4.497921   3.130997   0.000000
    29  H    6.225560   4.902001   1.777660   0.000000
    30  H    5.251984   4.249119   1.776267   1.779775   0.000000
    31  H    7.610035   6.229185   4.322879   3.807096   3.792703
    32  H    7.086241   5.955864   3.792762   3.159707   2.597942
    33  H    7.848659   6.450746   3.806653   2.621476   3.157890
    34  H    6.959973   6.447682   6.144129   6.497050   5.196259
    35  H    8.253167   7.472086   6.920367   7.037847   6.094881
    36  H    8.311362   7.892708   7.846218   8.192725   6.961903
    37  H    8.779041   7.928558   8.039422   8.444882   7.729799
    38  H    7.961839   7.303129   8.104966   8.863041   8.041990
    39  H    8.842499   8.333790   8.860242   9.441433   8.444618
    40  H    6.322305   5.344019   6.927691   8.128429   7.843981
    41  H    7.776629   6.581227   7.707093   8.685500   8.727826
    42  H    6.291229   5.023469   6.329017   7.484329   7.551878
    43  H    8.660192   7.108624   7.106368   7.576521   8.021469
    44  H    8.000748   6.368369   5.781567   6.036913   6.488591
    45  H    7.343336   5.688652   5.586412   6.173511   6.726714
                   31         32         33         34         35
    31  H    0.000000
    32  H    1.775764   0.000000
    33  H    1.777602   1.779756   0.000000
    34  H    4.269270   3.905925   5.510078   0.000000
    35  H    3.910321   4.188586   5.454598   1.775838   0.000000
    36  H    5.512849   5.451529   6.942975   1.777511   1.779787
    37  H    5.199992   6.094306   6.965159   3.792911   2.598310
    38  H    6.151472   6.922045   7.852300   4.322504   3.793117
    39  H    6.500008   7.035783   8.194263   3.807056   3.156775
    40  H    6.886098   7.820628   8.107066   7.019328   6.977053
    41  H    7.278048   8.502479   8.458416   8.164319   7.808298
    42  H    6.818285   7.802591   7.740861   7.871648   7.847137
    43  H    5.875674   7.398077   6.908196   8.023040   7.350699
    44  H    4.124050   5.676939   5.147171   6.740535   6.095071
    45  H    5.306615   6.588547   6.022570   7.719341   7.389487
                   36         37         38         39         40
    36  H    0.000000
    37  H    3.161579   0.000000
    38  H    3.806993   1.777062   0.000000
    39  H    2.622190   1.779515   1.777226   0.000000
    40  H    7.500300   5.563982   4.454900   6.197356   0.000000
    41  H    8.588036   6.184861   5.379711   7.131705   1.777440
    42  H    8.629763   6.742371   5.935924   7.632335   1.776286
    43  H    8.599450   6.111637   6.059688   7.558791   3.807299
    44  H    7.514117   5.417988   5.706260   6.972013   4.322422
    45  H    8.633911   6.670181   6.547762   8.023111   3.792982
                   41         42         43         44         45
    41  H    0.000000
    42  H    1.779355   0.000000
    43  H    2.622804   3.154983   0.000000
    44  H    3.807309   3.792560   1.777140   0.000000
    45  H    3.163222   2.597779   1.779588   1.777009   0.000000
 Symmetry turned off by external request.
 Stoichiometry    C12H28O4Ti
 Framework group  C1[X(C12H28O4Ti)]
 Deg. of freedom   129
 Full point group                 C1
 Rotational constants (GHZ):      0.2946676      0.2887053      0.2609833
 Leave Link  202 at Sat Dec  3 20:08:01 2011, MaxMem=  524288000 cpu:       0.4
 (Enter /opt//g03/l301.exe)
 Standard basis: 6-311+G(d,p) (5D, 7F)
 AO basis set in the form of general basis input:
      1 0
 S   6 1.00       0.000000000000
      0.8588500000D+04  0.1895150083D-02
      0.1297230000D+04  0.1438590063D-01
      0.2992960000D+03  0.7073200310D-01
      0.8737710000D+02  0.2400010105D+00
      0.2567890000D+02  0.5947970261D+00
      0.3740040000D+01  0.2808020123D+00
 SP   3 1.00       0.000000000000
      0.4211750000D+02  0.1138890124D+00  0.3651139738D-01
      0.9628370000D+01  0.9208111006D+00  0.2371529830D+00
      0.2853320000D+01 -0.3274470358D-02  0.8197019412D+00
 SP   1 1.00       0.000000000000
      0.9056610000D+00  0.1000000000D+01  0.1000000000D+01
 SP   1 1.00       0.000000000000
      0.2556110000D+00  0.1000000000D+01  0.1000000000D+01
 SP   1 1.00       0.000000000000
      0.8450000000D-01  0.1000000000D+01  0.1000000000D+01
 D   1 1.00       0.000000000000
      0.1292000000D+01  0.1000000000D+01
 ****
      2 0
 S   6 1.00       0.000000000000
      0.2060820000D+06  0.5673151380D-03
      0.3122680000D+05  0.4379672866D-02
      0.7199320000D+04  0.2242029425D-01
      0.2048750000D+04  0.9063426645D-01
      0.6707900000D+03  0.2890357165D+00
      0.2436500000D+03  0.6803470061D+00
 S   1 1.00       0.000000000000
      0.9592500000D+02  0.1000000000D+01
 S   1 1.00       0.000000000000
      0.3981010000D+02  0.1000000000D+01
 S   1 1.00       0.000000000000
      0.1222050000D+02  0.1000000000D+01
 S   1 1.00       0.000000000000
      0.5008820000D+01  0.1000000000D+01
 S   1 1.00       0.000000000000
      0.1285690000D+01  0.1000000000D+01
 S   1 1.00       0.000000000000
      0.5128060000D+00  0.1000000000D+01
 S   1 1.00       0.000000000000
      0.8557600000D-01  0.1000000000D+01
 S   1 1.00       0.000000000000
      0.3330200000D-01  0.1000000000D+01
 P   5 1.00       0.000000000000
      0.1264700000D+04  0.3122017423D-02
      0.3012300000D+03  0.2516579464D-01
      0.9697770000D+02  0.1184178291D+00
      0.3637270000D+02  0.3522190030D+00
      0.1478140000D+02  0.6219379661D+00
 P   1 1.00       0.000000000000
      0.6274650000D+01  0.1000000000D+01
 P   1 1.00       0.000000000000
      0.2478780000D+01  0.1000000000D+01
 P   1 1.00       0.000000000000
      0.1016180000D+01  0.1000000000D+01
 P   1 1.00       0.000000000000
      0.3981620000D+00  0.1000000000D+01
 D   3 1.00       0.000000000000
      0.2599240000D+02  0.5411706153D-01
      0.7086340000D+01  0.2873032281D+00
      0.2348710000D+01  0.7854540223D+00
 D   1 1.00       0.000000000000
      0.8001980000D+00  0.1000000000D+01
 D   1 1.00       0.000000000000
      0.2620490000D+00  0.1000000000D+01
 S   1 1.00       0.000000000000
      0.9991000000D-02  0.1000000000D+01
 P   1 1.00       0.000000000000
      0.1015610000D+00  0.1000000000D+01
 P   1 1.00       0.000000000000
      0.3405400000D-01  0.1000000000D+01
 D   1 1.00       0.000000000000
      0.7200000000D-01  0.1000000000D+01
 F   1 1.00       0.000000000000
      0.6900000000D+00  0.1000000000D+01
 ****
      3 0
 S   6 1.00       0.000000000000
      0.8588500000D+04  0.1895150083D-02
      0.1297230000D+04  0.1438590063D-01
      0.2992960000D+03  0.7073200310D-01
      0.8737710000D+02  0.2400010105D+00
      0.2567890000D+02  0.5947970261D+00
      0.3740040000D+01  0.2808020123D+00
 SP   3 1.00       0.000000000000
      0.4211750000D+02  0.1138890124D+00  0.3651139738D-01
      0.9628370000D+01  0.9208111006D+00  0.2371529830D+00
      0.2853320000D+01 -0.3274470358D-02  0.8197019412D+00
 SP   1 1.00       0.000000000000
      0.9056610000D+00  0.1000000000D+01  0.1000000000D+01
 SP   1 1.00       0.000000000000
      0.2556110000D+00  0.1000000000D+01  0.1000000000D+01
 SP   1 1.00       0.000000000000
      0.8450000000D-01  0.1000000000D+01  0.1000000000D+01
 D   1 1.00       0.000000000000
      0.1292000000D+01  0.1000000000D+01
 ****
      4 0
 S   6 1.00       0.000000000000
      0.8588500000D+04  0.1895150083D-02
      0.1297230000D+04  0.1438590063D-01
      0.2992960000D+03  0.7073200310D-01
      0.8737710000D+02  0.2400010105D+00
      0.2567890000D+02  0.5947970261D+00
      0.3740040000D+01  0.2808020123D+00
 SP   3 1.00       0.000000000000
      0.4211750000D+02  0.1138890124D+00  0.3651139738D-01
      0.9628370000D+01  0.9208111006D+00  0.2371529830D+00
      0.2853320000D+01 -0.3274470358D-02  0.8197019412D+00
 SP   1 1.00       0.000000000000
      0.9056610000D+00  0.1000000000D+01  0.1000000000D+01
 SP   1 1.00       0.000000000000
      0.2556110000D+00  0.1000000000D+01  0.1000000000D+01
 SP   1 1.00       0.000000000000
      0.8450000000D-01  0.1000000000D+01  0.1000000000D+01
 D   1 1.00       0.000000000000
      0.1292000000D+01  0.1000000000D+01
 ****
      5 0
 S   6 1.00       0.000000000000
      0.8588500000D+04  0.1895150083D-02
      0.1297230000D+04  0.1438590063D-01
      0.2992960000D+03  0.7073200310D-01
      0.8737710000D+02  0.2400010105D+00
      0.2567890000D+02  0.5947970261D+00
      0.3740040000D+01  0.2808020123D+00
 SP   3 1.00       0.000000000000
      0.4211750000D+02  0.1138890124D+00  0.3651139738D-01
      0.9628370000D+01  0.9208111006D+00  0.2371529830D+00
      0.2853320000D+01 -0.3274470358D-02  0.8197019412D+00
 SP   1 1.00       0.000000000000
      0.9056610000D+00  0.1000000000D+01  0.1000000000D+01
 SP   1 1.00       0.000000000000
      0.2556110000D+00  0.1000000000D+01  0.1000000000D+01
 SP   1 1.00       0.000000000000
      0.8450000000D-01  0.1000000000D+01  0.1000000000D+01
 D   1 1.00       0.000000000000
      0.1292000000D+01  0.1000000000D+01
 ****
      6 0
 S   6 1.00       0.000000000000
      0.4563240000D+04  0.1966650249D-02
      0.6820240000D+03  0.1523060193D-01
      0.1549730000D+03  0.7612690966D-01
      0.4445530000D+02  0.2608010331D+00
      0.1302900000D+02  0.6164620782D+00
      0.1827730000D+01  0.2210060280D+00
 SP   3 1.00       0.000000000000
      0.2096420000D+02  0.1146600807D+00  0.4024869267D-01
      0.4803310000D+01  0.9199996477D+00  0.2375939567D+00
      0.1459330000D+01 -0.3030682134D-02  0.8158538515D+00
 SP   1 1.00       0.000000000000
      0.4834560000D+00  0.1000000000D+01  0.1000000000D+01
 SP   1 1.00       0.000000000000
      0.1455850000D+00  0.1000000000D+01  0.1000000000D+01
 SP   1 1.00       0.000000000000
      0.4380000000D-01  0.1000000000D+01  0.1000000000D+01
 D   1 1.00       0.000000000000
      0.6260000000D+00  0.1000000000D+01
 ****
      7 0
 S   6 1.00       0.000000000000
      0.4563240000D+04  0.1966650249D-02
      0.6820240000D+03  0.1523060193D-01
      0.1549730000D+03  0.7612690966D-01
      0.4445530000D+02  0.2608010331D+00
      0.1302900000D+02  0.6164620782D+00
      0.1827730000D+01  0.2210060280D+00
 SP   3 1.00       0.000000000000
      0.2096420000D+02  0.1146600807D+00  0.4024869267D-01
      0.4803310000D+01  0.9199996477D+00  0.2375939567D+00
      0.1459330000D+01 -0.3030682134D-02  0.8158538515D+00
 SP   1 1.00       0.000000000000
      0.4834560000D+00  0.1000000000D+01  0.1000000000D+01
 SP   1 1.00       0.000000000000
      0.1455850000D+00  0.1000000000D+01  0.1000000000D+01
 SP   1 1.00       0.000000000000
      0.4380000000D-01  0.1000000000D+01  0.1000000000D+01
 D   1 1.00       0.000000000000
      0.6260000000D+00  0.1000000000D+01
 ****
      8 0
 S   6 1.00       0.000000000000
      0.4563240000D+04  0.1966650249D-02
      0.6820240000D+03  0.1523060193D-01
      0.1549730000D+03  0.7612690966D-01
      0.4445530000D+02  0.2608010331D+00
      0.1302900000D+02  0.6164620782D+00
      0.1827730000D+01  0.2210060280D+00
 SP   3 1.00       0.000000000000
      0.2096420000D+02  0.1146600807D+00  0.4024869267D-01
      0.4803310000D+01  0.9199996477D+00  0.2375939567D+00
      0.1459330000D+01 -0.3030682134D-02  0.8158538515D+00
 SP   1 1.00       0.000000000000
      0.4834560000D+00  0.1000000000D+01  0.1000000000D+01
 SP   1 1.00       0.000000000000
      0.1455850000D+00  0.1000000000D+01  0.1000000000D+01
 SP   1 1.00       0.000000000000
      0.4380000000D-01  0.1000000000D+01  0.1000000000D+01
 D   1 1.00       0.000000000000
      0.6260000000D+00  0.1000000000D+01
 ****
      9 0
 S   6 1.00       0.000000000000
      0.4563240000D+04  0.1966650249D-02
      0.6820240000D+03  0.1523060193D-01
      0.1549730000D+03  0.7612690966D-01
      0.4445530000D+02  0.2608010331D+00
      0.1302900000D+02  0.6164620782D+00
      0.1827730000D+01  0.2210060280D+00
 SP   3 1.00       0.000000000000
      0.2096420000D+02  0.1146600807D+00  0.4024869267D-01
      0.4803310000D+01  0.9199996477D+00  0.2375939567D+00
      0.1459330000D+01 -0.3030682134D-02  0.8158538515D+00
 SP   1 1.00       0.000000000000
      0.4834560000D+00  0.1000000000D+01  0.1000000000D+01
 SP   1 1.00       0.000000000000
      0.1455850000D+00  0.1000000000D+01  0.1000000000D+01
 SP   1 1.00       0.000000000000
      0.4380000000D-01  0.1000000000D+01  0.1000000000D+01
 D   1 1.00       0.000000000000
      0.6260000000D+00  0.1000000000D+01
 ****
     10 0
 S   6 1.00       0.000000000000
      0.4563240000D+04  0.1966650249D-02
      0.6820240000D+03  0.1523060193D-01
      0.1549730000D+03  0.7612690966D-01
      0.4445530000D+02  0.2608010331D+00
      0.1302900000D+02  0.6164620782D+00
      0.1827730000D+01  0.2210060280D+00
 SP   3 1.00       0.000000000000
      0.2096420000D+02  0.1146600807D+00  0.4024869267D-01
      0.4803310000D+01  0.9199996477D+00  0.2375939567D+00
      0.1459330000D+01 -0.3030682134D-02  0.8158538515D+00
 SP   1 1.00       0.000000000000
      0.4834560000D+00  0.1000000000D+01  0.1000000000D+01
 SP   1 1.00       0.000000000000
      0.1455850000D+00  0.1000000000D+01  0.1000000000D+01
 SP   1 1.00       0.000000000000
      0.4380000000D-01  0.1000000000D+01  0.1000000000D+01
 D   1 1.00       0.000000000000
      0.6260000000D+00  0.1000000000D+01
 ****
     11 0
 S   6 1.00       0.000000000000
      0.4563240000D+04  0.1966650249D-02
      0.6820240000D+03  0.1523060193D-01
      0.1549730000D+03  0.7612690966D-01
      0.4445530000D+02  0.2608010331D+00
      0.1302900000D+02  0.6164620782D+00
      0.1827730000D+01  0.2210060280D+00
 SP   3 1.00       0.000000000000
      0.2096420000D+02  0.1146600807D+00  0.4024869267D-01
      0.4803310000D+01  0.9199996477D+00  0.2375939567D+00
      0.1459330000D+01 -0.3030682134D-02  0.8158538515D+00
 SP   1 1.00       0.000000000000
      0.4834560000D+00  0.1000000000D+01  0.1000000000D+01
 SP   1 1.00       0.000000000000
      0.1455850000D+00  0.1000000000D+01  0.1000000000D+01
 SP   1 1.00       0.000000000000
      0.4380000000D-01  0.1000000000D+01  0.1000000000D+01
 D   1 1.00       0.000000000000
      0.6260000000D+00  0.1000000000D+01
 ****
     12 0
 S   6 1.00       0.000000000000
      0.4563240000D+04  0.1966650249D-02
      0.6820240000D+03  0.1523060193D-01
      0.1549730000D+03  0.7612690966D-01
      0.4445530000D+02  0.2608010331D+00
      0.1302900000D+02  0.6164620782D+00
      0.1827730000D+01  0.2210060280D+00
 SP   3 1.00       0.000000000000
      0.2096420000D+02  0.1146600807D+00  0.4024869267D-01
      0.4803310000D+01  0.9199996477D+00  0.2375939567D+00
      0.1459330000D+01 -0.3030682134D-02  0.8158538515D+00
 SP   1 1.00       0.000000000000
      0.4834560000D+00  0.1000000000D+01  0.1000000000D+01
 SP   1 1.00       0.000000000000
      0.1455850000D+00  0.1000000000D+01  0.1000000000D+01
 SP   1 1.00       0.000000000000
      0.4380000000D-01  0.1000000000D+01  0.1000000000D+01
 D   1 1.00       0.000000000000
      0.6260000000D+00  0.1000000000D+01
 ****
     13 0
 S   6 1.00       0.000000000000
      0.4563240000D+04  0.1966650249D-02
      0.6820240000D+03  0.1523060193D-01
      0.1549730000D+03  0.7612690966D-01
      0.4445530000D+02  0.2608010331D+00
      0.1302900000D+02  0.6164620782D+00
      0.1827730000D+01  0.2210060280D+00
 SP   3 1.00       0.000000000000
      0.2096420000D+02  0.1146600807D+00  0.4024869267D-01
      0.4803310000D+01  0.9199996477D+00  0.2375939567D+00
      0.1459330000D+01 -0.3030682134D-02  0.8158538515D+00
 SP   1 1.00       0.000000000000
      0.4834560000D+00  0.1000000000D+01  0.1000000000D+01
 SP   1 1.00       0.000000000000
      0.1455850000D+00  0.1000000000D+01  0.1000000000D+01
 SP   1 1.00       0.000000000000
      0.4380000000D-01  0.1000000000D+01  0.1000000000D+01
 D   1 1.00       0.000000000000
      0.6260000000D+00  0.1000000000D+01
 ****
     14 0
 S   6 1.00       0.000000000000
      0.4563240000D+04  0.1966650249D-02
      0.6820240000D+03  0.1523060193D-01
      0.1549730000D+03  0.7612690966D-01
      0.4445530000D+02  0.2608010331D+00
      0.1302900000D+02  0.6164620782D+00
      0.1827730000D+01  0.2210060280D+00
 SP   3 1.00       0.000000000000
      0.2096420000D+02  0.1146600807D+00  0.4024869267D-01
      0.4803310000D+01  0.9199996477D+00  0.2375939567D+00
      0.1459330000D+01 -0.3030682134D-02  0.8158538515D+00
 SP   1 1.00       0.000000000000
      0.4834560000D+00  0.1000000000D+01  0.1000000000D+01
 SP   1 1.00       0.000000000000
      0.1455850000D+00  0.1000000000D+01  0.1000000000D+01
 SP   1 1.00       0.000000000000
      0.4380000000D-01  0.1000000000D+01  0.1000000000D+01
 D   1 1.00       0.000000000000
      0.6260000000D+00  0.1000000000D+01
 ****
     15 0
 S   6 1.00       0.000000000000
      0.4563240000D+04  0.1966650249D-02
      0.6820240000D+03  0.1523060193D-01
      0.1549730000D+03  0.7612690966D-01
      0.4445530000D+02  0.2608010331D+00
      0.1302900000D+02  0.6164620782D+00
      0.1827730000D+01  0.2210060280D+00
 SP   3 1.00       0.000000000000
      0.2096420000D+02  0.1146600807D+00  0.4024869267D-01
      0.4803310000D+01  0.9199996477D+00  0.2375939567D+00
      0.1459330000D+01 -0.3030682134D-02  0.8158538515D+00
 SP   1 1.00       0.000000000000
      0.4834560000D+00  0.1000000000D+01  0.1000000000D+01
 SP   1 1.00       0.000000000000
      0.1455850000D+00  0.1000000000D+01  0.1000000000D+01
 SP   1 1.00       0.000000000000
      0.4380000000D-01  0.1000000000D+01  0.1000000000D+01
 D   1 1.00       0.000000000000
      0.6260000000D+00  0.1000000000D+01
 ****
     16 0
 S   6 1.00       0.000000000000
      0.4563240000D+04  0.1966650249D-02
      0.6820240000D+03  0.1523060193D-01
      0.1549730000D+03  0.7612690966D-01
      0.4445530000D+02  0.2608010331D+00
      0.1302900000D+02  0.6164620782D+00
      0.1827730000D+01  0.2210060280D+00
 SP   3 1.00       0.000000000000
      0.2096420000D+02  0.1146600807D+00  0.4024869267D-01
      0.4803310000D+01  0.9199996477D+00  0.2375939567D+00
      0.1459330000D+01 -0.3030682134D-02  0.8158538515D+00
 SP   1 1.00       0.000000000000
      0.4834560000D+00  0.1000000000D+01  0.1000000000D+01
 SP   1 1.00       0.000000000000
      0.1455850000D+00  0.1000000000D+01  0.1000000000D+01
 SP   1 1.00       0.000000000000
      0.4380000000D-01  0.1000000000D+01  0.1000000000D+01
 D   1 1.00       0.000000000000
      0.6260000000D+00  0.1000000000D+01
 ****
     17 0
 S   6 1.00       0.000000000000
      0.4563240000D+04  0.1966650249D-02
      0.6820240000D+03  0.1523060193D-01
      0.1549730000D+03  0.7612690966D-01
      0.4445530000D+02  0.2608010331D+00
      0.1302900000D+02  0.6164620782D+00
      0.1827730000D+01  0.2210060280D+00
 SP   3 1.00       0.000000000000
      0.2096420000D+02  0.1146600807D+00  0.4024869267D-01
      0.4803310000D+01  0.9199996477D+00  0.2375939567D+00
      0.1459330000D+01 -0.3030682134D-02  0.8158538515D+00
 SP   1 1.00       0.000000000000
      0.4834560000D+00  0.1000000000D+01  0.1000000000D+01
 SP   1 1.00       0.000000000000
      0.1455850000D+00  0.1000000000D+01  0.1000000000D+01
 SP   1 1.00       0.000000000000
      0.4380000000D-01  0.1000000000D+01  0.1000000000D+01
 D   1 1.00       0.000000000000
      0.6260000000D+00  0.1000000000D+01
 ****
     18 0
 S   3 1.00       0.000000000000
      0.3386500000D+02  0.2549381454D-01
      0.5094790000D+01  0.1903731086D+00
      0.1158790000D+01  0.8521614860D+00
 S   1 1.00       0.000000000000
      0.3258400000D+00  0.1000000000D+01
 S   1 1.00       0.000000000000
      0.1027410000D+00  0.1000000000D+01
 P   1 1.00       0.000000000000
      0.7500000000D+00  0.1000000000D+01
 ****
     19 0
 S   3 1.00       0.000000000000
      0.3386500000D+02  0.2549381454D-01
      0.5094790000D+01  0.1903731086D+00
      0.1158790000D+01  0.8521614860D+00
 S   1 1.00       0.000000000000
      0.3258400000D+00  0.1000000000D+01
 S   1 1.00       0.000000000000
      0.1027410000D+00  0.1000000000D+01
 P   1 1.00       0.000000000000
      0.7500000000D+00  0.1000000000D+01
 ****
     20 0
 S   3 1.00       0.000000000000
      0.3386500000D+02  0.2549381454D-01
      0.5094790000D+01  0.1903731086D+00
      0.1158790000D+01  0.8521614860D+00
 S   1 1.00       0.000000000000
      0.3258400000D+00  0.1000000000D+01
 S   1 1.00       0.000000000000
      0.1027410000D+00  0.1000000000D+01
 P   1 1.00       0.000000000000
      0.7500000000D+00  0.1000000000D+01
 ****
     21 0
 S   3 1.00       0.000000000000
      0.3386500000D+02  0.2549381454D-01
      0.5094790000D+01  0.1903731086D+00
      0.1158790000D+01  0.8521614860D+00
 S   1 1.00       0.000000000000
      0.3258400000D+00  0.1000000000D+01
 S   1 1.00       0.000000000000
      0.1027410000D+00  0.1000000000D+01
 P   1 1.00       0.000000000000
      0.7500000000D+00  0.1000000000D+01
 ****
     22 0
 S   3 1.00       0.000000000000
      0.3386500000D+02  0.2549381454D-01
      0.5094790000D+01  0.1903731086D+00
      0.1158790000D+01  0.8521614860D+00
 S   1 1.00       0.000000000000
      0.3258400000D+00  0.1000000000D+01
 S   1 1.00       0.000000000000
      0.1027410000D+00  0.1000000000D+01
 P   1 1.00       0.000000000000
      0.7500000000D+00  0.1000000000D+01
 ****
     23 0
 S   3 1.00       0.000000000000
      0.3386500000D+02  0.2549381454D-01
      0.5094790000D+01  0.1903731086D+00
      0.1158790000D+01  0.8521614860D+00
 S   1 1.00       0.000000000000
      0.3258400000D+00  0.1000000000D+01
 S   1 1.00       0.000000000000
      0.1027410000D+00  0.1000000000D+01
 P   1 1.00       0.000000000000
      0.7500000000D+00  0.1000000000D+01
 ****
     24 0
 S   3 1.00       0.000000000000
      0.3386500000D+02  0.2549381454D-01
      0.5094790000D+01  0.1903731086D+00
      0.1158790000D+01  0.8521614860D+00
 S   1 1.00       0.000000000000
      0.3258400000D+00  0.1000000000D+01
 S   1 1.00       0.000000000000
      0.1027410000D+00  0.1000000000D+01
 P   1 1.00       0.000000000000
      0.7500000000D+00  0.1000000000D+01
 ****
     25 0
 S   3 1.00       0.000000000000
      0.3386500000D+02  0.2549381454D-01
      0.5094790000D+01  0.1903731086D+00
      0.1158790000D+01  0.8521614860D+00
 S   1 1.00       0.000000000000
      0.3258400000D+00  0.1000000000D+01
 S   1 1.00       0.000000000000
      0.1027410000D+00  0.1000000000D+01
 P   1 1.00       0.000000000000
      0.7500000000D+00  0.1000000000D+01
 ****
     26 0
 S   3 1.00       0.000000000000
      0.3386500000D+02  0.2549381454D-01
      0.5094790000D+01  0.1903731086D+00
      0.1158790000D+01  0.8521614860D+00
 S   1 1.00       0.000000000000
      0.3258400000D+00  0.1000000000D+01
 S   1 1.00       0.000000000000
      0.1027410000D+00  0.1000000000D+01
 P   1 1.00       0.000000000000
      0.7500000000D+00  0.1000000000D+01
 ****
     27 0
 S   3 1.00       0.000000000000
      0.3386500000D+02  0.2549381454D-01
      0.5094790000D+01  0.1903731086D+00
      0.1158790000D+01  0.8521614860D+00
 S   1 1.00       0.000000000000
      0.3258400000D+00  0.1000000000D+01
 S   1 1.00       0.000000000000
      0.1027410000D+00  0.1000000000D+01
 P   1 1.00       0.000000000000
      0.7500000000D+00  0.1000000000D+01
 ****
     28 0
 S   3 1.00       0.000000000000
      0.3386500000D+02  0.2549381454D-01
      0.5094790000D+01  0.1903731086D+00
      0.1158790000D+01  0.8521614860D+00
 S   1 1.00       0.000000000000
      0.3258400000D+00  0.1000000000D+01
 S   1 1.00       0.000000000000
      0.1027410000D+00  0.1000000000D+01
 P   1 1.00       0.000000000000
      0.7500000000D+00  0.1000000000D+01
 ****
     29 0
 S   3 1.00       0.000000000000
      0.3386500000D+02  0.2549381454D-01
      0.5094790000D+01  0.1903731086D+00
      0.1158790000D+01  0.8521614860D+00
 S   1 1.00       0.000000000000
      0.3258400000D+00  0.1000000000D+01
 S   1 1.00       0.000000000000
      0.1027410000D+00  0.1000000000D+01
 P   1 1.00       0.000000000000
      0.7500000000D+00  0.1000000000D+01
 ****
     30 0
 S   3 1.00       0.000000000000
      0.3386500000D+02  0.2549381454D-01
      0.5094790000D+01  0.1903731086D+00
      0.1158790000D+01  0.8521614860D+00
 S   1 1.00       0.000000000000
      0.3258400000D+00  0.1000000000D+01
 S   1 1.00       0.000000000000
      0.1027410000D+00  0.1000000000D+01
 P   1 1.00       0.000000000000
      0.7500000000D+00  0.1000000000D+01
 ****
     31 0
 S   3 1.00       0.000000000000
      0.3386500000D+02  0.2549381454D-01
      0.5094790000D+01  0.1903731086D+00
      0.1158790000D+01  0.8521614860D+00
 S   1 1.00       0.000000000000
      0.3258400000D+00  0.1000000000D+01
 S   1 1.00       0.000000000000
      0.1027410000D+00  0.1000000000D+01
 P   1 1.00       0.000000000000
      0.7500000000D+00  0.1000000000D+01
 ****
     32 0
 S   3 1.00       0.000000000000
      0.3386500000D+02  0.2549381454D-01
      0.5094790000D+01  0.1903731086D+00
      0.1158790000D+01  0.8521614860D+00
 S   1 1.00       0.000000000000
      0.3258400000D+00  0.1000000000D+01
 S   1 1.00       0.000000000000
      0.1027410000D+00  0.1000000000D+01
 P   1 1.00       0.000000000000
      0.7500000000D+00  0.1000000000D+01
 ****
     33 0
 S   3 1.00       0.000000000000
      0.3386500000D+02  0.2549381454D-01
      0.5094790000D+01  0.1903731086D+00
      0.1158790000D+01  0.8521614860D+00
 S   1 1.00       0.000000000000
      0.3258400000D+00  0.1000000000D+01
 S   1 1.00       0.000000000000
      0.1027410000D+00  0.1000000000D+01
 P   1 1.00       0.000000000000
      0.7500000000D+00  0.1000000000D+01
 ****
     34 0
 S   3 1.00       0.000000000000
      0.3386500000D+02  0.2549381454D-01
      0.5094790000D+01  0.1903731086D+00
      0.1158790000D+01  0.8521614860D+00
 S   1 1.00       0.000000000000
      0.3258400000D+00  0.1000000000D+01
 S   1 1.00       0.000000000000
      0.1027410000D+00  0.1000000000D+01
 P   1 1.00       0.000000000000
      0.7500000000D+00  0.1000000000D+01
 ****
     35 0
 S   3 1.00       0.000000000000
      0.3386500000D+02  0.2549381454D-01
      0.5094790000D+01  0.1903731086D+00
      0.1158790000D+01  0.8521614860D+00
 S   1 1.00       0.000000000000
      0.3258400000D+00  0.1000000000D+01
 S   1 1.00       0.000000000000
      0.1027410000D+00  0.1000000000D+01
 P   1 1.00       0.000000000000
      0.7500000000D+00  0.1000000000D+01
 ****
     36 0
 S   3 1.00       0.000000000000
      0.3386500000D+02  0.2549381454D-01
      0.5094790000D+01  0.1903731086D+00
      0.1158790000D+01  0.8521614860D+00
 S   1 1.00       0.000000000000
      0.3258400000D+00  0.1000000000D+01
 S   1 1.00       0.000000000000
      0.1027410000D+00  0.1000000000D+01
 P   1 1.00       0.000000000000
      0.7500000000D+00  0.1000000000D+01
 ****
     37 0
 S   3 1.00       0.000000000000
      0.3386500000D+02  0.2549381454D-01
      0.5094790000D+01  0.1903731086D+00
      0.1158790000D+01  0.8521614860D+00
 S   1 1.00       0.000000000000
      0.3258400000D+00  0.1000000000D+01
 S   1 1.00       0.000000000000
      0.1027410000D+00  0.1000000000D+01
 P   1 1.00       0.000000000000
      0.7500000000D+00  0.1000000000D+01
 ****
     38 0
 S   3 1.00       0.000000000000
      0.3386500000D+02  0.2549381454D-01
      0.5094790000D+01  0.1903731086D+00
      0.1158790000D+01  0.8521614860D+00
 S   1 1.00       0.000000000000
      0.3258400000D+00  0.1000000000D+01
 S   1 1.00       0.000000000000
      0.1027410000D+00  0.1000000000D+01
 P   1 1.00       0.000000000000
      0.7500000000D+00  0.1000000000D+01
 ****
     39 0
 S   3 1.00       0.000000000000
      0.3386500000D+02  0.2549381454D-01
      0.5094790000D+01  0.1903731086D+00
      0.1158790000D+01  0.8521614860D+00
 S   1 1.00       0.000000000000
      0.3258400000D+00  0.1000000000D+01
 S   1 1.00       0.000000000000
      0.1027410000D+00  0.1000000000D+01
 P   1 1.00       0.000000000000
      0.7500000000D+00  0.1000000000D+01
 ****
     40 0
 S   3 1.00       0.000000000000
      0.3386500000D+02  0.2549381454D-01
      0.5094790000D+01  0.1903731086D+00
      0.1158790000D+01  0.8521614860D+00
 S   1 1.00       0.000000000000
      0.3258400000D+00  0.1000000000D+01
 S   1 1.00       0.000000000000
      0.1027410000D+00  0.1000000000D+01
 P   1 1.00       0.000000000000
      0.7500000000D+00  0.1000000000D+01
 ****
     41 0
 S   3 1.00       0.000000000000
      0.3386500000D+02  0.2549381454D-01
      0.5094790000D+01  0.1903731086D+00
      0.1158790000D+01  0.8521614860D+00
 S   1 1.00       0.000000000000
      0.3258400000D+00  0.1000000000D+01
 S   1 1.00       0.000000000000
      0.1027410000D+00  0.1000000000D+01
 P   1 1.00       0.000000000000
      0.7500000000D+00  0.1000000000D+01
 ****
     42 0
 S   3 1.00       0.000000000000
      0.3386500000D+02  0.2549381454D-01
      0.5094790000D+01  0.1903731086D+00
      0.1158790000D+01  0.8521614860D+00
 S   1 1.00       0.000000000000
      0.3258400000D+00  0.1000000000D+01
 S   1 1.00       0.000000000000
      0.1027410000D+00  0.1000000000D+01
 P   1 1.00       0.000000000000
      0.7500000000D+00  0.1000000000D+01
 ****
     43 0
 S   3 1.00       0.000000000000
      0.3386500000D+02  0.2549381454D-01
      0.5094790000D+01  0.1903731086D+00
      0.1158790000D+01  0.8521614860D+00
 S   1 1.00       0.000000000000
      0.3258400000D+00  0.1000000000D+01
 S   1 1.00       0.000000000000
      0.1027410000D+00  0.1000000000D+01
 P   1 1.00       0.000000000000
      0.7500000000D+00  0.1000000000D+01
 ****
     44 0
 S   3 1.00       0.000000000000
      0.3386500000D+02  0.2549381454D-01
      0.5094790000D+01  0.1903731086D+00
      0.1158790000D+01  0.8521614860D+00
 S   1 1.00       0.000000000000
      0.3258400000D+00  0.1000000000D+01
 S   1 1.00       0.000000000000
      0.1027410000D+00  0.1000000000D+01
 P   1 1.00       0.000000000000
      0.7500000000D+00  0.1000000000D+01
 ****
     45 0
 S   3 1.00       0.000000000000
      0.3386500000D+02  0.2549381454D-01
      0.5094790000D+01  0.1903731086D+00
      0.1158790000D+01  0.8521614860D+00
 S   1 1.00       0.000000000000
      0.3258400000D+00  0.1000000000D+01
 S   1 1.00       0.000000000000
      0.1027410000D+00  0.1000000000D+01
 P   1 1.00       0.000000000000
      0.7500000000D+00  0.1000000000D+01
 ****

 Integral buffers will be    131072 words long.
 Raffenetti 2 integral format.
 Two-electron integral symmetry is turned off.
   578 basis functions,   894 primitive gaussians,   601 cartesian basis functions
    77 alpha electrons       77 beta electrons
       nuclear repulsion energy      1691.1058281520 Hartrees.
 IExCor=1614 DFT=T Ex=B97-1+HF Corr=B97-1 ExCW=0 ScaHFX=  0.210000
 ScaDFX=  1.000000  1.000000  1.000000  1.000000
 IRadAn=      5 IRanWt=     -1 IRanGd=            0 ICorTp=0
 NAtoms=   45 NActive=   45 NUniq=   45 SFac= 7.50D-01 NAtFMM=   80 NAOKFM=F Big=F
 Leave Link  301 at Sat Dec  3 20:08:04 2011, MaxMem=  524288000 cpu:       0.2
 (Enter /opt//g03/l302.exe)
 NPDir=0 NMtPBC=     1 NCelOv=     1 NCel=       1 NClECP=     1 NCelD=      1
         NCelK=      1 NCelE2=     1 NClLst=     1 CellRange=     0.0.
 One-electron integrals computed using PRISM.
 NBasis=   578 RedAO= T  NBF=   578
 NBsUse=   578 1.00D-06 NBFU=   578
 Precomputing XC quadrature grid using
 IXCGrd= 2 IRadAn=           5 IRanWt=          -1 IRanGd=           0.
 NRdTot=    3940 NPtTot=     1075042 NUsed=     1102803 NTot=     1102835
 NSgBfM=   586   586   586   586.
 Leave Link  302 at Sat Dec  3 20:08:10 2011, MaxMem=  524288000 cpu:      21.5
 (Enter /opt//g03/l303.exe)
 DipDrv:  MaxL=1.
 Leave Link  303 at Sat Dec  3 20:08:13 2011, MaxMem=  524288000 cpu:       1.0
 (Enter /opt//g03/l401.exe)
 SCF N**3 symmetry information disabled.
 Harris functional with IExCor= 1614 diagonalized for initial guess.
 ExpMin= 9.99D-03 ExpMax= 2.06D+05 ExpMxC= 7.20D+03 IAcc=3 IRadAn=         5 AccDes= 0.00D+00
 HarFok:  IExCor=1614 AccDes= 0.00D+00 IRadAn=         5 IDoV=1
 ScaDFX=  1.000000  1.000000  1.000000  1.000000
 Harris En= -1594.64140885313    
 <S**2> of initial guess= 1.0000
 Leave Link  401 at Sat Dec  3 20:08:33 2011, MaxMem=  524288000 cpu:     133.9
 (Enter /opt//g03/l502.exe)
 UHF open shell SCF:
 Requested convergence on RMS density matrix=1.00D-08 within 128 cycles.
 Requested convergence on MAX density matrix=1.00D-06.
 Requested convergence on             energy=1.00D-06.
 No special actions if energy rises.
 Using DIIS extrapolation, IDIIS=  1040.
 Two-electron integral symmetry not used.
      1102802 words used for storage of precomputed grid.
 IEnd=   2392317 IEndB=   2392317 NGot= 524288000 MDV= 522274126
 LenX= 522274126
 Fock matrices will be formed incrementally for  20 cycles.

 Cycle   1  Pass 1  IDiag  1:
 Symmetry not used in FoFDir.
 MinBra= 0 MaxBra= 3 Meth= 1.
 IRaf=       0 NMat=   1 IRICut=       1 DoRegI=T DoRafI=F ISym2E= 0 JSym2E=0.
 E= -1623.83986275962    
 DIIS: error= 1.05D-01 at cycle   1 NSaved=   1.
 NSaved= 1 IEnMin= 1 EnMin= -1623.83986275962     IErMin= 1 ErrMin= 1.05D-01
 ErrMax= 1.05D-01 EMaxC= 1.00D-01 BMatC= 1.17D+01 BMatP= 1.17D+01
 IDIUse=3 WtCom= 0.00D+00 WtEn= 1.00D+00
 Coeff-Com:  0.100D+01
 Coeff-En:   0.100D+01
 Coeff:      0.100D+01
 Gap=     0.028 Goal=   None    Shift=    0.000
 Gap=     0.027 Goal=   None    Shift=    0.000
 GapD=    0.027 DampG=0.250 DampE=0.125 DampFc=0.1250 IDamp=-1.
 Damping current iteration by 1.25D-01
 RMSDP=7.55D-03 MaxDP=7.38D-01              OVMax= 5.61D-01

 Cycle   2  Pass 1  IDiag  1:
 RMSU=  8.23D-04    CP:  9.59D-01
 E= -1623.74876623321     Delta-E=        0.091096526404 Rises=F Damp=T
 DIIS: error= 9.21D-02 at cycle   2 NSaved=   2.
 NSaved= 2 IEnMin= 1 EnMin= -1623.83986275962     IErMin= 2 ErrMin= 9.21D-02
 ErrMax= 9.21D-02 EMaxC= 1.00D-01 BMatC= 7.09D+00 BMatP= 1.17D+01
 IDIUse=3 WtCom= 7.92D-02 WtEn= 9.21D-01
 Coeff-Com: -0.757D+00 0.176D+01
 Coeff-En:   0.614D+00 0.386D+00
 Coeff:      0.506D+00 0.494D+00
 Gap=     0.000 Goal=   None    Shift=    0.000
 Gap=    -0.003 Goal=   None    Shift=    0.000
 RMSDP=5.69D-03 MaxDP=6.94D-01 DE= 9.11D-02 OVMax= 7.63D-01

 Cycle   3  Pass 1  IDiag  1:
 RMSU=  3.49D-03    CP:  6.52D-01  3.00D+00
 E= -1624.29369252513     Delta-E=       -0.544926291919 Rises=F Damp=F
[...]
 0000881,-0.00000405,0.00003649,-0.00000736,-0.00000426,0.00000215,0.00
 000367,0.00000562,0.00000073,0.00001258,-0.00000475,-0.00001030,-0.000
 00282,0.00000996,-0.00001351,0.00002241,-0.06832865,0.04526333,0.05762
 336,0.00130769,0.00163398,-0.00044434,0.00001314,-0.00001107,-0.000000
 53,-0.00000127,0.00000134,-0.00000802,-0.00589380,-0.00181101,0.001145
 11,-0.00000034,-0.00000724,0.00001151,0.00001125,-0.00004525,0.0000283
 5,0.00000968,-0.00001770,-0.00000744,0.00005438,-0.00000038,-0.0000658
 6,0.00000694,-0.00000835,0.00000332,-0.00000043,-0.00000899,0.00000511
 ,-0.00000508,-0.00001614,-0.00001095,0.00000151,-0.00000067,-0.0000129
 3,0.00000238,0.00000408,0.00000047,0.00000457,-0.00000340,0.00000122,-
 0.00000018,-0.00000077,-0.00000693,0.00000402,-0.00000264,-0.00000204,
 0.00000297,0.00000186,-0.00000220,-0.00000639,0.00000138,-0.00000563,0
 .00000459,0.00000257,-0.00000033,0.00000333,-0.00000056,-0.00000035,0.
 00003001,-0.00000085,-0.00001737,-0.00001863,-0.00002801,0.00000616,-0
 .00001504,0.00001088,-0.00001873,-0.00011524,-0.00142620,-0.00231533,0
 .00616316,-0.01243423,-0.01417368,0.07527385,0.00000803,0.00001445,0.0
 0007076,0.00006598,0.00003842,-0.00077860,0.00098820,-0.00018551,0.000
 99218,-0.00032176,-0.00010969,0.00046985,0.00002421,0.00012447,0.00015
 628,0.00028481,0.00010817,-0.00022477,-0.00000335,-0.00003508,-0.00005
 399,-0.00242270,0.00338352,0.00533726,-0.00000662,0.00001063,-0.000025
 92,-0.00004572,-0.00032186,-0.00003495,-0.00004564,-0.00002868,0.00003
 554,0.00001255,-0.00000327,-0.00000552,0.00000041,-0.00000042,0.000001
 08,0.00000255,0.00000938,0.00001139,-0.00005806,0.00000062,0.00000591,
 0.04573399,-0.13570970,-0.11465579,-0.00010483,0.00121368,0.00108779,-
 0.00009179,0.00000528,0.00001225,-0.00000629,0.00000557,-0.00000132,-0
 .00156773,0.00068946,0.00065957,0.00000422,-0.00000459,-0.00000324,-0.
 00004857,0.00008516,-0.00003348,0.00002715,-0.00002063,-0.00001115,0.0
 0005224,0.00015419,0.00017615,-0.00002752,0.00000355,-0.00001974,0.000
 00594,0.00000905,0.00001772,0.00002313,0.00002060,0.00000444,-0.000005
 24,0.00000497,0.00000677,-0.00000267,-0.00000168,0.00000282,0.00000230
 ,-0.00000048,0.00000283,-0.00000232,0.00000330,0.00000653,0.00000085,-
 0.00000222,0.00000088,-0.00000165,0.00000005,-0.00000132,0.00001030,0.
 00000217,0.00000658,0.00000003,-0.00000127,-0.00000097,-0.00000262,-0.
 00000046,-0.00000204,0.00000612,-0.00000009,0.00000137,0.00001663,0.00
 001983,0.00000737,0.00001689,-0.00000307,0.00000551,0.00912315,-0.0167
 4426,-0.02382325,-0.00253999,0.00290069,0.00508582,-0.04920563,0.14414
 641,0.00020840,0.00019126,0.00010705,-0.00048058,0.00037725,-0.0003600
 3,0.00007715,0.00023898,0.00225022,-0.00007698,-0.00012205,0.00020256,
 0.00009100,-0.00012241,-0.00005507,0.00003109,-0.00000492,-0.00010634,
 -0.00004552,0.00008984,-0.00000511,0.00197809,-0.00520688,-0.00893466,
 -0.00005465,-0.00014977,-0.00000902,-0.00001871,0.00006783,0.00000909,
 -0.00000559,-0.00000459,0.00001239,0.00000682,0.00002032,-0.00000387,0
 .00000258,0.00001996,-0.00000305,0.00000338,-0.00001167,0.00000273,-0.
 00000050,-0.00001708,-0.00000196,0.05910087,-0.11406315,-0.19315942,-0
 .00051741,-0.00039237,0.00011110,0.00000285,-0.00000671,0.00001784,0.0
 0000452,-0.00001542,0.00000747,0.00161062,0.00096596,0.00091102,-0.000
 00318,0.00002511,-0.00000990,-0.00000064,-0.00001795,0.00001987,0.0000
 0826,-0.00000111,0.00000058,0.00000809,-0.00002907,-0.00003663,0.00000
 086,0.00000041,-0.00000349,-0.00000237,-0.00000051,0.00001225,0.000001
 10,-0.00000042,-0.00000623,-0.00000305,-0.00000752,0.00000161,0.000008
 56,0.00000926,0.00000783,-0.00000343,-0.00000159,-0.00000080,-0.000004
 01,-0.00000523,0.00000555,-0.00000370,-0.00000209,0.00000013,0.0000115
 7,0.00000805,-0.00000178,0.00000113,0.00000316,0.00000431,-0.00000324,
 0.00000229,-0.00000186,0.00000691,-0.00000626,-0.00000317,-0.00001806,
 0.00000350,0.00000853,0.00001458,0.00002042,-0.00000824,0.00000838,-0.
 00001504,-0.00000103,-0.00346765,0.00587208,0.00748508,0.00847408,-0.0
 1448267,-0.01761307,-0.06714968,0.12582380,0.20876100,-0.00003816,0.00
 010971,-0.00006821,0.00048855,-0.00075942,0.00038380,0.00135770,-0.000
 00614,0.00020912,0.00000965,0.00013547,-0.00019958,-0.00011653,0.00023
 741,0.00014277,-0.00002941,-0.00003438,0.00010470,0.00004763,-0.000143
 35,-0.00006970,-0.00003885,-0.00103994,0.00372661,0.00013307,-0.000127
 46,0.00008316,0.00000646,-0.00000250,-0.00001693,0.00000690,0.00000127
 ,-0.00001035,-0.00002907,0.00004167,-0.00000481,-0.00000288,0.00003102
 ,0.00001026,-0.00000407,0.00002093,0.00001016,-0.00000034,0.00002675,0
 .00000322,-0.00027523,-0.00010890,0.00006047,-0.12588676,0.02878371,-0
 .11662177,0.00000266,0.00001078,-0.00001300,-0.00000335,0.00002318,0.0
 0000729,0.00010464,0.00048443,0.00002922,-0.00004251,0.00008295,0.0000
 1891,0.00000738,0.00000234,-0.00000973,-0.00000240,-0.00000612,0.00000
 492,-0.00000271,0.00000664,0.00000776,-0.00000039,-0.00000336,0.000005
 62,0.00000391,0.00000098,-0.00001051,-0.00000502,0.00000258,0.00000404
 ,0.00000569,-0.00000014,-0.00000200,-0.00000280,-0.00000859,0.00000025
 ,-0.00000896,0.00000343,-0.00002355,0.00003362,-0.00001685,-0.00001946
 ,-0.00002131,0.00000821,-0.00001415,-0.00000223,-0.00001016,-0.0000052
 6,0.00000709,-0.00000538,0.00000558,0.00000099,-0.00000771,-0.00000478
 ,-0.00000984,0.00001104,0.00000156,-0.00001218,-0.00000941,-0.00000043
 ,0.00000465,-0.00000077,-0.00000882,0.00000007,0.00000833,0.00001175,0
 .00013484,0.00019725,0.00001315,0.00001314,-0.00049606,0.00031282,0.00
 001602,-0.00001130,0.00010360,0.13444813,0.00079228,0.00073072,0.00036
 359,-0.00178370,0.00085389,-0.00082556,0.00247820,-0.00833543,0.005907
 77,-0.00022428,-0.00033443,0.00063040,0.00021659,-0.00051815,-0.000513
 85,0.00014661,0.00004284,-0.00031466,-0.00008636,0.00029848,0.00010526
 ,0.01722152,-0.00051633,0.02274995,-0.00018056,-0.00050265,0.00002455,
 -0.00001269,-0.00001062,0.00006491,-0.00003227,-0.00002366,0.00003465,
 0.00001399,0.00008885,-0.00002369,0.00000521,0.00008381,0.00000748,-0.
 00000091,-0.00006115,-0.00001813,0.00003721,-0.00005867,0.00000408,0.0
 0028867,0.00104193,-0.00010519,0.02751586,-0.05797154,0.04115591,-0.00
 002671,-0.00001971,0.00005086,0.00000910,-0.00004071,-0.00000611,0.000
 34864,0.00074204,-0.00103893,0.00000178,0.00015109,-0.00000932,-0.0000
 3245,-0.00000098,0.00000682,0.00000855,-0.00001024,-0.00000566,0.00001
 021,0.00001222,-0.00000345,-0.00000431,0.00000093,-0.00001510,-0.00000
 252,0.00000858,0.00002712,0.00000556,0.00000598,-0.00000685,-0.0000015
 4,-0.00001611,0.00000132,0.00001778,0.00002059,0.00002752,-0.00001536,
 -0.00000666,-0.00001779,0.00000244,-0.00002196,-0.00000121,-0.00002322
 ,-0.00000339,-0.00000207,0.00003275,0.00001552,-0.00000967,-0.00001430
 ,0.00000637,-0.00000466,0.00000076,0.00001013,-0.00000180,0.00002776,-
 0.00001272,-0.00000439,0.00001560,0.00001064,-0.00000633,-0.00001350,-
 0.00000409,0.00001432,-0.00000816,-0.00001248,-0.00003172,0.00018117,0
 .00011392,-0.00039463,-0.00071659,-0.00024371,0.00005981,-0.00011433,-
 0.00004118,-0.00003967,-0.03118058,0.06013545,-0.00049421,-0.00023030,
 -0.00021271,0.00125076,-0.00101634,0.00076823,-0.00116780,0.00399388,-
 0.00051533,0.00018826,0.00026383,-0.00042804,-0.00024680,0.00041474,0.
 00029311,-0.00012368,-0.00005123,0.00022467,0.00008385,-0.00024875,-0.
 00007338,-0.00442494,-0.00243974,-0.00740994,0.00023276,0.00011012,0.0
 0006574,0.00001959,-0.00000725,-0.00003799,0.00003017,-0.00000457,-0.0
 0002407,-0.00002234,-0.00000969,0.00000603,-0.00001654,-0.00001036,-0.
 00002530,-0.00000340,0.00004183,0.00001169,-0.00002324,0.00004223,0.00
 000413,-0.00041146,-0.00050230,-0.00012669,-0.11569841,0.04258442,-0.2
 1507422,0.00001743,0.00002132,-0.00003323,-0.00000738,0.00003481,0.000
 00081,0.00009586,0.00041493,0.00042034,-0.00001222,-0.00000414,-0.0000
 1796,0.00002149,0.00000504,-0.00001195,-0.00000727,0.00001241,0.000007
 26,-0.00001621,-0.00000775,0.00000278,0.00000302,-0.00000024,0.0000127
 7,0.00000378,0.00000172,-0.00002440,-0.00001018,0.00000436,0.00001086,
 0.00000414,0.00000309,0.00001332,-0.00000861,-0.00001746,-0.00001127,-
 0.00000642,0.00001073,-0.00000781,0.00000479,0.00000930,0.00000035,-0.
 00000911,0.00001094,0.00000512,-0.00001724,-0.00001558,0.00000407,0.00
 000969,-0.00000756,0.00000343,0.00000138,-0.00000869,-0.00000116,-0.00
 002004,0.00001463,0.00000481,-0.00000201,-0.00000939,-0.00000009,0.000
 00379,-0.00000749,-0.00000880,-0.00000001,0.00001728,0.00002016,0.0002
 1369,-0.00006862,0.00027329,0.00059895,0.00027679,0.00048764,-0.000069
 77,0.00009636,-0.00004168,0.12890210,-0.04739386,0.23272683,0.00027871
 ,0.00031750,0.00004824,-0.00061205,-0.00015416,0.00005410,0.00233178,0
 .00034477,0.00046933,0.00009157,0.00002276,0.00000282,0.00010531,-0.00
 004126,-0.00013285,-0.00006707,-0.00000594,-0.00000347,-0.00003068,0.0
 0003952,0.00001520,-0.00502774,0.00113281,-0.00064782,-0.00002759,-0.0
 0025918,0.00005998,0.00000338,0.00001610,-0.00000134,0.00001207,0.0000
 0233,-0.00000310,-0.00001306,0.00004702,-0.00000556,0.00001038,0.00002
 735,-0.00001816,-0.00000483,-0.00001566,0.00000764,-0.00002233,-0.0000
 2399,0.00001681,0.00115859,-0.00165913,-0.00006749,-0.28962064,-0.0433
 8563,0.05538641,0.00001301,-0.00000384,0.00000238,0.00000229,0.0000008
 6,-0.00000752,0.00056208,-0.00059465,-0.00024331,-0.00000804,0.0000694
 3,0.00003592,0.00000684,-0.00000598,0.00001226,0.00000121,0.00002442,-
 0.00000163,-0.00000392,-0.00002400,-0.00001898,0.00001041,-0.00000268,
 0.00000527,-0.00000175,0.00000072,-0.00000067,-0.00000843,-0.00000184,
 -0.00000156,0.00000617,-0.00000671,-0.00000845,0.00000854,0.00000782,0
 .00001189,-0.00001022,0.00000013,-0.00001815,0.00001717,-0.00001881,0.
 00001054,-0.00001630,0.00000991,-0.00000249,0.00002098,0.00000687,0.00
 000308,0.00000013,-0.00000025,0.00000058,0.00000637,0.00000381,-0.0000
 0689,0.00000623,0.00000093,-0.00000129,0.00001153,0.00000235,-0.000009
 52,0.00000865,0.00000610,0.00000325,0.00000341,0.00000039,-0.00000794,
 -0.00029195,-0.00009553,0.00018629,0.00025652,0.00021968,0.00001002,0.
 00020382,0.00015503,-0.00018134,-0.01536182,-0.00276913,0.00441501,0.3
 1357857,-0.00013579,-0.00014517,-0.00015703,0.00014995,-0.00048605,0.0
 0078757,0.00042296,0.00272845,-0.00244469,0.00015078,0.00015546,-0.000
 24124,0.00001470,0.00017021,-0.00009463,-0.00010775,-0.00001657,0.0001
 2321,0.00003721,-0.00009210,-0.00003774,-0.03298712,-0.00608228,0.0074
 1303,0.00004555,0.00015648,0.00004239,0.00001129,-0.00000553,-0.000024
 20,0.00002534,-0.00000086,-0.00001591,0.00001239,-0.00001338,-0.000000
 64,0.00001257,0.00000160,0.00006374,-0.00001012,0.00000190,0.00001682,
 -0.00003694,-0.00001279,0.00002988,0.00095673,-0.00624674,0.00185761,-
 0.04096900,-0.05304879,0.00903903,0.00001738,0.00000584,-0.00001643,-0
 .00000844,0.00002896,-0.00000807,0.00022679,0.00133081,-0.00053168,0.0
 0000073,-0.00001587,-0.00000736,0.00001945,-0.00000362,0.00001075,-0.0
 0000475,0.00003862,-0.00000175,-0.00000954,-0.00002659,-0.00002150,0.0
 0000744,0.00000282,0.00000966,0.00000008,-0.00000153,-0.00001125,-0.00
 000547,0.00000033,0.00000279,0.00000278,0.00000284,-0.00000586,-0.0000
 1013,-0.00000958,-0.00000925,0.00000164,0.00000025,0.00000514,0.000028
 66,0.00001017,-0.00002459,-0.00000080,-0.00000812,-0.00001251,-0.00002
 507,-0.00001783,-0.00002105,0.00000326,-0.00000235,-0.00000298,0.00001
 199,-0.00000239,-0.00000664,-0.00000389,0.00001010,0.00000013,0.000021
 89,-0.00000455,-0.00001868,0.00000409,-0.00000367,0.00000291,0.0000014
 8,0.00001603,-0.00000397,-0.00199718,-0.00045005,0.00069383,0.00024800
 ,0.00006701,-0.00024661,0.00002754,0.00002873,0.00023398,0.00662568,0.
 00016578,-0.00222155,0.04805988,0.05852260,-0.00010916,-0.00034418,0.0
 0005509,0.00014337,0.00095835,-0.00019375,-0.00000398,-0.00111598,0.00
 066919,-0.00015843,-0.00016570,0.00022413,0.00007184,-0.00026241,-0.00
 021957,0.00009317,0.00003529,-0.00011019,-0.00003197,0.00014073,0.0000
 7088,0.00831447,0.00139139,-0.00369530,-0.00021271,0.00039492,-0.00015
 714,-0.00000517,-0.00001310,0.00002253,-0.00001777,-0.00000587,0.00001
 506,0.00006464,-0.00009753,0.00000650,0.00000948,-0.00006255,0.0000144
 3,0.00000126,-0.00002524,-0.00000767,0.00000958,-0.00002850,0.00000728
 ,-0.00037130,0.00197829,-0.00013036,0.05454967,0.00864706,-0.05849028,
 -0.00001459,-0.00000914,0.00001631,0.00000357,-0.00002449,-0.00000711,
 -0.00065951,-0.00014628,0.00019828,0.00009482,-0.00018361,-0.00002547,
 -0.00001465,0.00000260,-0.00000026,0.00000039,-0.00001264,-0.00000333,
 0.00000452,0.00001228,0.00000693,-0.00000797,0.00000641,-0.00001078,-0
 .00000285,-0.00000125,0.00001274,0.00001298,-0.00000062,-0.00000365,-0
 .00001092,0.00000613,0.00000422,-0.00000370,0.00000668,-0.00000682,0.0
 0001929,-0.00000438,0.00004903,-0.00004752,0.00002998,0.00002590,0.000
 04358,-0.00001600,0.00001572,-0.00000859,0.00000711,0.00000461,-0.0000
 0817,0.00000751,-0.00000963,0.00000059,0.00000790,0.00000716,0.0000096
 8,-0.00001001,-0.00000221,0.00001375,0.00000495,-0.00000478,-0.0000097
 1,-0.00000576,0.00000397,-0.00000449,-0.00000303,-0.00001576,0.0006109
 7,0.00027029,0.00036707,0.00032041,-0.00001189,0.00019707,-0.00041163,
 -0.00008037,0.00029708,-0.02535262,-0.00531338,0.00652242,-0.06020495,
 -0.01104298,0.05921921,-0.00007996,-0.00031351,-0.00010791,-0.00002917
 ,0.00052420,0.00032777,-0.00016000,0.00006168,-0.00013468,-0.00006129,
 -0.00008306,0.00003489,0.00007116,-0.00011079,-0.00018948,0.00005006,0
 .00002813,-0.00002086,-0.00000689,0.00006154,0.00001762,0.00024355,-0.
 00235837,-0.00346971,-0.00015340,0.00036602,-0.00007652,-0.00000837,-0
 .00000220,0.00000263,-0.00001554,0.00001394,0.00000344,0.00003576,-0.0
 0005870,0.00000143,0.00002676,-0.00004474,0.00007604,-0.00000439,-0.00
 001701,0.00000512,-0.00000226,-0.00002423,0.00001421,0.00050010,-0.000
 54879,-0.00120856,-0.06739381,0.04363690,0.05537554,-0.00000797,-0.000
 00667,0.00000150,0.00000026,-0.00000336,-0.00000362,0.00066455,-0.0009
 6205,0.00013837,0.00002050,-0.00012089,0.00004724,-0.00000511,0.000000
 62,-0.00000104,-0.00000046,-0.00001430,-0.00000249,0.00001085,0.000010
 22,0.00000886,-0.00000486,0.00000104,-0.00000462,-0.00000057,-0.000006
 31,0.00000600,0.00001167,-0.00000612,-0.00000461,-0.00000163,0.0000135
 4,-0.00002310,-0.00001303,-0.00000090,-0.00000899,0.00002128,-0.000009
 99,0.00002719,0.00000846,-0.00000298,-0.00001760,0.00003143,-0.0000137
 4,-0.00002055,-0.00001404,-0.00000112,-0.00000463,-0.00000393,0.000004
 20,-0.00000642,0.00000477,0.00000272,-0.00000022,0.00000547,-0.0000016
 0,-0.00000228,0.00000967,0.00000030,-0.00000869,-0.00000270,0.00000103
 ,0.00000076,-0.00000071,0.00000175,-0.00001086,-0.00004631,0.00021341,
 0.00006671,-0.00003511,-0.00009801,-0.00006770,0.00021530,-0.00004272,
 0.00027584,0.00506405,-0.01213475,-0.01328121,-0.00758729,0.01916375,0
 .02328033,0.06864316,0.00001875,0.00013428,0.00005336,0.00013558,-0.00
 036147,-0.00036557,-0.00081240,0.00381430,0.00039777,-0.00006624,0.000
 01530,0.00010754,0.00000655,0.00011133,0.00023438,0.00003714,-0.000004
 33,-0.00004740,-0.00001173,-0.00000540,-0.00003731,0.00901135,-0.02308
 083,-0.02689519,0.00006091,-0.00013621,0.00002963,0.00000449,-0.000038
 72,0.00000856,0.00000041,-0.00002795,0.00001020,0.00000521,0.00002436,
 -0.00000584,-0.00000421,0.00002759,-0.00001326,0.00000343,0.00000195,0
 .00001178,-0.00003991,-0.00000365,-0.00000950,0.00142394,0.00144282,-0
 .00085171,0.04371945,-0.13814987,-0.11595213,-0.00000985,0.00000471,0.
 00000704,0.00000054,-0.00000313,0.00000771,-0.00109469,-0.00567776,0.0
 0268318,-0.00000370,0.00004708,-0.00002253,-0.00000463,0.00000712,-0.0
 0000070,0.00000366,0.00001116,0.00000080,-0.00000745,0.00000779,0.0000
 0068,-0.00000377,0.00000447,-0.00000221,0.00000117,0.00000625,0.000002
 76,0.00000074,0.00001106,0.00000449,-0.00000092,-0.00000365,0.00001283
 ,-0.00000005,-0.00000102,0.00000380,-0.00000901,0.00000247,-0.00000720
 ,0.00000134,-0.00000398,0.00000644,-0.00001355,0.00000236,0.00000191,0
 .00000123,-0.00000021,-0.00000036,0.00000952,-0.00000005,0.00000801,-0
 .00000303,-0.00000112,-0.00000334,0.00000025,-0.00000061,-0.00000179,-
 0.00002715,0.00000180,0.00001368,0.00002973,0.00004310,-0.00000784,0.0
 0002467,-0.00001431,0.00001580,0.00007855,0.00044487,0.00034090,-0.000
 04740,-0.00000285,0.00008688,-0.00097349,0.00023180,0.00075273,-0.0028
 7725,0.00422682,0.00589807,-0.00145012,0.00325139,0.00507906,-0.047118
 05,0.15364093,0.00026301,0.00024014,0.00013622,-0.00059134,0.00046937,
 -0.00042015,0.00122544,-0.00104227,0.00228035,-0.00008377,-0.00013609,
 0.00024117,0.00005197,-0.00016174,-0.00010191,0.00005194,0.00002120,-0
 .00013063,-0.00004443,0.00008388,0.00000568,-0.00290697,0.00623875,0.0
 0491698,-0.00006599,-0.00018826,-0.00001712,-0.00000852,-0.00000334,0.
 00002263,-0.00001138,-0.00000442,0.00001453,-0.00000160,0.00002357,-0.
 00000214,-0.00000324,0.00001768,-0.00001697,0.00000439,-0.00000635,-0.
 00000530,0.00002230,-0.00000818,-0.00000851,-0.00060559,0.00013301,0.0
 0067124,0.05505188,-0.11763614,-0.19208737,-0.00000853,-0.00000875,0.0
 0001801,0.00000401,-0.00001535,0.00000605,-0.00005532,0.00212159,0.000
 71340,0.00001265,0.00002619,-0.00000167,-0.00001075,-0.00000361,0.0000
 0885,0.00000374,0.00000325,-0.00000269,0.00000624,0.00000081,-0.000006
 90,-0.00000030,0.00000042,-0.00000504,-0.00000189,0.00000025,0.0000128
 1,0.00000328,0.00000109,-0.00000764,-0.00000287,-0.00000827,0.00000255
 ,0.00001369,0.00001174,0.00000990,-0.00000459,-0.00000029,-0.00000475,
 -0.00000707,-0.00000263,0.00000947,-0.00000562,0.00000056,0.00000408,0
 .00001751,0.00001108,0.00000071,-0.00000182,0.00000281,0.00000355,-0.0
 0000432,0.00000192,0.00000023,0.00000570,-0.00000664,-0.00000222,-0.00
 001199,0.00000227,0.00000640,0.00000218,0.00000438,-0.00000043,-0.0000
 0031,-0.00001200,-0.00000426,-0.00017336,0.00002534,0.00012705,0.00009
 375,-0.00008219,-0.00001997,-0.00031727,-0.00032840,0.00013109,0.00829
 280,-0.01512864,-0.01780383,0.00083748,-0.00310167,-0.00493874,-0.0610
 3512,0.12844392,0.20624529\\0.00000142,0.00000185,-0.00000070,-0.00000
 103,0.00000422,-0.00000239,0.00000102,-0.00000033,-0.00000031,-0.00000
 153,-0.00000099,0.00000327,0.00000214,-0.00000204,-0.00000148,-0.00000
 467,-0.00000295,0.00000316,-0.00000548,-0.00000098,0.00000213,-0.00000
 069,-0.00000182,0.00000047,0.00000055,-0.00000259,0.00000002,0.0000029
 3,0.00000314,-0.00000785,0.00000459,-0.00000047,-0.00000241,-0.0000002
 5,-0.00000058,0.00000013,-0.00000449,-0.00000097,0.00000181,0.00000344
 ,-0.00000110,0.00000555,-0.00000033,-0.00000359,-0.00000142,0.00000322
 ,0.00000511,0.00000525,0.00000115,0.00000044,0.00000057,0.00000054,0.0
 0000272,-0.00000044,0.00000044,-0.00000006,-0.00000071,-0.00000010,-0.
 00000046,0.00000036,0.00000030,0.00000026,-0.00000179,-0.00000090,-0.0
 0000051,0.00000442,0.00000061,0.00000227,0.00000321,0.00000070,-0.0000
 0140,0.00000097,0.00000016,0.00000112,0.00000083,-0.00000059,0.0000006
 4,0.00000203,-0.00000059,0.00000272,-0.00000038,0.00000188,0.00000073,
 -0.00000172,0.00000043,0.00000121,-0.00000108,0.00000045,-0.00000015,-
 0.00000082,0.00000037,-0.00000023,-0.00000189,0.00000134,-0.00000113,-
 0.00000034,0.00000130,0.00000110,-0.00000167,-0.00000108,-0.00000161,-
 0.00000353,0.00000065,-0.00000029,-0.00000128,-0.00000164,0.00000200,0
 .00000072,-0.00000097,-0.00000137,0.00000101,0.00000086,-0.00000073,0.
 00000062,-0.00000213,0.00000259,0.00000160,-0.00000034,-0.00000267,0.0
 0000042,-0.00000304,-0.00000015,-0.00000305,0.00000016,-0.00000125,-0.
 00000163,-0.00000051,-0.00000055,0.00000022,-0.00000039,-0.00000046,-0
 .00000024,0.00000007,-0.00000073,-0.00000164\\\@


 FOR THE NATURE OF THE CHEMICAL BOND
 IS THE PROBLEM AT THE HEART OF ALL CHEMISTRY.

                     -- BRYCE CRAWFORD, JR., 1953
 Job cpu time:  3 days 12 hours 53 minutes 36.8 seconds.
 File lengths (MBytes):  RWF=   2345 Int=      0 D2E=      0 Chk=     25 Scr=      1
 Normal termination of Gaussian 03 at Sun Dec  4 07:19:53 2011.
